 108 108   0   0
  0.1022088E+02  0.1033485E-08  0.1033485E-08  0.1033485E-08  0.5000000E-15
  1.000000000000000E-004
  CAR 
 Opt                                     
      9.95507155     -4.00055073  301      6.80727126      1.00000000
     -4.001  0.0000E+00  0.0000E+00
     -3.954  0.0000E+00  0.0000E+00
     -3.908  0.0000E+00  0.0000E+00
     -3.861  0.0000E+00  0.0000E+00
     -3.814  0.0000E+00  0.0000E+00
     -3.768  0.0000E+00  0.0000E+00
     -3.721  0.0000E+00  0.0000E+00
     -3.675  0.0000E+00  0.0000E+00
     -3.628 -0.2295E-31 -0.1068E-32
     -3.582 -0.2659E-29 -0.1247E-30
     -3.535 -0.9984E-28 -0.4769E-29
     -3.489 -0.3397E-26 -0.1628E-27
     -3.442 -0.1037E-24 -0.4986E-26
     -3.396 -0.2841E-23 -0.1372E-24
     -3.349 -0.6990E-22 -0.3389E-23
     -3.303 -0.1543E-20 -0.7519E-22
     -3.256 -0.3059E-19 -0.1498E-20
     -3.210 -0.5443E-18 -0.2682E-19
     -3.163 -0.8429E-17 -0.4189E-18
     -3.117 -0.1207E-15 -0.6035E-17
     -3.070 -0.1550E-14 -0.7815E-16
     -3.024 -0.1782E-13 -0.9073E-15
     -2.977 -0.1840E-12 -0.9465E-14
     -2.931 -0.1703E-11 -0.8867E-13
     -2.884 -0.1413E-10 -0.7460E-12
     -2.838 -0.1051E-09 -0.5635E-11
     -2.791 -0.7006E-09 -0.3822E-10
     -2.745 -0.4183E-08 -0.2328E-09
     -2.698 -0.2236E-07 -0.1273E-08
     -2.652 -0.1070E-06 -0.6251E-08
     -2.605 -0.4577E-06 -0.2754E-07
     -2.558 -0.1749E-05 -0.1089E-06
     -2.512 -0.5962E-05 -0.3862E-06
     -2.465 -0.1809E-04 -0.1228E-05
     -2.419 -0.4870E-04 -0.3493E-05
     -2.372 -0.1158E-03 -0.8881E-05
     -2.326 -0.2415E-03 -0.2011E-04
     -2.279 -0.4354E-03 -0.4037E-04
     -2.233 -0.6605E-03 -0.7109E-04
     -2.186 -0.7875E-03 -0.1077E-03
     -2.140 -0.5666E-03 -0.1341E-03
     -2.093  0.3439E-03 -0.1181E-03
     -2.047  0.2272E-02 -0.1239E-04
     -2.000  0.5383E-02  0.2380E-03
     -1.954  0.9566E-02  0.6830E-03
     -1.907  0.1445E-01  0.1355E-02
     -1.861  0.1952E-01  0.2263E-02
     -1.814  0.2433E-01  0.3395E-02
     -1.768  0.2862E-01  0.4726E-02
     -1.721  0.3232E-01  0.6230E-02
     -1.675  0.3553E-01  0.7883E-02
     -1.628  0.3840E-01  0.9669E-02
     -1.582  0.4106E-01  0.1158E-01
     -1.535  0.4358E-01  0.1361E-01
     -1.489  0.4599E-01  0.1575E-01
     -1.442  0.4832E-01  0.1799E-01
     -1.396  0.5059E-01  0.2035E-01
     -1.349  0.5287E-01  0.2281E-01
     -1.302  0.5512E-01  0.2537E-01
     -1.256  0.5729E-01  0.2804E-01
     -1.209  0.5934E-01  0.3080E-01
     -1.163  0.6134E-01  0.3365E-01
     -1.116  0.6343E-01  0.3660E-01
     -1.070  0.6564E-01  0.3965E-01
     -1.023  0.6784E-01  0.4281E-01
     -0.977  0.6982E-01  0.4606E-01
     -0.930  0.7159E-01  0.4939E-01
     -0.884  0.7338E-01  0.5280E-01
     -0.837  0.7545E-01  0.5631E-01
     -0.791  0.7779E-01  0.5993E-01
     -0.744  0.8013E-01  0.6366E-01
     -0.698  0.8215E-01  0.6748E-01
     -0.651  0.8378E-01  0.7138E-01
     -0.605  0.8532E-01  0.7535E-01
     -0.558  0.8719E-01  0.7940E-01
     -0.512  0.8962E-01  0.8357E-01
     -0.465  0.9237E-01  0.8787E-01
     -0.419  0.9488E-01  0.9228E-01
     -0.372  0.9672E-01  0.9678E-01
     -0.326  0.9802E-01  0.1013E+00
     -0.279  0.9945E-01  0.1060E+00
     -0.233  0.1016E+00  0.1107E+00
     -0.186  0.1046E+00  0.1156E+00
     -0.139  0.1078E+00  0.1206E+00
     -0.093  0.1104E+00  0.1257E+00
     -0.046  0.1122E+00  0.1309E+00
      0.000  0.1137E+00  0.1362E+00
      0.047  0.1154E+00  0.1416E+00
      0.093  0.1178E+00  0.1471E+00
      0.140  0.1209E+00  0.1527E+00
      0.186  0.1244E+00  0.1585E+00
      0.233  0.1276E+00  0.1644E+00
      0.279  0.1302E+00  0.1705E+00
      0.326  0.1322E+00  0.1766E+00
      0.372  0.1339E+00  0.1829E+00
      0.419  0.1362E+00  0.1892E+00
      0.465  0.1396E+00  0.1957E+00
      0.512  0.1439E+00  0.2024E+00
      0.558  0.1483E+00  0.2093E+00
      0.605  0.1518E+00  0.2163E+00
      0.651  0.1541E+00  0.2235E+00
      0.698  0.1562E+00  0.2308E+00
      0.744  0.1593E+00  0.2382E+00
      0.791  0.1639E+00  0.2458E+00
      0.837  0.1692E+00  0.2537E+00
      0.884  0.1743E+00  0.2618E+00
      0.930  0.1784E+00  0.2701E+00
      0.977  0.1820E+00  0.2786E+00
      1.023  0.1862E+00  0.2872E+00
      1.070  0.1914E+00  0.2961E+00
      1.117  0.1975E+00  0.3053E+00
      1.163  0.2038E+00  0.3148E+00
      1.210  0.2099E+00  0.3245E+00
      1.256  0.2162E+00  0.3346E+00
      1.303  0.2232E+00  0.3450E+00
      1.349  0.2310E+00  0.3557E+00
      1.396  0.2392E+00  0.3669E+00
      1.442  0.2476E+00  0.3784E+00
      1.489  0.2563E+00  0.3903E+00
      1.535  0.2656E+00  0.4027E+00
      1.582  0.2755E+00  0.4155E+00
      1.628  0.2864E+00  0.4288E+00
      1.675  0.3000E+00  0.4427E+00
      1.721  0.3212E+00  0.4577E+00
      1.768  0.3569E+00  0.4743E+00
      1.814  0.4141E+00  0.4936E+00
      1.861  0.4959E+00  0.5166E+00
      1.907  0.5992E+00  0.5445E+00
      1.954  0.7137E+00  0.5777E+00
      2.000  0.8251E+00  0.6161E+00
      2.047  0.9193E+00  0.6588E+00
      2.093  0.9874E+00  0.7048E+00
      2.140  0.1028E+01  0.7526E+00
      2.186  0.1048E+01  0.8014E+00
      2.233  0.1055E+01  0.8505E+00
      2.279  0.1057E+01  0.8996E+00
      2.326  0.1058E+01  0.9488E+00
      2.373  0.1060E+01  0.9981E+00
      2.419  0.1065E+01  0.1048E+01
      2.466  0.1076E+01  0.1098E+01
      2.512  0.1094E+01  0.1149E+01
      2.559  0.1124E+01  0.1201E+01
      2.605  0.1166E+01  0.1255E+01
      2.652  0.1220E+01  0.1312E+01
      2.698  0.1282E+01  0.1372E+01
      2.745  0.1347E+01  0.1434E+01
      2.791  0.1409E+01  0.1500E+01
      2.838  0.1467E+01  0.1568E+01
      2.884  0.1521E+01  0.1639E+01
      2.931  0.1571E+01  0.1712E+01
      2.977  0.1615E+01  0.1787E+01
      3.024  0.1650E+01  0.1864E+01
      3.070  0.1673E+01  0.1942E+01
      3.117  0.1681E+01  0.2020E+01
      3.163  0.1673E+01  0.2098E+01
      3.210  0.1653E+01  0.2174E+01
      3.256  0.1622E+01  0.2250E+01
      3.303  0.1587E+01  0.2324E+01
      3.349  0.1551E+01  0.2396E+01
      3.396  0.1519E+01  0.2467E+01
      3.442  0.1493E+01  0.2536E+01
      3.489  0.1479E+01  0.2605E+01
      3.535  0.1474E+01  0.2673E+01
      3.582  0.1475E+01  0.2742E+01
      3.629  0.1476E+01  0.2811E+01
      3.675  0.1469E+01  0.2879E+01
      3.722  0.1451E+01  0.2947E+01
      3.768  0.1423E+01  0.3013E+01
      3.815  0.1388E+01  0.3077E+01
      3.861  0.1348E+01  0.3140E+01
      3.908  0.1309E+01  0.3201E+01
      3.954  0.1272E+01  0.3260E+01
      4.001  0.1246E+01  0.3318E+01
      4.047  0.1235E+01  0.3375E+01
      4.094  0.1245E+01  0.3433E+01
      4.140  0.1279E+01  0.3493E+01
      4.187  0.1333E+01  0.3555E+01
      4.233  0.1401E+01  0.3620E+01
      4.280  0.1473E+01  0.3689E+01
      4.326  0.1541E+01  0.3760E+01
      4.373  0.1603E+01  0.3835E+01
      4.419  0.1657E+01  0.3912E+01
      4.466  0.1707E+01  0.3991E+01
      4.512  0.1750E+01  0.4073E+01
      4.559  0.1786E+01  0.4156E+01
      4.605  0.1809E+01  0.4240E+01
      4.652  0.1822E+01  0.4325E+01
      4.698  0.1828E+01  0.4410E+01
      4.745  0.1837E+01  0.4495E+01
      4.791  0.1858E+01  0.4582E+01
      4.838  0.1900E+01  0.4670E+01
      4.885  0.1964E+01  0.4761E+01
      4.931  0.2047E+01  0.4857E+01
      4.978  0.2134E+01  0.4956E+01
      5.024  0.2209E+01  0.5059E+01
      5.071  0.2256E+01  0.5164E+01
      5.117  0.2272E+01  0.5269E+01
      5.164  0.2270E+01  0.5375E+01
      5.210  0.2273E+01  0.5481E+01
      5.257  0.2306E+01  0.5588E+01
      5.303  0.2378E+01  0.5698E+01
      5.350  0.2480E+01  0.5814E+01
      5.396  0.2584E+01  0.5934E+01
      5.443  0.2648E+01  0.6057E+01
      5.489  0.2641E+01  0.6180E+01
      5.536  0.2551E+01  0.6299E+01
      5.582  0.2393E+01  0.6410E+01
      5.629  0.2200E+01  0.6512E+01
      5.675  0.2008E+01  0.6606E+01
      5.722  0.1843E+01  0.6691E+01
      5.768  0.1716E+01  0.6771E+01
      5.815  0.1624E+01  0.6847E+01
      5.861  0.1562E+01  0.6920E+01
      5.908  0.1522E+01  0.6990E+01
      5.954  0.1496E+01  0.7060E+01
      6.001  0.1481E+01  0.7129E+01
      6.047  0.1478E+01  0.7198E+01
      6.094  0.1491E+01  0.7267E+01
      6.141  0.1526E+01  0.7338E+01
      6.187  0.1585E+01  0.7412E+01
      6.234  0.1667E+01  0.7489E+01
      6.280  0.1764E+01  0.7571E+01
      6.327  0.1864E+01  0.7658E+01
      6.373  0.1958E+01  0.7749E+01
      6.420  0.2039E+01  0.7844E+01
      6.466  0.2101E+01  0.7942E+01
      6.513  0.2140E+01  0.8041E+01
      6.559  0.2151E+01  0.8141E+01
      6.606  0.2131E+01  0.8240E+01
      6.652  0.2086E+01  0.8337E+01
      6.699  0.2024E+01  0.8432E+01
      6.745  0.1959E+01  0.8523E+01
      6.792  0.1900E+01  0.8611E+01
      6.838  0.1851E+01  0.8697E+01
      6.885  0.1811E+01  0.8781E+01
      6.931  0.1781E+01  0.8864E+01
      6.978  0.1757E+01  0.8946E+01
      7.024  0.1741E+01  0.9027E+01
      7.071  0.1732E+01  0.9108E+01
      7.117  0.1730E+01  0.9188E+01
      7.164  0.1735E+01  0.9269E+01
      7.210  0.1750E+01  0.9350E+01
      7.257  0.1773E+01  0.9433E+01
      7.304  0.1804E+01  0.9517E+01
      7.350  0.1842E+01  0.9602E+01
      7.397  0.1886E+01  0.9690E+01
      7.443  0.1932E+01  0.9780E+01
      7.490  0.1971E+01  0.9872E+01
      7.536  0.1986E+01  0.9964E+01
      7.583  0.1951E+01  0.1005E+02
      7.629  0.1838E+01  0.1014E+02
      7.676  0.1628E+01  0.1022E+02
      7.722  0.1326E+01  0.1028E+02
      7.769  0.9679E+00  0.1032E+02
      7.815  0.6105E+00  0.1035E+02
      7.862  0.3100E+00  0.1037E+02
      7.908  0.1004E+00  0.1037E+02
      7.955 -0.1510E-01  0.1037E+02
      8.001 -0.5779E-01  0.1037E+02
      8.048 -0.5805E-01  0.1036E+02
      8.094 -0.4183E-01  0.1036E+02
      8.141 -0.2465E-01  0.1036E+02
      8.187 -0.1242E-01  0.1036E+02
      8.234 -0.5475E-02  0.1036E+02
      8.280 -0.2142E-02  0.1036E+02
      8.327 -0.7527E-03  0.1036E+02
      8.373 -0.2409E-03  0.1036E+02
      8.420 -0.7125E-04  0.1036E+02
      8.466 -0.1980E-04  0.1036E+02
      8.513 -0.5241E-05  0.1036E+02
      8.560 -0.1330E-05  0.1036E+02
      8.606 -0.3221E-06  0.1036E+02
      8.653 -0.7362E-07  0.1036E+02
      8.699 -0.1565E-07  0.1036E+02
      8.746 -0.3055E-08  0.1036E+02
      8.792 -0.5418E-09  0.1036E+02
      8.839 -0.8679E-10  0.1036E+02
      8.885 -0.1250E-10  0.1036E+02
      8.932 -0.1615E-11  0.1036E+02
      8.978 -0.1870E-12  0.1036E+02
      9.025 -0.1936E-13  0.1036E+02
      9.071 -0.1791E-14  0.1036E+02
      9.118 -0.1485E-15  0.1036E+02
      9.164 -0.1100E-16  0.1036E+02
      9.211 -0.7857E-18  0.1036E+02
      9.257  0.0000E+00  0.1036E+02
      9.304  0.0000E+00  0.1036E+02
      9.350  0.0000E+00  0.1036E+02
      9.397  0.0000E+00  0.1036E+02
      9.443  0.0000E+00  0.1036E+02
      9.490  0.0000E+00  0.1036E+02
      9.536  0.0000E+00  0.1036E+02
      9.583  0.0000E+00  0.1036E+02
      9.629  0.0000E+00  0.1036E+02
      9.676  0.0000E+00  0.1036E+02
      9.722  0.0000E+00  0.1036E+02
      9.769  0.0000E+00  0.1036E+02
      9.816  0.0000E+00  0.1036E+02
      9.862  0.0000E+00  0.1036E+02
      9.909  0.0000E+00  0.1036E+02
      9.955  0.0000E+00  0.1036E+02
