  108  108  100    1
  0.1022088E+02  0.1033485E-08  0.1033485E-08  0.1033485E-08  0.5000000E-15
  1.000000000000000E-004
  CAR 
 Opt                                     
    864     35    518
 
  0.0000000E+00  0.0000000E+00  0.0000000E+00  0.1371742E-02
    1       -2.000551   1.000000
    2       -0.508883   1.000000
    3       -0.508883   1.000000
    4       -0.508883   1.000000
    5       -0.507809   1.000000
    6       -0.507809   1.000000
    7       -0.507809   1.000000
    8        0.782069   1.000000
    9        0.782069   1.000000
   10        0.782069   1.000000
   11        0.783066   1.000000
   12        0.783066   1.000000
   13        0.783066   1.000000
   14        0.783066   1.000000
   15        0.783066   1.000000
   16        0.783066   1.000000
   17        0.784063   1.000000
   18        0.784063   1.000000
   19        0.784063   1.000000
   20        1.421572   1.000000
   21        1.422235   1.000000
   22        1.422235   1.000000
   23        1.422235   1.000000
   24        1.422899   1.000000
   25        1.422899   1.000000
   26        1.422899   1.000000
   27        1.423563   1.000000
   28        1.866288   1.000000
   29        1.866288   1.000000
   30        1.866288   1.000000
   31        1.898737   1.000000
   32        1.898737   1.000000
   33        1.898737   1.000000
   34        1.899366   1.000000
   35        1.899366   1.000000
   36        1.899367   1.000000
   37        2.593666   1.000000
   38        2.593667   1.000000
   39        2.593667   1.000000
   40        2.593670   1.000000
   41        2.593670   1.000000
   42        2.593670   1.000000
   43        2.593672   1.000000
   44        2.593672   1.000000
   45        2.593672   1.000000
   46        2.593679   1.000000
   47        2.593679   1.000000
   48        2.593679   1.000000
   49        2.593841   1.000000
   50        2.593841   1.000000
   51        2.593841   1.000000
   52        2.593849   1.000000
   53        2.593849   1.000000
   54        2.593849   1.000000
   55        2.593850   1.000000
   56        2.593850   1.000000
   57        2.593850   1.000000
   58        2.593854   1.000000
   59        2.593854   1.000000
   60        2.593854   1.000000
   61        2.608225   1.000000
   62        2.608225   1.000000
   63        2.608225   1.000000
   64        2.667941   1.000000
   65        2.667941   1.000000
   66        2.667941   1.000000
   67        2.667942   1.000000
   68        2.667942   1.000000
   69        2.667942   1.000000
   70        2.668905   1.000000
   71        2.668905   1.000000
   72        2.668905   1.000000
   73        2.668906   1.000000
   74        2.668906   1.000000
   75        2.668906   1.000000
   76        2.881842   1.000000
   77        2.881842   1.000000
   78        2.881842   1.000000
   79        2.881842   1.000000
   80        2.881842   1.000000
   81        2.881842   1.000000
   82        2.882320   1.000000
   83        2.882320   1.000000
   84        2.882320   1.000000
   85        2.882320   1.000000
   86        2.882320   1.000000
   87        2.882320   1.000000
   88        2.882781   1.000000
   89        2.882781   1.000000
   90        2.882781   1.000000
   91        2.882781   1.000000
   92        2.882781   1.000000
   93        2.882781   1.000000
   94        2.883259   1.000000
   95        2.883259   1.000000
   96        2.883259   1.000000
   97        2.883260   1.000000
   98        2.883260   1.000000
   99        2.883260   1.000000
  100        3.186579   1.000000
  101        3.186580   1.000000
  102        3.186580   1.000000
  103        3.187613   1.000000
  104        3.187613   1.000000
  105        3.187613   1.000000
  106        3.314189   1.000000
  107        3.314189   1.000000
  108        3.314189   1.000000
  109        3.314311   1.000000
  110        3.314311   1.000000
  111        3.314311   1.000000
  112        3.314311   1.000000
  113        3.314311   1.000000
  114        3.314311   1.000000
  115        3.314426   1.000000
  116        3.314426   1.000000
  117        3.314427   1.000000
  118        3.324169   1.000000
  119        3.324169   1.000000
  120        3.324169   1.000000
  121        3.324169   1.000000
  122        3.324169   1.000000
  123        3.324169   1.000000
  124        3.325132   1.000000
  125        3.325132   1.000000
  126        3.325132   1.000000
  127        3.325132   1.000000
  128        3.325132   1.000000
  129        3.325132   1.000000
  130        3.570870   1.000000
  131        3.570870   1.000000
  132        3.570870   1.000000
  133        3.570882   1.000000
  134        3.570882   1.000000
  135        3.570882   1.000000
  136        3.570882   1.000000
  137        3.570882   1.000000
  138        3.570882   1.000000
  139        3.570900   1.000000
  140        3.570900   1.000000
  141        3.570900   1.000000
  142        3.693576   1.000000
  143        3.693576   1.000000
  144        3.693576   1.000000
  145        3.693576   1.000000
  146        3.693576   1.000000
  147        3.693576   1.000000
  148        3.694428   1.000000
  149        3.694428   1.000000
  150        3.694428   1.000000
  151        3.694428   1.000000
  152        3.694428   1.000000
  153        3.694428   1.000000
  154        3.694513   1.000000
  155        3.694513   1.000000
  156        3.694513   1.000000
  157        3.694513   1.000000
  158        3.694513   1.000000
  159        3.694513   1.000000
  160        3.695365   1.000000
  161        3.695365   1.000000
  162        3.695365   1.000000
  163        3.695365   1.000000
  164        3.695365   1.000000
  165        3.695365   1.000000
  166        4.299706   1.000000
  167        4.299706   1.000000
  168        4.299706   1.000000
  169        4.300495   1.000000
  170        4.300495   1.000000
  171        4.300495   1.000000
  172        4.300495   1.000000
  173        4.300495   1.000000
  174        4.300495   1.000000
  175        4.300563   1.000000
  176        4.300564   1.000000
  177        4.300564   1.000000
  178        4.301284   1.000000
  179        4.301284   1.000000
  180        4.301284   1.000000
  181        4.301353   1.000000
  182        4.301353   1.000000
  183        4.301353   1.000000
  184        4.301353   1.000000
  185        4.301353   1.000000
  186        4.301353   1.000000
  187        4.302143   1.000000
  188        4.302143   1.000000
  189        4.302143   1.000000
  190        4.351441   1.000000
  191        4.351441   1.000000
  192        4.351441   1.000000
  193        4.351616   1.000000
  194        4.351616   1.000000
  195        4.351616   1.000000
  196        4.351616   1.000000
  197        4.351616   1.000000
  198        4.351616   1.000000
  199        4.351791   1.000000
  200        4.351791   1.000000
  201        4.351791   1.000000
  202        4.464723   1.000000
  203        4.464723   1.000000
  204        4.464723   1.000000
  205        4.465362   1.000000
  206        4.465362   1.000000
  207        4.465362   1.000000
  208        4.641738   1.000000
  209        4.641738   1.000000
  210        4.641738   1.000000
  211        4.641738   1.000000
  212        4.641738   1.000000
  213        4.641738   1.000000
  214        4.641842   1.000000
  215        4.641842   1.000000
  216        4.641842   1.000000
  217        4.641843   1.000000
  218        4.641843   1.000000
  219        4.641843   1.000000
  220        4.641882   1.000000
  221        4.641882   1.000000
  222        4.641882   1.000000
  223        4.641882   1.000000
  224        4.641882   1.000000
  225        4.641882   1.000000
  226        4.641987   1.000000
  227        4.641987   1.000000
  228        4.641987   1.000000
  229        4.641987   1.000000
  230        4.641987   1.000000
  231        4.641987   1.000000
  232        4.874966   1.000000
  233        4.874966   1.000000
  234        4.874967   1.000000
  235        4.875406   1.000000
  236        4.875406   1.000000
  237        4.875406   1.000000
  238        4.875406   1.000000
  239        4.875406   1.000000
  240        4.875406   1.000000
  241        4.875845   1.000000
  242        4.875845   1.000000
  243        4.875845   1.000000
  244        5.040542   1.000000
  245        5.040559   1.000000
  246        5.040559   1.000000
  247        5.040559   1.000000
  248        5.040578   1.000000
  249        5.040578   1.000000
  250        5.040578   1.000000
  251        5.040598   1.000000
  252        5.178152   1.000000
  253        5.178152   1.000000
  254        5.178152   1.000000
  255        5.230865   1.000000
  256        5.230865   1.000000
  257        5.230865   1.000000
  258        5.231073   1.000000
  259        5.231073   1.000000
  260        5.231073   1.000000
  261        5.231073   1.000000
  262        5.231073   1.000000
  263        5.231073   1.000000
  264        5.231106   1.000000
  265        5.231106   1.000000
  266        5.231106   1.000000
  267        5.231283   1.000000
  268        5.231283   1.000000
  269        5.231283   1.000000
  270        5.231315   1.000000
  271        5.231315   1.000000
  272        5.231315   1.000000
  273        5.231315   1.000000
  274        5.231315   1.000000
  275        5.231315   1.000000
  276        5.231525   1.000000
  277        5.231525   1.000000
  278        5.231525   1.000000
  279        5.303060   1.000000
  280        5.303060   1.000000
  281        5.303073   1.000000
  282        5.303073   1.000000
  283        5.303073   1.000000
  284        5.303300   1.000000
  285        5.303300   1.000000
  286        5.303300   1.000000
  287        5.303500   1.000000
  288        5.303500   1.000000
  289        5.303500   1.000000
  290        5.303726   1.000000
  291        5.303726   1.000000
  292        5.303726   1.000000
  293        5.303737   1.000000
  294        5.303737   1.000000
  295        5.327821   1.000000
  296        5.327821   1.000000
  297        5.327821   1.000000
  298        5.327972   1.000000
  299        5.327972   1.000000
  300        5.327972   1.000000
  301        5.327972   1.000000
  302        5.327972   1.000000
  303        5.327972   1.000000
  304        5.328122   1.000000
  305        5.328122   1.000000
  306        5.328122   1.000000
  307        5.442696   1.000000
  308        5.442696   1.000000
  309        5.442696   1.000000
  310        5.442696   1.000000
  311        5.442696   1.000000
  312        5.442696   1.000000
  313        5.442820   1.000000
  314        5.442820   1.000000
  315        5.442820   1.000000
  316        5.442822   1.000000
  317        5.442822   1.000000
  318        5.442822   1.000000
  319        5.681050   1.000000
  320        5.681050   1.000000
  321        5.681050   1.000000
  322        5.681308   1.000000
  323        5.681308   1.000000
  324        5.681308   1.000000
  325        5.681510   1.000000
  326        5.681510   1.000000
  327        5.681510   1.000000
  328        5.681510   1.000000
  329        5.681510   1.000000
  330        5.681510   1.000000
  331        5.681769   1.000000
  332        5.681769   1.000000
  333        5.681769   1.000000
  334        5.681770   1.000000
  335        5.681770   1.000000
  336        5.681770   1.000000
  337        5.681971   1.000000
  338        5.681971   1.000000
  339        5.681971   1.000000
  340        5.682229   1.000000
  341        5.682229   1.000000
  342        5.682229   1.000000
  343        5.741811   1.000000
  344        5.741811   1.000000
  345        5.741811   1.000000
  346        5.741811   1.000000
  347        5.741811   1.000000
  348        5.741811   1.000000
  349        5.742744   1.000000
  350        5.742744   1.000000
  351        5.742744   1.000000
  352        5.742744   1.000000
  353        5.742744   1.000000
  354        5.742744   1.000000
  355        5.950141   1.000000
  356        5.950141   1.000000
  357        5.950141   1.000000
  358        5.950243   1.000000
  359        5.950243   1.000000
  360        5.950243   1.000000
  361        5.950243   1.000000
  362        5.950243   1.000000
  363        5.950243   1.000000
  364        5.950345   1.000000
  365        5.950345   1.000000
  366        5.950345   1.000000
  367        6.111000   1.000005
  368        6.111000   1.000005
  369        6.111000   1.000005
  370        6.111539   1.000005
  371        6.111539   1.000005
  372        6.111539   1.000005
  373        6.125923   1.000008
  374        6.125923   1.000008
  375        6.125923   1.000008
  376        6.126647   1.000008
  377        6.126647   1.000008
  378        6.126647   1.000008
  379        6.126647   1.000008
  380        6.126647   1.000008
  381        6.126647   1.000008
  382        6.127371   1.000008
  383        6.127371   1.000008
  384        6.127371   1.000008
  385        6.534089   1.032943
  386        6.534089   1.032943
  387        6.534089   1.032943
  388        6.534800   1.033055
  389        6.534800   1.033055
  390        6.534800   1.033055
  391        6.534803   1.033056
  392        6.534803   1.033056
  393        6.534803   1.033056
  394        6.535513   1.033166
  395        6.535513   1.033166
  396        6.535518   1.033167
  397        6.619568   1.017514
  398        6.619568   1.017514
  399        6.619568   1.017514
  400        6.619590   1.017498
  401        6.619594   1.017495
  402        6.619594   1.017495
  403        6.737362   0.776729
  404        6.737362   0.776729
  405        6.737362   0.776729
  406        6.737362   0.776729
  407        6.737362   0.776729
  408        6.737362   0.776729
  409        6.738039   0.774395
  410        6.738039   0.774395
  411        6.738039   0.774395
  412        6.738039   0.774395
  413        6.738039   0.774395
  414        6.738039   0.774395
  415        6.738052   0.774350
  416        6.738052   0.774350
  417        6.738052   0.774350
  418        6.738054   0.774343
  419        6.738054   0.774343
  420        6.738054   0.774343
  421        6.738077   0.774263
  422        6.738077   0.774263
  423        6.738730   0.772004
  424        6.738730   0.772004
  425        6.738730   0.772004
  426        6.738730   0.772002
  427        6.738731   0.772002
  428        6.738731   0.772002
  429        6.958887   0.021469
  430        6.958887   0.021469
  431        6.958887   0.021469
  432        6.958887   0.021468
  433        6.958887   0.021468
  434        6.958887   0.021468
  435        6.959510   0.020558
  436        6.959510   0.020558
  437        6.959510   0.020558
  438        6.959510   0.020557
  439        6.959510   0.020557
  440        6.959510   0.020557
  441        6.988073  -0.012085
  442        6.988073  -0.012085
  443        6.988073  -0.012085
  444        6.989014  -0.012877
  445        6.989014  -0.012877
  446        6.989014  -0.012877
  447        7.147272  -0.018547
  448        7.147272  -0.018547
  449        7.147272  -0.018547
  450        7.147273  -0.018547
  451        7.147273  -0.018547
  452        7.147273  -0.018547
  453        7.147867  -0.018418
  454        7.147867  -0.018418
  455        7.147867  -0.018418
  456        7.147867  -0.018418
  457        7.147867  -0.018418
  458        7.147867  -0.018418
  459        7.149133  -0.018144
  460        7.149133  -0.018144
  461        7.149133  -0.018144
  462        7.149133  -0.018144
  463        7.149133  -0.018144
  464        7.149133  -0.018144
  465        7.149599  -0.018043
  466        7.149599  -0.018043
  467        7.149599  -0.018043
  468        7.149600  -0.018043
  469        7.149600  -0.018043
  470        7.149600  -0.018043
  471        7.149782  -0.018004
  472        7.149782  -0.018004
  473        7.149782  -0.018004
  474        7.149782  -0.018004
  475        7.149782  -0.018004
  476        7.149782  -0.018004
  477        7.150248  -0.017903
  478        7.150248  -0.017903
  479        7.150248  -0.017903
  480        7.150248  -0.017903
  481        7.150248  -0.017903
  482        7.150248  -0.017903
  483        7.275220  -0.002299
  484        7.275220  -0.002299
  485        7.275233  -0.002298
  486        7.275233  -0.002298
  487        7.275234  -0.002298
  488        7.275468  -0.002287
  489        7.275468  -0.002287
  490        7.275468  -0.002287
  491        7.275673  -0.002278
  492        7.275673  -0.002278
  493        7.275673  -0.002278
  494        7.275907  -0.002267
  495        7.275907  -0.002267
  496        7.275907  -0.002267
  497        7.275922  -0.002266
  498        7.275922  -0.002266
  499        7.410773  -0.000085
  500        7.410919  -0.000084
  501        7.411463  -0.000083
  502        7.412257  -0.000081
  503        7.412935  -0.000080
  504        7.413879  -0.000078
  505        7.419420  -0.000066
  506        7.422046  -0.000061
  507        7.425074  -0.000056
  508        7.440336  -0.000036
  509        7.446000  -0.000030
  510        7.467168  -0.000016
  511        7.513787  -0.000003
  512        7.517073  -0.000003
  513        7.526356  -0.000002
  514        7.544121  -0.000001
  515        7.569932  -0.000000
  516        7.581683  -0.000000
  517        7.593312  -0.000000
  518        7.601579  -0.000000
 
  0.1111111E+00  0.0000000E+00  0.0000000E+00  0.8230453E-02
    1       -1.980922   1.000000
    2       -0.803245   1.000000
    3       -0.491652   1.000000
    4       -0.491652   1.000000
    5       -0.490579   1.000000
    6       -0.490579   1.000000
    7       -0.192566   1.000000
    8        0.530233   1.000000
    9        0.530233   1.000000
   10        0.531247   1.000000
   11        0.531247   1.000000
   12        0.791505   1.000000
   13        0.792498   1.000000
   14        0.792498   1.000000
   15        0.793491   1.000000
   16        1.051568   1.000000
   17        1.051568   1.000000
   18        1.052545   1.000000
   19        1.052545   1.000000
   20        1.305587   1.000000
   21        1.306317   1.000000
   22        1.306317   1.000000
   23        1.307047   1.000000
   24        1.543361   1.000000
   25        1.543955   1.000000
   26        1.543955   1.000000
   27        1.544548   1.000000
   28        1.786880   1.000000
   29        1.871259   1.000000
   30        1.878512   1.000000
   31        1.878512   1.000000
   32        1.912987   1.000000
   33        1.912987   1.000000
   34        1.913615   1.000000
   35        1.913615   1.000000
   36        1.960726   1.000000
   37        2.461037   1.000000
   38        2.461110   1.000000
   39        2.461110   1.000000
   40        2.461183   1.000000
   41        2.534563   1.000000
   42        2.534563   1.000000
   43        2.561525   1.000000
   44        2.561525   1.000000
   45        2.561541   1.000000
   46        2.561541   1.000000
   47        2.561664   1.000000
   48        2.561664   1.000000
   49        2.561680   1.000000
   50        2.561680   1.000000
   51        2.615827   1.000000
   52        2.617084   1.000000
   53        2.617084   1.000000
   54        2.631648   1.000000
   55        2.631648   1.000000
   56        2.631678   1.000000
   57        2.631678   1.000000
   58        2.631863   1.000000
   59        2.631863   1.000000
   60        2.631894   1.000000
   61        2.631894   1.000000
   62        2.675615   1.000000
   63        2.675615   1.000000
   64        2.676580   1.000000
   65        2.676580   1.000000
   66        2.678018   1.000000
   67        2.678018   1.000000
   68        2.678978   1.000000
   69        2.678978   1.000000
   70        2.706679   1.000000
   71        2.706679   1.000000
   72        2.707201   1.000000
   73        2.707204   1.000000
   74        2.723657   1.000000
   75        2.723732   1.000000
   76        2.723732   1.000000
   77        2.723807   1.000000
   78        2.782936   1.000000
   79        2.782936   1.000000
   80        2.783840   1.000000
   81        2.783840   1.000000
   82        2.793511   1.000000
   83        2.793511   1.000000
   84        2.876569   1.000000
   85        2.876569   1.000000
   86        2.877039   1.000000
   87        2.877039   1.000000
   88        2.877464   1.000000
   89        2.877464   1.000000
   90        2.877934   1.000000
   91        2.877934   1.000000
   92        2.922818   1.000000
   93        2.922818   1.000000
   94        2.923779   1.000000
   95        2.923779   1.000000
   96        3.056492   1.000000
   97        3.056492   1.000000
   98        3.056905   1.000000
   99        3.056906   1.000000
  100        3.071936   1.000000
  101        3.174247   1.000000
  102        3.174247   1.000000
  103        3.193158   1.000000
  104        3.193158   1.000000
  105        3.194190   1.000000
  106        3.194190   1.000000
  107        3.206272   1.000000
  108        3.206272   1.000000
  109        3.206661   1.000000
  110        3.206661   1.000000
  111        3.308377   1.000000
  112        3.308430   1.000000
  113        3.308430   1.000000
  114        3.308478   1.000000
  115        3.312087   1.000000
  116        3.326864   1.000000
  117        3.326864   1.000000
  118        3.327821   1.000000
  119        3.327821   1.000000
  120        3.329113   1.000000
  121        3.329113   1.000000
  122        3.330074   1.000000
  123        3.330074   1.000000
  124        3.418731   1.000000
  125        3.418732   1.000000
  126        3.418973   1.000000
  127        3.418973   1.000000
  128        3.492457   1.000000
  129        3.492457   1.000000
  130        3.519953   1.000000
  131        3.519953   1.000000
  132        3.520260   1.000000
  133        3.520260   1.000000
  134        3.574032   1.000000
  135        3.574102   1.000000
  136        3.574102   1.000000
  137        3.574178   1.000000
  138        3.590655   1.000000
  139        3.590656   1.000000
  140        3.591615   1.000000
  141        3.591615   1.000000
  142        3.621080   1.000000
  143        3.621080   1.000000
  144        3.621451   1.000000
  145        3.621451   1.000000
  146        3.622529   1.000000
  147        3.622529   1.000000
  148        3.623408   1.000000
  149        3.623408   1.000000
  150        3.702123   1.000000
  151        3.702123   1.000000
  152        3.702909   1.000000
  153        3.702909   1.000000
  154        3.703059   1.000000
  155        3.703059   1.000000
  156        3.703845   1.000000
  157        3.703845   1.000000
  158        3.770112   1.000000
  159        3.770112   1.000000
  160        3.770931   1.000000
  161        3.770931   1.000000
  162        3.807117   1.000000
  163        3.807117   1.000000
  164        3.808027   1.000000
  165        3.808027   1.000000
  166        4.151442   1.000000
  167        4.152231   1.000000
  168        4.152231   1.000000
  169        4.153020   1.000000
  170        4.206373   1.000000
  171        4.206373   1.000000
  172        4.207079   1.000000
  173        4.207079   1.000000
  174        4.207251   1.000000
  175        4.207251   1.000000
  176        4.207957   1.000000
  177        4.207957   1.000000
  178        4.298555   1.000000
  179        4.298555   1.000000
  180        4.298859   1.000000
  181        4.298859   1.000000
  182        4.323662   1.000000
  183        4.360121   1.000000
  184        4.360293   1.000000
  185        4.360293   1.000000
  186        4.360465   1.000000
  187        4.380692   1.000000
  188        4.380692   1.000000
  189        4.381525   1.000000
  190        4.381525   1.000000
  191        4.381530   1.000000
  192        4.381530   1.000000
  193        4.382362   1.000000
  194        4.382362   1.000000
  195        4.394193   1.000000
  196        4.394193   1.000000
  197        4.394229   1.000000
  198        4.394229   1.000000
  199        4.454069   1.000000
  200        4.454806   1.000000
  201        4.454806   1.000000
  202        4.455027   1.000000
  203        4.455082   1.000000
  204        4.455222   1.000000
  205        4.455222   1.000000
  206        4.455688   1.000000
  207        4.465208   1.000000
  208        4.465208   1.000000
  209        4.465837   1.000000
  210        4.465837   1.000000
  211        4.599226   1.000000
  212        4.629717   1.000000
  213        4.629717   1.000000
  214        4.629885   1.000000
  215        4.629885   1.000000
  216        4.652536   1.000000
  217        4.652536   1.000000
  218        4.652622   1.000000
  219        4.652622   1.000000
  220        4.652672   1.000000
  221        4.652672   1.000000
  222        4.652758   1.000000
  223        4.652758   1.000000
  224        4.703203   1.000000
  225        4.703203   1.000000
  226        4.703249   1.000000
  227        4.703249   1.000000
  228        4.746706   1.000000
  229        4.746706   1.000000
  230        4.747233   1.000000
  231        4.747233   1.000000
  232        4.842079   1.000000
  233        4.842080   1.000000
  234        4.842256   1.000000
  235        4.842256   1.000000
  236        4.882598   1.000000
  237        4.883018   1.000000
  238        4.883018   1.000000
  239        4.883438   1.000000
  240        4.913628   1.000000
  241        4.913633   1.000000
  242        4.913633   1.000000
  243        4.913640   1.000000
  244        4.993998   1.000000
  245        4.993999   1.000000
  246        4.994345   1.000000
  247        4.994345   1.000000
  248        5.136940   1.000000
  249        5.136940   1.000000
  250        5.137129   1.000000
  251        5.137129   1.000000
  252        5.137197   1.000000
  253        5.137197   1.000000
  254        5.137387   1.000000
  255        5.137387   1.000000
  256        5.143059   1.000000
  257        5.143059   1.000000
  258        5.154490   1.000000
  259        5.154580   1.000000
  260        5.154580   1.000000
  261        5.154672   1.000000
  262        5.168116   1.000000
  263        5.182803   1.000000
  264        5.182951   1.000000
  265        5.182951   1.000000
  266        5.183100   1.000000
  267        5.185327   1.000000
  268        5.185327   1.000000
  269        5.261574   1.000000
  270        5.261574   1.000000
  271        5.261621   1.000000
  272        5.261621   1.000000
  273        5.267539   1.000000
  274        5.267665   1.000000
  275        5.267665   1.000000
  276        5.267794   1.000000
  277        5.274464   1.000000
  278        5.274721   1.000000
  279        5.274721   1.000000
  280        5.274978   1.000000
  281        5.288204   1.000000
  282        5.288552   1.000000
  283        5.288552   1.000000
  284        5.288894   1.000000
  285        5.321825   1.000000
  286        5.321825   1.000000
  287        5.321940   1.000000
  288        5.321940   1.000000
  289        5.322104   1.000000
  290        5.322104   1.000000
  291        5.322220   1.000000
  292        5.322220   1.000000
  293        5.327250   1.000000
  294        5.327301   1.000000
  295        5.327301   1.000000
  296        5.327363   1.000000
  297        5.329001   1.000000
  298        5.329149   1.000000
  299        5.329149   1.000000
  300        5.329297   1.000000
  301        5.332592   1.000000
  302        5.332918   1.000000
  303        5.332918   1.000000
  304        5.333232   1.000000
  305        5.379175   1.000000
  306        5.379175   1.000000
  307        5.379417   1.000000
  308        5.379417   1.000000
  309        5.423828   1.000000
  310        5.423828   1.000000
  311        5.423950   1.000000
  312        5.423950   1.000000
  313        5.436121   1.000000
  314        5.436121   1.000000
  315        5.436236   1.000000
  316        5.436239   1.000000
  317        5.587301   1.000000
  318        5.587745   1.000000
  319        5.587745   1.000000
  320        5.588188   1.000000
  321        5.614508   1.000000
  322        5.614508   1.000000
  323        5.614781   1.000000
  324        5.614781   1.000000
  325        5.614908   1.000000
  326        5.614908   1.000000
  327        5.615180   1.000000
  328        5.615180   1.000000
  329        5.626869   1.000000
  330        5.626869   1.000000
  331        5.722469   1.000000
  332        5.722469   1.000000
  333        5.723328   1.000000
  334        5.723328   1.000000
  335        5.741997   1.000000
  336        5.741997   1.000000
  337        5.742920   1.000000
  338        5.742920   1.000000
  339        5.756114   1.000000
  340        5.756114   1.000000
  341        5.765569   1.000000
  342        5.765569   1.000000
  343        5.765825   1.000000
  344        5.765825   1.000000
  345        5.766079   1.000000
  346        5.766079   1.000000
  347        5.766335   1.000000
  348        5.766335   1.000000
  349        5.784282   1.000000
  350        5.784761   1.000000
  351        5.784761   1.000000
  352        5.785241   1.000000
  353        5.868739   1.000000
  354        5.868739   1.000000
  355        5.881742   1.000000
  356        5.881742   1.000000
  357        5.881986   1.000000
  358        5.881986   1.000000
  359        5.886474   1.000000
  360        5.886555   1.000000
  361        5.886555   1.000000
  362        5.886634   1.000000
  363        6.007569   1.000000
  364        6.035300   1.000000
  365        6.035300   1.000000
  366        6.035333   1.000000
  367        6.035333   1.000000
  368        6.104793   1.000004
  369        6.104793   1.000004
  370        6.105495   1.000004
  371        6.105495   1.000004
  372        6.130941   1.000009
  373        6.130941   1.000009
  374        6.131420   1.000010
  375        6.131420   1.000010
  376        6.167549   1.000029
  377        6.167549   1.000029
  378        6.168265   1.000030
  379        6.168265   1.000030
  380        6.196674   1.000069
  381        6.197217   1.000070