Automatically generated mesh
      35
Reciprocal lattice
    0.00000000000000    0.00000000000000    0.00000000000000             1
    0.11111111111111    0.00000000000000    0.00000000000000             6
    0.22222222222222    0.00000000000000    0.00000000000000             6
    0.33333333333333    0.00000000000000    0.00000000000000             6
    0.44444444444444    0.00000000000000    0.00000000000000             6
    0.11111111111111    0.11111111111111    0.00000000000000            12
    0.22222222222222    0.11111111111111    0.00000000000000            24
    0.33333333333333    0.11111111111111    0.00000000000000            24
    0.44444444444444    0.11111111111111    0.00000000000000            24
    0.22222222222222    0.22222222222222    0.00000000000000            12
    0.33333333333333    0.22222222222222    0.00000000000000            24
    0.44444444444444    0.22222222222222    0.00000000000000            24
    0.33333333333333    0.33333333333333    0.00000000000000            12
    0.44444444444444    0.33333333333333    0.00000000000000            24
    0.44444444444444    0.44444444444444    0.00000000000000            12
    0.11111111111111    0.11111111111111    0.11111111111111             8
    0.22222222222222    0.11111111111111    0.11111111111111            24
    0.33333333333333    0.11111111111111    0.11111111111111            24
    0.44444444444444    0.11111111111111    0.11111111111111            24
    0.22222222222222    0.22222222222222    0.11111111111111            24
    0.33333333333333    0.22222222222222    0.11111111111111            48
    0.44444444444444    0.22222222222222    0.11111111111111            48
    0.33333333333333    0.33333333333333    0.11111111111111            24
    0.44444444444444    0.33333333333333    0.11111111111111            48
    0.44444444444444    0.44444444444444    0.11111111111111            24
    0.22222222222222    0.22222222222222    0.22222222222222             8
    0.33333333333333    0.22222222222222    0.22222222222222            24
    0.44444444444444    0.22222222222222    0.22222222222222            24
    0.33333333333333    0.33333333333333    0.22222222222222            24
    0.44444444444444    0.33333333333333    0.22222222222222            48
    0.44444444444444    0.44444444444444    0.22222222222222            24
    0.33333333333333    0.33333333333333    0.33333333333333             8
    0.44444444444444    0.33333333333333    0.33333333333333            24
    0.44444444444444    0.44444444444444    0.33333333333333            24
    0.44444444444444    0.44444444444444    0.44444444444444             8
