 running on    8 total cores
 distrk:  each k-point on    8 cores,    1 groups
 distr:  one band on    4 cores,    2 groups
 using from now: INCAR     
 vasp.5.4.4.18Apr17-6-g9f103f2a35 (build Aug 17 2017 06:00:38) complex          
  
 POSCAR found type information on POSCAR  Fe
 POSCAR found :  1 types and     108 ions
 scaLAPACK will be used
 LDA part: xc-table for Pade appr. of Perdew
 POSCAR, INCAR and KPOINTS ok, starting setup
 FFT: planning ...
 WAVECAR not read
 entering main loop
       N       E                     dE             d eps       ncg     rms          rms(c)
DAV:   1     0.759862429557E+04    0.75986E+04   -0.28857E+05 36300   0.184E+03
DAV:   2    -0.231278871830E+02   -0.76218E+04   -0.74530E+04 36260   0.458E+02
DAV:   3    -0.850621930614E+03   -0.82749E+03   -0.70709E+03 36460   0.191E+02
DAV:   4    -0.102988606033E+04   -0.17926E+03   -0.16809E+03 65832   0.573E+01
DAV:   5    -0.104508978859E+04   -0.15204E+02   -0.14367E+02 57944   0.219E+01    0.934E+01
RMM:   6    -0.877462418411E+03    0.16763E+03   -0.13537E+03 36260   0.110E+02    0.900E+00
RMM:   7    -0.880278809808E+03   -0.28164E+01   -0.11003E+02 39489   0.237E+01    0.335E+00
RMM:   8    -0.879743994498E+03    0.53482E+00   -0.13258E+01 38679   0.996E+00    0.891E+00
RMM:   9    -0.879663889463E+03    0.80105E-01   -0.44236E+00 46232   0.272E+00    0.236E+00
RMM:  10    -0.879523897987E+03    0.13999E+00   -0.11281E+00 50296   0.955E-01    0.436E-01
RMM:  11    -0.879536791504E+03   -0.12894E-01   -0.98047E-02 51586   0.295E-01    0.497E-01
RMM:  12    -0.879532536343E+03    0.42552E-02   -0.20721E-02 39607   0.389E-01    0.105E-01
RMM:  13    -0.879533034547E+03   -0.49820E-03   -0.98515E-03 49625   0.955E-02    0.720E-02
RMM:  14    -0.879533009765E+03    0.24782E-04   -0.48626E-04 40212   0.780E-02    0.104E-02
RMM:  15    -0.879533008302E+03    0.14633E-05   -0.18137E-04 50028   0.200E-02    0.301E-03
RMM:  16    -0.879532982964E+03    0.25338E-04    0.27466E-04 39575   0.594E-03    0.292E-03
RMM:  17    -0.879532952170E+03    0.30794E-04    0.23584E-04 26547   0.362E-03    0.102E-03
RMM:  18    -0.879532931145E+03    0.21024E-04    0.19512E-04 24470   0.244E-03    0.846E-04
RMM:  19    -0.879532912431E+03    0.18714E-04    0.17627E-04 23457   0.197E-03    0.555E-04
RMM:  20    -0.879532897043E+03    0.15388E-04    0.14276E-04 22803   0.135E-03    0.264E-04
RMM:  21    -0.879532884298E+03    0.12745E-04    0.11905E-04 21899   0.119E-03    0.503E-04
RMM:  22    -0.879532873094E+03    0.11204E-04    0.10598E-04 20325   0.934E-04    0.474E-05
RMM:  23    -0.879532862090E+03    0.11004E-04    0.10286E-04 16922   0.756E-04    0.365E-04
RMM:  24    -0.879532853718E+03    0.83724E-05    0.78815E-05 16217   0.668E-04    0.912E-05
RMM:  25    -0.879532845025E+03    0.86931E-05    0.83123E-05 14341   0.594E-04    0.328E-04
RMM:  26    -0.879532836309E+03    0.87157E-05    0.81699E-05 13433   0.523E-04    0.203E-04
RMM:  27    -0.879532829463E+03    0.68461E-05    0.64023E-05 11907   0.509E-04    0.372E-04
RMM:  28    -0.879532823783E+03    0.56799E-05    0.54279E-05 10260   0.435E-04    0.277E-04
RMM:  29    -0.879532818243E+03    0.55405E-05    0.53665E-05  9831   0.432E-04    0.388E-04
RMM:  30    -0.879532813396E+03    0.48473E-05    0.46557E-05  9456   0.377E-04    0.344E-04
RMM:  31    -0.879532808516E+03    0.48797E-05    0.46876E-05  8419   0.374E-04    0.413E-04
RMM:  32    -0.879532804859E+03    0.36570E-05    0.35133E-05  7887   0.347E-04    0.361E-04
RMM:  33    -0.879532801555E+03    0.33039E-05    0.32073E-05  7914   0.352E-04    0.397E-04
RMM:  34    -0.879532798463E+03    0.30920E-05    0.30288E-05 12012   0.384E-04    0.255E-04
RMM:  35    -0.879532795623E+03    0.28397E-05    0.27964E-05 11225   0.325E-04    0.161E-04
RMM:  36    -0.879532793158E+03    0.24648E-05    0.23970E-05  6804   0.246E-04    0.119E-04
RMM:  37    -0.879532790771E+03    0.23878E-05    0.23329E-05  6607   0.231E-04    0.118E-04
RMM:  38    -0.879532788673E+03    0.20973E-05    0.20259E-05  7112   0.289E-04    0.536E-05
RMM:  39    -0.879532786603E+03    0.20704E-05    0.20121E-05  8870   0.301E-04    0.288E-05
RMM:  40    -0.879532784901E+03    0.17018E-05    0.16595E-05  6100   0.266E-04    0.276E-05
RMM:  41    -0.879532783391E+03    0.15098E-05    0.14801E-05  5727   0.261E-04    0.250E-05
RMM:  42    -0.879532782015E+03    0.13765E-05    0.13462E-05  5589   0.260E-04    0.286E-05
RMM:  43    -0.879532780739E+03    0.12760E-05    0.12291E-05  8777   0.297E-04    0.126E-04
RMM:  44    -0.879532779554E+03    0.11849E-05    0.11506E-05  5622   0.265E-04    0.121E-04
RMM:  45    -0.879532778502E+03    0.10524E-05    0.10326E-05  5591   0.260E-04    0.135E-04
RMM:  46    -0.879532777544E+03    0.95806E-06    0.94331E-06  5301   0.258E-04
   1 F= -.87953278E+03 E0= -.87954733E+03  d E =-.879533E+03
 curvature:   0.00 expect dE= 0.000E+00 dE for cont linesearch  0.000E+00
 trial: gam= 0.00000 g(F)=  0.173E-37 g(S)=  0.107E-03 ort = 0.000E+00 (trialstep = 0.100E+01)
 search vector abs. value=  0.107E-03
 reached required accuracy - stopping structural energy minimisation
