 vasp.5.4.4.18Apr17-6-g9f103f2a35 (build Aug 17 2017 06:00:38) complex          
  
 executed on             LinuxIFC date 2019.07.13  00:55:04
 running on    8 total cores
 distrk:  each k-point on    8 cores,    1 groups
 distr:  one band on NCORES_PER_BAND=   4 cores,    2 groups


--------------------------------------------------------------------------------------------------------


 INCAR:
 POTCAR:   PAW_PBE Fe 06Sep2000                   
 POTCAR:   PAW_PBE Fe 06Sep2000                   
   VRHFIN =Fe:  d7 s1                                                           
   LEXCH  = PE                                                                  
   EATOM  =   594.4687 eV,   43.6922 Ry                                         
                                                                                
   TITEL  = PAW_PBE Fe 06Sep2000                                                
   LULTRA =        F    use ultrasoft PP ?                                      
   IUNSCR =        1    unscreen: 0-lin 1-nonlin 2-no                           
   RPACOR =    2.000    partial core radius                                     
   POMASS =   55.847; ZVAL   =    8.000    mass and valenz                      
   RCORE  =    2.300    outmost cutoff radius                                   
   RWIGS  =    2.460; RWIGS  =    1.302    wigner-seitz radius (au A)           
   ENMAX  =  267.883; ENMIN  =  200.912 eV                                      
   RCLOC  =    1.701    cutoff for local pot                                    
   LCOR   =        T    correct aug charges                                     
   LPAW   =        T    paw PP                                                  
   EAUG   =  511.368                                                            
   DEXC   =    -.022                                                            
   RMAX   =    2.817    core radius for proj-oper                               
   RAUG   =    1.300    factor for augmentation sphere                          
   RDEP   =    2.442    radius for radial grids                                 
   QCUT   =   -4.437; QGAM   =    8.874    optimization parameters              
                                                                                
   Description                                                                  
     l     E      TYP  RCUT    TYP  RCUT                                        
     2   .000     23  2.300                                                     
     2   .000     23  2.300                                                     
     0   .000     23  2.300                                                     
     0   .000     23  2.300                                                     
     1  -.200     23  2.300                                                     
     1   .000     23  2.300                                                     
     3   .000      7   .000                                                     
  local pseudopotential read in
  partial core-charges read in
  atomic valenz-charges read in
  non local Contribution for L=           2  read in
    real space projection operators read in
  non local Contribution for L=           2  read in
    real space projection operators read in
  non local Contribution for L=           0  read in
    real space projection operators read in
  non local Contribution for L=           0  read in
    real space projection operators read in
  non local Contribution for L=           1  read in
    real space projection operators read in
  non local Contribution for L=           1  read in
    real space projection operators read in
    PAW grid and wavefunctions read in
 
   number of l-projection  operators is LMAX  =           6
   number of lm-projection operators is LMMAX =          18
 
 Optimization of the real space projectors (new method)

 maximal supplied QI-value         = 16.25
 optimisation between [QCUT,QGAM] = [ 10.24, 20.48] = [ 29.35,117.42] Ry 
 Optimized for a Real-space Cutoff    1.51 Angstroem

   l    n(q)    QCUT    max X(q) W(low)/X(q) W(high)/X(q)  e(spline) 
   2      8    10.239     4.378    0.29E-04    0.57E-04    0.52E-07
   2      8    10.239    23.237    0.44E-03    0.68E-03    0.20E-06
   0      9    10.239    17.641    0.18E-04    0.41E-06    0.72E-08
   0      9    10.239    50.908    0.75E-04    0.38E-04    0.65E-07
   1      9    10.239     6.148    0.18E-04    0.27E-04    0.19E-07
   1      9    10.239     8.345    0.39E-04    0.13E-03    0.98E-07
 PAW_PBE Fe 06Sep2000                   :
 energy of atom  1       EATOM= -594.4687
 kinetic energy error for atom=    0.0088 (will be added to EATOM!!)
 
 
 POSCAR: fcc_Fe_CON_333                          
  positions in direct lattice
  velocities in cartesian coordinates
 exchange correlation table for  LEXCH =        8
   RHO(1)=    0.500       N(1)  =     2000
   RHO(2)=  100.500       N(2)  =     4000
 


--------------------------------------------------------------------------------------------------------


 ion  position               nearest neighbor table
   1  0.000  0.000  0.000-   2 2.44   3 2.44   4 2.44  11 2.44  12 2.44  26 2.44  28 2.44  74 2.44
                            75 2.44  36 2.44  83 2.44  98 2.44
   2  0.000  0.167  0.167-  49 2.44  37 2.44  13 2.44  40 2.44  15 2.44  48 2.44  23 2.44   3 2.44
                             4 2.44   1 2.44  12 2.44  11 2.44
   3  0.167  0.000  0.167-  41 2.44  37 2.44   5 2.44  40 2.44   6 2.44  30 2.44  64 2.44   2 2.44
                             4 2.44   1 2.44  28 2.44  26 2.44
   4  0.167  0.167  0.000-  17 2.44  13 2.44   5 2.44  15 2.44   6 2.44  78 2.44  87 2.44   2 2.44
                             3 2.44   1 2.44  74 2.44  75 2.44
   5  0.333  0.000  0.000-   3 2.44   4 2.44  28 2.44  75 2.44   6 2.44   7 2.44   8 2.44  30 2.44
                            78 2.44  32 2.44  79 2.44 102 2.44
   6  0.333  0.167  0.167-  15 2.44  40 2.44  53 2.44  17 2.44  19 2.44   4 2.44  41 2.44  44 2.44
                             3 2.44   7 2.44   8 2.44   5 2.44
   7  0.500  0.000  0.167-  41 2.44  44 2.44  45 2.44  68 2.44   6 2.44   5 2.44   8 2.44  10 2.44
                            30 2.44   9 2.44  32 2.44  34 2.44
   8  0.500  0.167  0.000-  17 2.44  19 2.44  21 2.44  91 2.44   6 2.44   5 2.44   7 2.44  78 2.44
                            10 2.44  79 2.44   9 2.44  82 2.44
   9  0.667  0.000  0.000-  11 2.44  12 2.44  36 2.44  83 2.44  10 2.44  82 2.44  34 2.44   8 2.44
                             7 2.44 106 2.44  79 2.44  32 2.44
  10  0.667  0.167  0.167-  23 2.44  48 2.44  57 2.44  12 2.44  11 2.44  21 2.44  45 2.44  44 2.44
                            19 2.44   9 2.44   7 2.44   8 2.44
  11  0.833  0.000  0.167-  45 2.44   9 2.44  10 2.44  34 2.44  48 2.44  37 2.44  72 2.44  12 2.44
                             2 2.44  36 2.44   1 2.44  26 2.44
  12  0.833  0.167  0.000-  21 2.44   9 2.44  10 2.44  82 2.44  23 2.44  13 2.44  95 2.44  11 2.44
                             1 2.44  83 2.44   2 2.44  74 2.44
  13  0.000  0.333  0.000-   2 2.44   4 2.44  12 2.44  74 2.44  15 2.44  16 2.44  14 2.44  23 2.44
                            87 2.44  86 2.44  24 2.44  95 2.44
  14  0.000  0.500  0.167-  49 2.44  52 2.44  60 2.44  61 2.44  15 2.44  13 2.44  16 2.44  23 2.44
                            27 2.44  25 2.44  24 2.44  35 2.44
  15  0.167  0.333  0.167-   6 2.44  40 2.44  53 2.44  17 2.44  18 2.44   4 2.44  49 2.44  52 2.44
                             2 2.44  13 2.44  14 2.44  16 2.44
  16  0.167  0.500  0.000-  17 2.44  18 2.44  29 2.44  90 2.44  15 2.44  14 2.44  13 2.44  87 2.44
                            27 2.44  25 2.44  86 2.44  99 2.44
  17  0.333  0.333  0.000-   4 2.44   8 2.44  16 2.44  15 2.44   6 2.44  78 2.44  87 2.44  20 2.44
                            18 2.44  19 2.44  90 2.44  91 2.44
  18  0.333  0.500  0.167-  52 2.44  16 2.44  56 2.44  53 2.44  15 2.44  27 2.44  65 2.44  20 2.44
                            17 2.44  19 2.44  29 2.44  31 2.44
  19  0.500  0.333  0.167-  44 2.44   8 2.44  56 2.44  53 2.44   6 2.44  10 2.44  57 2.44  18 2.44
                            20 2.44  17 2.44  21 2.44  22 2.44
  20  0.500  0.500  0.000-  17 2.44  18 2.44  19 2.44  21 2.44  22 2.44  29 2.44  31 2.44  90 2.44
                            91 2.44  33 2.44  94 2.44 103 2.44
  21  0.667  0.333  0.000-  12 2.44  24 2.44  23 2.44  95 2.44  10 2.44   8 2.44  82 2.44  22 2.44
                            20 2.44  94 2.44  19 2.44  91 2.44
  22  0.667  0.500  0.167-  60 2.44  24 2.44  23 2.44  35 2.44  57 2.44  56 2.44  69 2.44  21 2.44
                            33 2.44  20 2.44  19 2.44  31 2.44
  23  0.833  0.333  0.167-  10 2.44  57 2.44  48 2.44  21 2.44  22 2.44  12 2.44  60 2.44   2 2.44
                            49 2.44  24 2.44  14 2.44  13 2.44
  24  0.833  0.500  0.000-  21 2.44  22 2.44  33 2.44  94 2.44  23 2.44  35 2.44  95 2.44  14 2.44
                            13 2.44 107 2.44  86 2.44  25 2.44
  25  0.000  0.667  0.000-  26 2.44  28 2.44  36 2.44  98 2.44  27 2.44  35 2.44  99 2.44  16 2.44
                            14 2.44 107 2.44  86 2.44  24 2.44
  26  0.000  0.833  0.167-  61 2.44  25 2.44  27 2.44  35 2.44  64 2.44  37 2.44  72 2.44  28 2.44
                             3 2.44  36 2.44   1 2.44  11 2.44
  27  0.167  0.667  0.167-  30 2.44  64 2.44  65 2.44  28 2.44  26 2.44  29 2.44  61 2.44  52 2.44
                            18 2.44  25 2.44  14 2.44  16 2.44
  28  0.167  0.833  0.000-  29 2.44  25 2.44  27 2.44  99 2.44  30 2.44   5 2.44 102 2.44  26 2.44
                            98 2.44   1 2.44   3 2.44  75 2.44
  29  0.333  0.667  0.000-  28 2.44  32 2.44  30 2.44 102 2.44  27 2.44  16 2.44  99 2.44  31 2.44
                            20 2.44  18 2.44 103 2.44  90 2.44
  30  0.333  0.833  0.167-  27 2.44  65 2.44  64 2.44  29 2.44  31 2.44  28 2.44  68 2.44  41 2.44
                             3 2.44  32 2.44   7 2.44   5 2.44
  31  0.500  0.667  0.167-  68 2.44  32 2.44  30 2.44  34 2.44  65 2.44  56 2.44  69 2.44  29 2.44
                            33 2.44  20 2.44  18 2.44  22 2.44
  32  0.500  0.833  0.000-  29 2.44  31 2.44  33 2.44 103 2.44  30 2.44 102 2.44  34 2.44   7 2.44
                             5 2.44 106 2.44  79 2.44   9 2.44
  33  0.667  0.667  0.000-  36 2.44  35 2.44  34 2.44  32 2.44  24 2.44 106 2.44 107 2.44  22 2.44
                            31 2.44 103 2.44  20 2.44  94 2.44
  34  0.667  0.833  0.167-  35 2.44  69 2.44  72 2.44  33 2.44  36 2.44  31 2.44  11 2.44  45 2.44
                            68 2.44  32 2.44   9 2.44   7 2.44
  35  0.833  0.667  0.167-  34 2.44  69 2.44  72 2.44  33 2.44  36 2.44  26 2.44  22 2.44  60 2.44
                            61 2.44  24 2.44  25 2.44  14 2.44
  36  0.833  0.833  0.000-  33 2.44  34 2.44  35 2.44  25 2.44   9 2.44 106 2.44 107 2.44  26 2.44
                            11 2.44  98 2.44   1 2.44  83 2.44
  37  0.000  0.000  0.333-   2 2.44   3 2.44  11 2.44  26 2.44  40 2.44  39 2.44  38 2.44  48 2.44
                            64 2.44  62 2.44  47 2.44  72 2.44
  38  0.000  0.167  0.500-  49 2.44  51 2.44  59 2.44  85 2.44  40 2.44  39 2.44  37 2.44  76 2.44
                            48 2.44  47 2.44  73 2.44  84 2.44
  39  0.167  0.000  0.500-  41 2.44  42 2.44  66 2.44  77 2.44  40 2.44  38 2.44  37 2.44  76 2.44
                            64 2.44  62 2.44  73 2.44 100 2.44
  40  0.167  0.167  0.333-   6 2.44  15 2.44  53 2.44   3 2.44  41 2.44  42 2.44  49 2.44  51 2.44
                             2 2.44  39 2.44  37 2.44  38 2.44
  41  0.333  0.000  0.333-   3 2.44   7 2.44  39 2.44   6 2.44  40 2.44  30 2.44  64 2.44  43 2.44
                            44 2.44  42 2.44  66 2.44  68 2.44
  42  0.333  0.167  0.500-  51 2.44  39 2.44  55 2.44  53 2.44  40 2.44  76 2.44  89 2.44  44 2.44
                            41 2.44  43 2.44  80 2.44  77 2.44
  43  0.500  0.000  0.500-  41 2.44  42 2.44  44 2.44  45 2.44  46 2.44  66 2.44  68 2.44  77 2.44
                            80 2.44  70 2.44  81 2.44 104 2.44
  44  0.500  0.167  0.333-  19 2.44   7 2.44  55 2.44  53 2.44   6 2.44  10 2.44  57 2.44  41 2.44
                            42 2.44  43 2.44  46 2.44  45 2.44
  45  0.667  0.000  0.333-  11 2.44  47 2.44  48 2.44  72 2.44  10 2.44   7 2.44  34 2.44  46 2.44
                            43 2.44  70 2.44  44 2.44  68 2.44
  46  0.667  0.167  0.500-  59 2.44  47 2.44  48 2.44  84 2.44  57 2.44  55 2.44  93 2.44  45 2.44
                            81 2.44  43 2.44  44 2.44  80 2.44
  47  0.833  0.000  0.500-  45 2.44  46 2.44  70 2.44  81 2.44  48 2.44  72 2.44  84 2.44  38 2.44
                            37 2.44 108 2.44  73 2.44  62 2.44
  48  0.833  0.167  0.333-  10 2.44  57 2.44  23 2.44  46 2.44  45 2.44  11 2.44  59 2.44   2 2.44
                            49 2.44  47 2.44  37 2.44  38 2.44
  49  0.000  0.333  0.333-   2 2.44  14 2.44  38 2.44  15 2.44  40 2.44  23 2.44  48 2.44  50 2.44
                            51 2.44  52 2.44  59 2.44  60 2.44
  50  0.000  0.500  0.500-  49 2.44  51 2.44  52 2.44  59 2.44  60 2.44  61 2.44  63 2.44  85 2.44
                            88 2.44  71 2.44  96 2.44  97 2.44
  51  0.167  0.333  0.500-  42 2.44  38 2.44  54 2.44  53 2.44  40 2.44  76 2.44  89 2.44  50 2.44
                            52 2.44  49 2.44  88 2.44  85 2.44
  52  0.167  0.500  0.333-  18 2.44  14 2.44  54 2.44  53 2.44  15 2.44  27 2.44  65 2.44  49 2.44
                            50 2.44  51 2.44  63 2.44  61 2.44
  53  0.333  0.333  0.333-   6 2.44  15 2.44  40 2.44  19 2.44  18 2.44  42 2.44  44 2.44  51 2.44
                            52 2.44  54 2.44  55 2.44  56 2.44
  54  0.333  0.500  0.500-  51 2.44  52 2.44  63 2.44  88 2.44  53 2.44  55 2.44  56 2.44  65 2.44
                            89 2.44  67 2.44  92 2.44 101 2.44
  55  0.500  0.333  0.500-  42 2.44  44 2.44  46 2.44  80 2.44  53 2.44  56 2.44  54 2.44  57 2.44
                            89 2.44  58 2.44  92 2.44  93 2.44
  56  0.500  0.500  0.333-  18 2.44  19 2.44  22 2.44  31 2.44  53 2.44  54 2.44  55 2.44  57 2.44
                            65 2.44  58 2.44  67 2.44  69 2.44
  57  0.667  0.333  0.333-  23 2.44  48 2.44  10 2.44  59 2.44  60 2.44  46 2.44  22 2.44  19 2.44
                            44 2.44  58 2.44  56 2.44  55 2.44
  58  0.667  0.500  0.500-  59 2.44  60 2.44  71 2.44  96 2.44  57 2.44  93 2.44  69 2.44  56 2.44
                            55 2.44 105 2.44  92 2.44  67 2.44
  59  0.833  0.333  0.500-  46 2.44  58 2.44  57 2.44  93 2.44  48 2.44  38 2.44  84 2.44  60 2.44
                            50 2.44  49 2.44  96 2.44  85 2.44
  60  0.833  0.500  0.333-  22 2.44  58 2.44  57 2.44  69 2.44  23 2.44  14 2.44  35 2.44  59 2.44
                            49 2.44  50 2.44  71 2.44  61 2.44
  61  0.000  0.667  0.333-  26 2.44  62 2.44  64 2.44  72 2.44  27 2.44  14 2.44  35 2.44  63 2.44
                            50 2.44  71 2.44  52 2.44  60 2.44
  62  0.000  0.833  0.500-  61 2.44  63 2.44  71 2.44  97 2.44  64 2.44  72 2.44 100 2.44  39 2.44
                            37 2.44 108 2.44  73 2.44  47 2.44
  63  0.167  0.667  0.500-  66 2.44  62 2.44  64 2.44 100 2.44  65 2.44  54 2.44 101 2.44  61 2.44
                            97 2.44  50 2.44  52 2.44  88 2.44
  64  0.167  0.833  0.333-  27 2.44  65 2.44  30 2.44  63 2.44  61 2.44  26 2.44  66 2.44   3 2.44
                            41 2.44  62 2.44  37 2.44  39 2.44
  65  0.333  0.667  0.333-  30 2.44  64 2.44  27 2.44  66 2.44  68 2.44  63 2.44  31 2.44  18 2.44
                            52 2.44  67 2.44  56 2.44  54 2.44
  66  0.333  0.833  0.500-  63 2.44  67 2.44  65 2.44 101 2.44  64 2.44  39 2.44 100 2.44  68 2.44
                            43 2.44  41 2.44 104 2.44  77 2.44
  67  0.500  0.667  0.500-  66 2.44  68 2.44  70 2.44 104 2.44  65 2.44 101 2.44  69 2.44  56 2.44
                            54 2.44 105 2.44  92 2.44  58 2.44
  68  0.500  0.833  0.333-  31 2.44  67 2.44  65 2.44  69 2.44  30 2.44   7 2.44  34 2.44  66 2.44
                            41 2.44  43 2.44  70 2.44  45 2.44
  69  0.667  0.667  0.333-  72 2.44  35 2.44  34 2.44  71 2.44  70 2.44  68 2.44  60 2.44  31 2.44
                            22 2.44  58 2.44  67 2.44  56 2.44
  70  0.667  0.833  0.500-  71 2.44  69 2.44  72 2.44  67 2.44  47 2.44 105 2.44 108 2.44  68 2.44
                            45 2.44 104 2.44  43 2.44  81 2.44
  71  0.833  0.667  0.500-  70 2.44  69 2.44  72 2.44  62 2.44  58 2.44 105 2.44 108 2.44  60 2.44
                            61 2.44  97 2.44  50 2.44  96 2.44
  72  0.833  0.833  0.333-  69 2.44  35 2.44  34 2.44  70 2.44  71 2.44  61 2.44  45 2.44  26 2.44
                            11 2.44  62 2.44  47 2.44  37 2.44
  73  0.000  0.000  0.667-  74 2.44  75 2.44  83 2.44  98 2.44  76 2.44  84 2.44 100 2.44  39 2.44
                            38 2.44 108 2.44  47 2.44  62 2.44
  74  0.000  0.167  0.833-  85 2.44  73 2.44  76 2.44  84 2.44  87 2.44  13 2.44  95 2.44  75 2.44
                             4 2.44  83 2.44   1 2.44  12 2.44
  75  0.167  0.000  0.833-  77 2.44  73 2.44  76 2.44 100 2.44  78 2.44   5 2.44 102 2.44  74 2.44
                            98 2.44   1 2.44   4 2.44  28 2.44
  76  0.167  0.167  0.667-  78 2.44  87 2.44  89 2.44  75 2.44  74 2.44  77 2.44  85 2.44  51 2.44
                            42 2.44  73 2.44  38 2.44  39 2.44
  77  0.333  0.000  0.667-  75 2.44  79 2.44  78 2.44 102 2.44  76 2.44  39 2.44 100 2.44  80 2.44
                            43 2.44  42 2.44 104 2.44  66 2.44
  78  0.333  0.167  0.833-  76 2.44  89 2.44  87 2.44  77 2.44  80 2.44  75 2.44  91 2.44  17 2.44
                             4 2.44  79 2.44   8 2.44   5 2.44
  79  0.500  0.000  0.833-  77 2.44  80 2.44  81 2.44 104 2.44  78 2.44 102 2.44  82 2.44   8 2.44
                             5 2.44 106 2.44   9 2.44  32 2.44
  80  0.500  0.167  0.667-  91 2.44  79 2.44  78 2.44  82 2.44  89 2.44  55 2.44  93 2.44  77 2.44
                            43 2.44  81 2.44  42 2.44  46 2.44
  81  0.667  0.000  0.667-  83 2.44  82 2.44  84 2.44  79 2.44  47 2.44 106 2.44 108 2.44  80 2.44
                            46 2.44 104 2.44  70 2.44  43 2.44
  82  0.667  0.167  0.833-  84 2.44  93 2.44  95 2.44  83 2.44  81 2.44  80 2.44  12 2.44  21 2.44
                            91 2.44  79 2.44   9 2.44   8 2.44
  83  0.833  0.000  0.833-  81 2.44  82 2.44  84 2.44  73 2.44   9 2.44 106 2.44 108 2.44  74 2.44
                            12 2.44  98 2.44  36 2.44   1 2.44
  84  0.833  0.167  0.667-  82 2.44  93 2.44  95 2.44  81 2.44  83 2.44  74 2.44  46 2.44  59 2.44
                            85 2.44  73 2.44  47 2.44  38 2.44
  85  0.000  0.333  0.667-  74 2.44  86 2.44  87 2.44  95 2.44  76 2.44  38 2.44  84 2.44  88 2.44
                            51 2.44  50 2.44  96 2.44  59 2.44
  86  0.000  0.500  0.833-  85 2.44  88 2.44  96 2.44  97 2.44  87 2.44  95 2.44  99 2.44  16 2.44
                            13 2.44 107 2.44  24 2.44  25 2.44
  87  0.167  0.333  0.833-  76 2.44  89 2.44  78 2.44  88 2.44  85 2.44  74 2.44  90 2.44  17 2.44
                             4 2.44  86 2.44  16 2.44  13 2.44
  88  0.167  0.500  0.667-  90 2.44  86 2.44  87 2.44  99 2.44  89 2.44  54 2.44 101 2.44  85 2.44
                            97 2.44  50 2.44  51 2.44  63 2.44
  89  0.333  0.333  0.667-  78 2.44  87 2.44  76 2.44  90 2.44  91 2.44  80 2.44  88 2.44  51 2.44
                            42 2.44  92 2.44  54 2.44  55 2.44
  90  0.333  0.500  0.833-  88 2.44  92 2.44  89 2.44 101 2.44  87 2.44  16 2.44  99 2.44  91 2.44
                            20 2.44  17 2.44 103 2.44  29 2.44
  91  0.500  0.333  0.833-  80 2.44  92 2.44  89 2.44  93 2.44  78 2.44   8 2.44  82 2.44  90 2.44
                            20 2.44  17 2.44  94 2.44  21 2.44
  92  0.500  0.500  0.667-  90 2.44  91 2.44  94 2.44 103 2.44  89 2.44 101 2.44  93 2.44  55 2.44
                            54 2.44 105 2.44  58 2.44  67 2.44
  93  0.667  0.333  0.667-  95 2.44  84 2.44  82 2.44  94 2.44  96 2.44  91 2.44  59 2.44  46 2.44
                            80 2.44  92 2.44  58 2.44  55 2.44
  94  0.667  0.500  0.833-  96 2.44  95 2.44  93 2.44  92 2.44  24 2.44 105 2.44 107 2.44  21 2.44
                            91 2.44 103 2.44  33 2.44  20 2.44
  95  0.833  0.333  0.833-  93 2.44  84 2.44  82 2.44  94 2.44  96 2.44  85 2.44  21 2.44  12 2.44
                            74 2.44  86 2.44  24 2.44  13 2.44
  96  0.833  0.500  0.667-  94 2.44  93 2.44  95 2.44  86 2.44  58 2.44 105 2.44 107 2.44  59 2.44
                            85 2.44  97 2.44  71 2.44  50 2.44
  97  0.000  0.667  0.667-  98 2.44  99 2.44 100 2.44  86 2.44  62 2.44 107 2.44 108 2.44  88 2.44
                            63 2.44  96 2.44  50 2.44  71 2.44
  98  0.000  0.833  0.833-  97 2.44  99 2.44 100 2.44  73 2.44  25 2.44 107 2.44 108 2.44  75 2.44
                            28 2.44  83 2.44   1 2.44  36 2.44
  99  0.167  0.667  0.833- 100 2.44 101 2.44 102 2.44  98 2.44  97 2.44  88 2.44  28 2.44  90 2.44
                            29 2.44  86 2.44  25 2.44  16 2.44
 100  0.167  0.833  0.667-  99 2.44 101 2.44 102 2.44  98 2.44  97 2.44  75 2.44  63 2.44  77 2.44
                            66 2.44  73 2.44  62 2.44  39 2.44
 101  0.333  0.667  0.667- 102 2.44 100 2.44  99 2.44 103 2.44 104 2.44  90 2.44  66 2.44  63 2.44
                            88 2.44  92 2.44  67 2.44  54 2.44
 102  0.333  0.833  0.833- 101 2.44 100 2.44  99 2.44 103 2.44 104 2.44  77 2.44  29 2.44  28 2.44
                            75 2.44  79 2.44  32 2.44   5 2.44
 103  0.500  0.667  0.833- 104 2.44 102 2.44 101 2.44  92 2.44  32 2.44 105 2.44 106 2.44  29 2.44
                            90 2.44  94 2.44  20 2.44  33 2.44
 104  0.500  0.833  0.667- 103 2.44 102 2.44 101 2.44  79 2.44  67 2.44 105 2.44 106 2.44  66 2.44
                            77 2.44  81 2.44  43 2.44  70 2.44
 105  0.667  0.667  0.667- 106 2.44 107 2.44 108 2.44  96 2.44 103 2.44 104 2.44  70 2.44  71 2.44
                            94 2.44  67 2.44  92 2.44  58 2.44
 106  0.667  0.833  0.833- 105 2.44 107 2.44 108 2.44  83 2.44 103 2.44 104 2.44  33 2.44  36 2.44
                            81 2.44  32 2.44  79 2.44   9 2.44
 107  0.833  0.667  0.833- 105 2.44 106 2.44 108 2.44  96 2.44  97 2.44  98 2.44  33 2.44  36 2.44
                            94 2.44  25 2.44  86 2.44  24 2.44
 108  0.833  0.833  0.667- 105 2.44 106 2.44 107 2.44  83 2.44  97 2.44  98 2.44  70 2.44  71 2.44
                            81 2.44  62 2.44  73 2.44  47 2.44
 
  LATTYP: Found a simple cubic cell.
 ALAT       =    10.3348470474
  
  Lattice vectors:
  
 A1 = (  10.3348470474,   0.0000000000,   0.0000000000)
 A2 = (   0.0000000000,  10.3348470474,   0.0000000000)
 A3 = (   0.0000000000,   0.0000000000,  10.3348470474)


Analysis of symmetry for initial positions (statically):
=====================================================================
 Subroutine PRICEL returns following result:
 
  LATTYP: Found a simple cubic cell.
 ALAT       =     3.4449252899
  
  Lattice vectors:
  
 A1 = (   3.4449252899,   0.0000000000,   0.0000000000)
 A2 = (   0.0000000000,   3.4449252899,   0.0000000000)
 A3 = (   0.0000000000,   0.0000000000,   3.4449252443)
 
  27 primitive cells build up your supercell.
 

 Routine SETGRP: Setting up the symmetry group for a 
 simple cubic supercell.


 Subroutine GETGRP returns: Found 48 space group operations
 (whereof 48 operations were pure point group operations)
 out of a pool of 48 trial point group operations.


The static configuration has the point symmetry O_h .


Analysis of symmetry for dynamics (positions and initial velocities):
=====================================================================
 Subroutine PRICEL returns following result:
 
  LATTYP: Found a simple cubic cell.
 ALAT       =     3.4449252899
  
  Lattice vectors:
  
 A1 = (   3.4449252899,   0.0000000000,   0.0000000000)
 A2 = (   0.0000000000,   3.4449252899,   0.0000000000)
 A3 = (   0.0000000000,   0.0000000000,   3.4449252443)
 
  27 primitive cells build up your supercell.
 

 Routine SETGRP: Setting up the symmetry group for a 
 simple cubic supercell.


 Subroutine GETGRP returns: Found 48 space group operations
 (whereof 48 operations were pure point group operations)
 out of a pool of 48 trial point group operations.


The dynamic configuration has the point symmetry O_h .


 Subroutine INISYM returns: Found 48 space group operations
 (whereof 48 operations are pure point group operations),
 and found    27 'primitive' translations

 
 
 KPOINTS: pymatgen generated KPOINTS with grid den

Automatic generation of k-mesh.
Space group operators:
 irot       det(A)        alpha          n_x          n_y          n_z        tau_x        tau_y        tau_z
    1     1.000000     0.000000     1.000000     0.000000     0.000000     0.000000     0.000000     0.000000
    2    -1.000000     0.000000     1.000000     0.000000     0.000000     0.000000     0.000000     0.000000
    3     1.000000   120.000000    -0.577350    -0.577350    -0.577350     0.000000     0.000000     0.000000
    4    -1.000000   120.000000    -0.577350    -0.577350    -0.577350     0.000000     0.000000     0.000000
    5     1.000000   120.000000     0.577350     0.577350     0.577350     0.000000     0.000000     0.000000
    6    -1.000000   120.000000     0.577350     0.577350     0.577350     0.000000     0.000000     0.000000
    7     1.000000    90.000000     0.000000     0.000000    -1.000000     0.000000     0.000000     0.000000
    8    -1.000000    90.000000     0.000000     0.000000    -1.000000     0.000000     0.000000     0.000000
    9     1.000000   180.000000     0.000000     0.707107     0.707107     0.000000     0.000000     0.000000
   10    -1.000000   180.000000     0.000000     0.707107     0.707107     0.000000     0.000000     0.000000
   11     1.000000    90.000000     0.000000     1.000000     0.000000     0.000000     0.000000     0.000000
   12    -1.000000    90.000000     0.000000     1.000000     0.000000     0.000000     0.000000     0.000000
   13     1.000000   180.000000     0.000000     0.000000     1.000000     0.000000     0.000000     0.000000
   14    -1.000000   180.000000     0.000000     0.000000     1.000000     0.000000     0.000000     0.000000
   15     1.000000   120.000000    -0.577350     0.577350     0.577350     0.000000     0.000000     0.000000
   16    -1.000000   120.000000    -0.577350     0.577350     0.577350     0.000000     0.000000     0.000000
   17     1.000000   120.000000    -0.577350     0.577350    -0.577350     0.000000     0.000000     0.000000
   18    -1.000000   120.000000    -0.577350     0.577350    -0.577350     0.000000     0.000000     0.000000
   19     1.000000    90.000000     0.000000     0.000000     1.000000     0.000000     0.000000     0.000000
   20    -1.000000    90.000000     0.000000     0.000000     1.000000     0.000000     0.000000     0.000000
   21     1.000000    90.000000    -1.000000     0.000000     0.000000     0.000000     0.000000     0.000000
   22    -1.000000    90.000000    -1.000000     0.000000     0.000000     0.000000     0.000000     0.000000
   23     1.000000   180.000000     0.707107     0.000000     0.707107     0.000000     0.000000     0.000000
   24    -1.000000   180.000000     0.707107     0.000000     0.707107     0.000000     0.000000     0.000000
   25     1.000000   120.000000     0.577350    -0.577350     0.577350     0.000000     0.000000     0.000000
   26    -1.000000   120.000000     0.577350    -0.577350     0.577350     0.000000     0.000000     0.000000
   27     1.000000   120.000000    -0.577350    -0.577350     0.577350     0.000000     0.000000     0.000000
   28    -1.000000   120.000000    -0.577350    -0.577350     0.577350     0.000000     0.000000     0.000000
   29     1.000000   180.000000     1.000000     0.000000     0.000000     0.000000     0.000000     0.000000
   30    -1.000000   180.000000     1.000000     0.000000     0.000000     0.000000     0.000000     0.000000
   31     1.000000    90.000000     0.000000    -1.000000     0.000000     0.000000     0.000000     0.000000
   32    -1.000000    90.000000     0.000000    -1.000000     0.000000     0.000000     0.000000     0.000000
   33     1.000000   180.000000     0.707107     0.707107     0.000000     0.000000     0.000000     0.000000
   34    -1.000000   180.000000     0.707107     0.707107     0.000000     0.000000     0.000000     0.000000
   35     1.000000    90.000000     1.000000     0.000000     0.000000     0.000000     0.000000     0.000000
   36    -1.000000    90.000000     1.000000     0.000000     0.000000     0.000000     0.000000     0.000000
   37     1.000000   120.000000     0.577350    -0.577350    -0.577350     0.000000     0.000000     0.000000
   38    -1.000000   120.000000     0.577350    -0.577350    -0.577350     0.000000     0.000000     0.000000
   39     1.000000   180.000000     0.000000     1.000000     0.000000     0.000000     0.000000     0.000000
   40    -1.000000   180.000000     0.000000     1.000000     0.000000     0.000000     0.000000     0.000000
   41     1.000000   120.000000     0.577350     0.577350    -0.577350     0.000000     0.000000     0.000000
   42    -1.000000   120.000000     0.577350     0.577350    -0.577350     0.000000     0.000000     0.000000
   43     1.000000   180.000000     0.000000    -0.707107     0.707107     0.000000     0.000000     0.000000
   44    -1.000000   180.000000     0.000000    -0.707107     0.707107     0.000000     0.000000     0.000000
   45     1.000000   180.000000     0.707107    -0.707107     0.000000     0.000000     0.000000     0.000000
   46    -1.000000   180.000000     0.707107    -0.707107     0.000000     0.000000     0.000000     0.000000
   47     1.000000   180.000000     0.707107     0.000000    -0.707107     0.000000     0.000000     0.000000
   48    -1.000000   180.000000     0.707107     0.000000    -0.707107     0.000000     0.000000     0.000000
 
 Subroutine IBZKPT returns following result:
 ===========================================
 
 Found     35 irreducible k-points:
 
 Following reciprocal coordinates:
            Coordinates               Weight
  0.000000  0.000000  0.000000      1.000000
  0.111111  0.000000  0.000000      6.000000
  0.222222  0.000000  0.000000      6.000000
  0.333333  0.000000  0.000000      6.000000
  0.444444  0.000000  0.000000      6.000000
  0.111111  0.111111  0.000000     12.000000
  0.222222  0.111111  0.000000     24.000000
  0.333333  0.111111  0.000000     24.000000
  0.444444  0.111111  0.000000     24.000000
  0.222222  0.222222  0.000000     12.000000
  0.333333  0.222222  0.000000     24.000000
  0.444444  0.222222  0.000000     24.000000
  0.333333  0.333333  0.000000     12.000000
  0.444444  0.333333  0.000000     24.000000
  0.444444  0.444444  0.000000     12.000000
  0.111111  0.111111  0.111111      8.000000
  0.222222  0.111111  0.111111     24.000000
  0.333333  0.111111  0.111111     24.000000
  0.444444  0.111111  0.111111     24.000000
  0.222222  0.222222  0.111111     24.000000
  0.333333  0.222222  0.111111     48.000000
  0.444444  0.222222  0.111111     48.000000
  0.333333  0.333333  0.111111     24.000000
  0.444444  0.333333  0.111111     48.000000
  0.444444  0.444444  0.111111     24.000000
  0.222222  0.222222  0.222222      8.000000
  0.333333  0.222222  0.222222     24.000000
  0.444444  0.222222  0.222222     24.000000
  0.333333  0.333333  0.222222     24.000000
  0.444444  0.333333  0.222222     48.000000
  0.444444  0.444444  0.222222     24.000000
  0.333333  0.333333  0.333333      8.000000
  0.444444  0.333333  0.333333     24.000000
  0.444444  0.444444  0.333333     24.000000
  0.444444  0.444444  0.444444      8.000000
 
 Following cartesian coordinates:
            Coordinates               Weight
  0.000000  0.000000  0.000000      1.000000
  0.010751  0.000000  0.000000      6.000000
  0.021502  0.000000  0.000000      6.000000
  0.032253  0.000000  0.000000      6.000000
  0.043004  0.000000  0.000000      6.000000
  0.010751  0.010751  0.000000     12.000000
  0.021502  0.010751  0.000000     24.000000
  0.032253  0.010751  0.000000     24.000000
  0.043004  0.010751  0.000000     24.000000
  0.021502  0.021502  0.000000     12.000000
  0.032253  0.021502  0.000000     24.000000
  0.043004  0.021502  0.000000     24.000000
  0.032253  0.032253  0.000000     12.000000
  0.043004  0.032253  0.000000     24.000000
  0.043004  0.043004  0.000000     12.000000
  0.010751  0.010751  0.010751      8.000000
  0.021502  0.010751  0.010751     24.000000
  0.032253  0.010751  0.010751     24.000000
  0.043004  0.010751  0.010751     24.000000
  0.021502  0.021502  0.010751     24.000000
  0.032253  0.021502  0.010751     48.000000
  0.043004  0.021502  0.010751     48.000000
  0.032253  0.032253  0.010751     24.000000
  0.043004  0.032253  0.010751     48.000000
  0.043004  0.043004  0.010751     24.000000
  0.021502  0.021502  0.021502      8.000000
  0.032253  0.021502  0.021502     24.000000
  0.043004  0.021502  0.021502     24.000000
  0.032253  0.032253  0.021502     24.000000
  0.043004  0.032253  0.021502     48.000000
  0.043004  0.043004  0.021502     24.000000
  0.032253  0.032253  0.032253      8.000000
  0.043004  0.032253  0.032253     24.000000
  0.043004  0.043004  0.032253     24.000000
  0.043004  0.043004  0.043004      8.000000
 


--------------------------------------------------------------------------------------------------------




 Dimension of arrays:
   k-points           NKPTS =     35   k-points in BZ     NKDIM =     35   number of bands    NBANDS=    518
   number of dos      NEDOS =    301   number of ions     NIONS =    108
   non local maximal  LDIM  =      6   non local SUM 2l+1 LMDIM =     18
   total plane-waves  NPLWV = 373248
   max r-space proj   IRMAX =   4912   max aug-charges    IRDMAX=  12243
   dimension x,y,z NGX =    72 NGY =   72 NGZ =   72
   dimension x,y,z NGXF=   144 NGYF=  144 NGZF=  144
   support grid    NGXF=   144 NGYF=  144 NGZF=  144
   ions per type =             108
   NGX,Y,Z   is equivalent  to a cutoff of  11.58, 11.58, 11.58 a.u.
   NGXF,Y,Z  is equivalent  to a cutoff of  23.16, 23.16, 23.16 a.u.

 Based on PREC, I would recommend the following setting:
   dimension x,y,z NGX =    54 NGY =   54 NGZ =   54

 SYSTEM =  Opt                                     
 POSCAR =  fcc_Fe_CON_333                          

 Startparameter for this run:
   NWRITE =      2    write-flag & timer
   PREC   = normal    normal or accurate (medium, high low for compatibility)
   ISTART =      0    job   : 0-new  1-cont  2-samecut
   ICHARG =      2    charge: 1-file 2-atom 10-const
   ISPIN  =      1    spin polarized calculation?
   LNONCOLLINEAR =      F non collinear calculations
   LSORBIT =      F    spin-orbit coupling
   INIWAV =      1    electr: 0-lowe 1-rand  2-diag
   LASPH  =      F    aspherical Exc in radial PAW
   METAGGA=      F    non-selfconsistent MetaGGA calc.

 Electronic Relaxation 1
   ENCUT  =  400.0 eV  29.40 Ry    5.42 a.u.  16.85 16.85 16.85*2*pi/ulx,y,z
   ENINI  =  400.0     initial cutoff
   ENAUG  =  511.4 eV  augmentation charge cutoff
   NELM   =    400;   NELMIN=  2; NELMDL= -5     # of ELM steps 
   EDIFF  = 0.1E-05   stopping-criterion for ELM
   LREAL  =      T    real-space projection
   NLSPLINE    = F    spline interpolate recip. space projectors
   LCOMPAT=      F    compatible to vasp.4.4
   GGA_COMPAT  = T    GGA compatible to vasp.4.4-vasp.4.6
   LMAXPAW     = -100 max onsite density
   LMAXMIX     =    2 max onsite mixed and CHGCAR
   VOSKOWN=      0    Vosko Wilk Nusair interpolation
   ROPT   =   -0.00050
 Ionic relaxation
   EDIFFG = -.1E-01   stopping-criterion for IOM
   NSW    =    100    number of steps for IOM
   NBLOCK =      1;   KBLOCK =    100    inner block; outer block 
   IBRION =      2    ionic relax: 0-MD 1-quasi-New 2-CG
   NFREE  =      1    steps in history (QN), initial steepest desc. (CG)
   ISIF   =      3    stress and relaxation
   IWAVPR =     11    prediction:  0-non 1-charg 2-wave 3-comb
   ISYM   =      2    0-nonsym 1-usesym 2-fastsym
   LCORR  =      T    Harris-Foulkes like correction to forces

   POTIM  = 0.5000    time-step for ionic-motion
   TEIN   =    0.0    initial temperature
   TEBEG  =    0.0;   TEEND  =   0.0 temperature during run
   SMASS  =  -3.00    Nose mass-parameter (am)
   estimated Nose-frequenzy (Omega)   =  0.10E-29 period in steps =****** mass=  -0.244E-26a.u.
   SCALEE = 1.0000    scale energy and forces
   NPACO  =    256;   APACO  = 16.0  distance and # of slots for P.C.
   PSTRESS=    0.0 pullay stress

  Mass of Ions in am
   POMASS =  55.85
  Ionic Valenz
   ZVAL   =   8.00
  Atomic Wigner-Seitz radii
   RWIGS  =  -1.00
  virtual crystal weights 
   VCA    =   1.00
   NELECT =     864.0000    total number of electrons
   NUPDOWN=      -1.0000    fix difference up-down

 DOS related values:
   EMIN   =  10.00;   EMAX   =-10.00  energy-range for DOS
   EFERMI =   0.00
   ISMEAR =     1;   SIGMA  =   0.20  broadening in eV -4-tet -1-fermi 0-gaus

 Electronic relaxation 2 (details)
   IALGO  =     68    algorithm
   LDIAG  =      T    sub-space diagonalisation (order eigenvalues)
   LSUBROT=      F    optimize rotation matrix (better conditioning)
   TURBO    =      0    0=normal 1=particle mesh
   IRESTART =      0    0=no restart 2=restart with 2 vectors
   NREBOOT  =      0    no. of reboots
   NMIN     =      0    reboot dimension
   EREF     =   0.00    reference energy to select bands
   IMIX   =      4    mixing-type and parameters
     AMIX     =   0.40;   BMIX     =  1.00
     AMIX_MAG =   1.60;   BMIX_MAG =  1.00
     AMIN     =   0.10
     WC   =   100.;   INIMIX=   1;  MIXPRE=   1;  MAXMIX= -45

 Intra band minimization:
   WEIMIN = 0.0010     energy-eigenvalue tresh-hold
   EBREAK =  0.48E-09  absolut break condition
   DEPER  =   0.30     relativ break condition  

   TIME   =   0.40     timestep for ELM

  volume/ion in A,a.u.               =      10.22        68.97
  Fermi-wavevector in a.u.,A,eV,Ry     =   1.508720  2.851068 30.970078  2.276236
  Thomas-Fermi vector in A             =   2.619137
 
 Write flags
   LWAVE        =      F    write WAVECAR
   LDOWNSAMPLE  =      F    k-point downsampling of WAVECAR
   LCHARG       =      F    write CHGCAR
   LVTOT        =      F    write LOCPOT, total local potential
   LVHAR        =      F    write LOCPOT, Hartree potential only
   LELF         =      F    write electronic localiz. function (ELF)
   LORBIT       =      0    0 simple, 1 ext, 2 COOP (PROOUT), +10 PAW based schemes


 Dipole corrections
   LMONO  =      F    monopole corrections only (constant potential shift)
   LDIPOL =      F    correct potential (dipole corrections)
   IDIPOL =      0    1-x, 2-y, 3-z, 4-all directions 
   EPSILON=  1.0000000 bulk dielectric constant

 Exchange correlation treatment:
   GGA     =    --    GGA type
   LEXCH   =     8    internal setting for exchange type
   VOSKOWN=      0    Vosko Wilk Nusair interpolation
   LHFCALC =     F    Hartree Fock is set to
   LHFONE  =     F    Hartree Fock one center treatment
   AEXX    =    0.0000 exact exchange contribution

 Linear response parameters
   LEPSILON=     F    determine dielectric tensor
   LRPA    =     F    only Hartree local field effects (RPA)
   LNABLA  =     F    use nabla operator in PAW spheres
   LVEL    =     F    velocity operator in full k-point grid
   LINTERFAST=   F  fast interpolation
   KINTER  =     0    interpolate to denser k-point grid
   CSHIFT  =0.1000    complex shift for real part using Kramers Kronig
   OMEGAMAX=  -1.0    maximum frequency
   DEG_THRESHOLD= 0.2000000E-02 threshold for treating states as degnerate
   RTIME   =   -0.100 relaxation time in fs
  (WPLASMAI=    0.000 imaginary part of plasma frequency in eV, 0.658/RTIME)
   DFIELD  = 0.0000000 0.0000000 0.0000000 field for delta impulse in time
 
 Orbital magnetization related:
   ORBITALMAG=     F  switch on orbital magnetization
   LCHIMAG   =     F  perturbation theory with respect to B field
   DQ        =  0.001000  dq finite difference perturbation B field
   LLRAUG    =     F  two centre corrections for induced B field



--------------------------------------------------------------------------------------------------------


 conjugate gradient relaxation of ions
 charge density and potential will be updated during run
 non-spin polarized calculation
 RMM-DIIS sequential band-by-band and
  variant of blocked Davidson during initial phase
 perform sub-space diagonalisation
    before iterative eigenvector-optimisation
 modified Broyden-mixing scheme, WC =      100.0
 initial mixing is a Kerker type mixing with AMIX =  0.4000 and BMIX =      1.0000
 Hartree-type preconditioning will be used
 using additional bands           86
 real space projection scheme for non local part
 use partial core corrections
 calculate Harris-corrections to forces 
   (improved forces if not selfconsistent)
 use gradient corrections 
 use of overlap-Matrix (Vanderbilt PP)
 Methfessel and Paxton  Order N= 1 SIGMA  =   0.20


--------------------------------------------------------------------------------------------------------


  energy-cutoff  :      400.00
  volume of cell :     1103.86
      direct lattice vectors                 reciprocal lattice vectors
    10.334847047  0.000000000  0.000000000     0.096760019  0.000000000  0.000000000
     0.000000000 10.334847047  0.000000000     0.000000000  0.096760019  0.000000000
     0.000000000  0.000000000 10.334847047     0.000000000  0.000000000  0.096760019

  length of vectors
    10.334847047 10.334847047 10.334847047     0.096760019  0.096760019  0.096760019


 
 k-points in units of 2pi/SCALE and weight: pymatgen generated KPOINTS with grid den
   0.00000000  0.00000000  0.00000000       0.001
   0.01075111  0.00000000  0.00000000       0.008
   0.02150223  0.00000000  0.00000000       0.008
   0.03225334  0.00000000  0.00000000       0.008
   0.04300445  0.00000000  0.00000000       0.008
   0.01075111  0.01075111  0.00000000       0.016
   0.02150223  0.01075111  0.00000000       0.033
   0.03225334  0.01075111  0.00000000       0.033
   0.04300445  0.01075111  0.00000000       0.033
   0.02150223  0.02150223  0.00000000       0.016
   0.03225334  0.02150223  0.00000000       0.033
   0.04300445  0.02150223  0.00000000       0.033
   0.03225334  0.03225334  0.00000000       0.016
   0.04300445  0.03225334  0.00000000       0.033
   0.04300445  0.04300445  0.00000000       0.016
   0.01075111  0.01075111  0.01075111       0.011
   0.02150223  0.01075111  0.01075111       0.033
   0.03225334  0.01075111  0.01075111       0.033
   0.04300445  0.01075111  0.01075111       0.033
   0.02150223  0.02150223  0.01075111       0.033
   0.03225334  0.02150223  0.01075111       0.066
   0.04300445  0.02150223  0.01075111       0.066
   0.03225334  0.03225334  0.01075111       0.033
   0.04300445  0.03225334  0.01075111       0.066
   0.04300445  0.04300445  0.01075111       0.033
   0.02150223  0.02150223  0.02150223       0.011
   0.03225334  0.02150223  0.02150223       0.033
   0.04300445  0.02150223  0.02150223       0.033
   0.03225334  0.03225334  0.02150223       0.033
   0.04300445  0.03225334  0.02150223       0.066
   0.04300445  0.04300445  0.02150223       0.033
   0.03225334  0.03225334  0.03225334       0.011
   0.04300445  0.03225334  0.03225334       0.033
   0.04300445  0.04300445  0.03225334       0.033
   0.04300445  0.04300445  0.04300445       0.011
 
 k-points in reciprocal lattice and weights: pymatgen generated KPOINTS with grid den
   0.00000000  0.00000000  0.00000000       0.001
   0.11111111  0.00000000  0.00000000       0.008
   0.22222222  0.00000000  0.00000000       0.008
   0.33333333  0.00000000  0.00000000       0.008
   0.44444444  0.00000000  0.00000000       0.008
   0.11111111  0.11111111  0.00000000       0.016
   0.22222222  0.11111111  0.00000000       0.033
   0.33333333  0.11111111  0.00000000       0.033
   0.44444444  0.11111111  0.00000000       0.033
   0.22222222  0.22222222  0.00000000       0.016
   0.33333333  0.22222222  0.00000000       0.033
   0.44444444  0.22222222  0.00000000       0.033
   0.33333333  0.33333333  0.00000000       0.016
   0.44444444  0.33333333  0.00000000       0.033
   0.44444444  0.44444444  0.00000000       0.016
   0.11111111  0.11111111  0.11111111       0.011
   0.22222222  0.11111111  0.11111111       0.033
   0.33333333  0.11111111  0.11111111       0.033
   0.44444444  0.11111111  0.11111111       0.033
   0.22222222  0.22222222  0.11111111       0.033
   0.33333333  0.22222222  0.11111111       0.066
   0.44444444  0.22222222  0.11111111       0.066
   0.33333333  0.33333333  0.11111111       0.033
   0.44444444  0.33333333  0.11111111       0.066
   0.44444444  0.44444444  0.11111111       0.033
   0.22222222  0.22222222  0.22222222       0.011
   0.33333333  0.22222222  0.22222222       0.033
   0.44444444  0.22222222  0.22222222       0.033
   0.33333333  0.33333333  0.22222222       0.033
   0.44444444  0.33333333  0.22222222       0.066
   0.44444444  0.44444444  0.22222222       0.033
   0.33333333  0.33333333  0.33333333       0.011
   0.44444444  0.33333333  0.33333333       0.033
   0.44444444  0.44444444  0.33333333       0.033
   0.44444444  0.44444444  0.44444444       0.011
 
 position of ions in fractional coordinates (direct lattice) 
   0.00000000  0.00000000  0.00000000
   0.00000000  0.16666893  0.16666893
   0.16666893  0.00000000  0.16666893
   0.16666893  0.16666893  0.00000000
   0.33333106  0.00000000  0.00000000
   0.33333107  0.16666893  0.16666893
   0.50000000  0.00000000  0.16666894
   0.50000000  0.16666894  0.00000000
   0.66666897  0.00000000  0.00000000
   0.66666896  0.16666893  0.16666893
   0.83333104  0.00000000  0.16666893
   0.83333104  0.16666893  0.00000000
   0.00000000  0.33333106  0.00000000
   0.00000000  0.50000000  0.16666894
   0.16666893  0.33333107  0.16666893
   0.16666894  0.50000000  0.00000000
   0.33333107  0.33333107  0.00000000
   0.33333107  0.50000000  0.16666893
   0.50000000  0.33333107  0.16666893
   0.50000000  0.50000000  0.00000000
   0.66666896  0.33333107  0.00000000
   0.66666896  0.50000000  0.16666893
   0.83333104  0.33333107  0.16666893
   0.83333103  0.50000000  0.00000000
   0.00000000  0.66666897  0.00000000
   0.00000000  0.83333104  0.16666893
   0.16666893  0.66666896  0.16666893
   0.16666893  0.83333104  0.00000000
   0.33333107  0.66666896  0.00000000
   0.33333107  0.83333104  0.16666893
   0.50000000  0.66666896  0.16666893
   0.50000000  0.83333103  0.00000000
   0.66666896  0.66666896  0.00000000
   0.66666896  0.83333104  0.16666893
   0.83333104  0.66666896  0.16666893
   0.83333104  0.83333104  0.00000000
   0.00000000  0.00000000  0.33333106
   0.00000000  0.16666894  0.50000000
   0.16666894  0.00000000  0.50000000
   0.16666893  0.16666893  0.33333107
   0.33333107  0.00000000  0.33333107
   0.33333107  0.16666893  0.50000000
   0.50000000  0.00000000  0.50000000
   0.50000000  0.16666893  0.33333107
   0.66666896  0.00000000  0.33333107
   0.66666896  0.16666893  0.50000000
   0.83333103  0.00000000  0.50000000
   0.83333104  0.16666893  0.33333107
   0.00000000  0.33333107  0.33333107
   0.00000000  0.50000000  0.50000000
   0.16666893  0.33333107  0.50000000
   0.16666893  0.50000000  0.33333107
   0.33333107  0.33333107  0.33333107
   0.33333106  0.50000000  0.50000000
   0.50000000  0.33333106  0.50000000
   0.50000000  0.50000000  0.33333106
   0.66666896  0.33333107  0.33333107
   0.66666897  0.50000000  0.50000000
   0.83333104  0.33333107  0.50000000
   0.83333104  0.50000000  0.33333107
   0.00000000  0.66666896  0.33333107
   0.00000000  0.83333103  0.50000000
   0.16666893  0.66666896  0.50000000
   0.16666893  0.83333104  0.33333107
   0.33333107  0.66666896  0.33333107
   0.33333107  0.83333104  0.50000000
   0.50000000  0.66666897  0.50000000
   0.50000000  0.83333104  0.33333107
   0.66666896  0.66666896  0.33333107
   0.66666896  0.83333104  0.50000000
   0.83333104  0.66666896  0.50000000
   0.83333104  0.83333104  0.33333107
   0.00000000  0.00000000  0.66666897
   0.00000000  0.16666893  0.83333104
   0.16666893  0.00000000  0.83333104
   0.16666893  0.16666893  0.66666896
   0.33333107  0.00000000  0.66666896
   0.33333107  0.16666893  0.83333104
   0.50000000  0.00000000  0.83333103
   0.50000000  0.16666893  0.66666896
   0.66666896  0.00000000  0.66666896
   0.66666896  0.16666893  0.83333104
   0.83333104  0.00000000  0.83333104
   0.83333104  0.16666893  0.66666896
   0.00000000  0.33333107  0.66666896
   0.00000000  0.50000000  0.83333103
   0.16666893  0.33333107  0.83333104
   0.16666893  0.50000000  0.66666896
   0.33333107  0.33333107  0.66666896
   0.33333107  0.50000000  0.83333104
   0.50000000  0.33333107  0.83333104
   0.50000000  0.50000000  0.66666897
   0.66666896  0.33333107  0.66666896
   0.66666896  0.50000000  0.83333104
   0.83333104  0.33333107  0.83333104
   0.83333104  0.50000000  0.66666896
   0.00000000  0.66666896  0.66666896
   0.00000000  0.83333104  0.83333104
   0.16666893  0.66666896  0.83333104
   0.16666893  0.83333104  0.66666896
   0.33333107  0.66666896  0.66666896
   0.33333107  0.83333104  0.83333104
   0.50000000  0.66666896  0.83333104
   0.50000000  0.83333104  0.66666896
   0.66666896  0.66666896  0.66666896
   0.66666896  0.83333104  0.83333104
   0.83333104  0.66666896  0.83333104
   0.83333104  0.83333104  0.66666896
 
 position of ions in cartesian coordinates  (Angst):
   0.00000000  0.00000000  0.00000000
   0.00000000  1.72249793  1.72249793
   1.72249793  0.00000000  1.72249793
   1.72249793  1.72249793  0.00000000
   3.44492554  0.00000000  0.00000000
   3.44492559  1.72249794  1.72249794
   5.16742352  0.00000000  1.72249798
   5.16742352  1.72249798  0.00000000
   6.88992180  0.00000000  0.00000000
   6.88992176  1.72249794  1.72249794
   8.61234881  0.00000000  1.72249793
   8.61234881  1.72249793  0.00000000
   0.00000000  3.44492554  0.00000000
   0.00000000  5.16742352  1.72249798
   1.72249794  3.44492559  1.72249794
   1.72249798  5.16742352  0.00000000
   3.44492559  3.44492559  0.00000000
   3.44492559  5.16742352  1.72249793
   5.16742352  3.44492559  1.72249793
   5.16742352  5.16742352  0.00000000
   6.88992176  3.44492559  0.00000000
   6.88992176  5.16742352  1.72249793
   8.61234881  3.44492559  1.72249794
   8.61234877  5.16742352  0.00000000
   0.00000000  6.88992180  0.00000000
   0.00000000  8.61234881  1.72249793
   1.72249794  6.88992176  1.72249794
   1.72249793  8.61234881  0.00000000
   3.44492559  6.88992176  0.00000000
   3.44492559  8.61234881  1.72249794
   5.16742352  6.88992176  1.72249793
   5.16742352  8.61234877  0.00000000
   6.88992176  6.88992176  0.00000000
   6.88992176  8.61234881  1.72249794
   8.61234881  6.88992176  1.72249794
   8.61234881  8.61234881  0.00000000
   0.00000000  0.00000000  3.44492554
   0.00000000  1.72249798  5.16742352
   1.72249798  0.00000000  5.16742352
   1.72249794  1.72249794  3.44492559
   3.44492559  0.00000000  3.44492559
   3.44492559  1.72249793  5.16742352
   5.16742352  0.00000000  5.16742352
   5.16742352  1.72249793  3.44492559
   6.88992176  0.00000000  3.44492559
   6.88992176  1.72249793  5.16742352
   8.61234877  0.00000000  5.16742352
   8.61234881  1.72249794  3.44492559
   0.00000000  3.44492559  3.44492559
   0.00000000  5.16742352  5.16742352
   1.72249793  3.44492559  5.16742352
   1.72249793  5.16742352  3.44492559
   3.44492559  3.44492559  3.44492559
   3.44492554  5.16742352  5.16742352
   5.16742352  3.44492554  5.16742352
   5.16742352  5.16742352  3.44492554
   6.88992176  3.44492559  3.44492559
   6.88992180  5.16742352  5.16742352
   8.61234881  3.44492559  5.16742352
   8.61234881  5.16742352  3.44492559
   0.00000000  6.88992176  3.44492559
   0.00000000  8.61234877  5.16742352
   1.72249793  6.88992176  5.16742352
   1.72249794  8.61234881  3.44492559
   3.44492559  6.88992176  3.44492559
   3.44492559  8.61234881  5.16742352
   5.16742352  6.88992180  5.16742352
   5.16742352  8.61234881  3.44492559
   6.88992176  6.88992176  3.44492559
   6.88992176  8.61234881  5.16742352
   8.61234881  6.88992176  5.16742352
   8.61234881  8.61234881  3.44492559
   0.00000000  0.00000000  6.88992180
   0.00000000  1.72249793  8.61234881
   1.72249793  0.00000000  8.61234881
   1.72249794  1.72249794  6.88992176
   3.44492559  0.00000000  6.88992176
   3.44492559  1.72249794  8.61234881
   5.16742352  0.00000000  8.61234877
   5.16742352  1.72249793  6.88992176
   6.88992176  0.00000000  6.88992176
   6.88992176  1.72249794  8.61234881
   8.61234881  0.00000000  8.61234881
   8.61234881  1.72249794  6.88992176
   0.00000000  3.44492559  6.88992176
   0.00000000  5.16742352  8.61234877
   1.72249794  3.44492559  8.61234881
   1.72249793  5.16742352  6.88992176
   3.44492559  3.44492559  6.88992176
   3.44492559  5.16742352  8.61234881
   5.16742352  3.44492559  8.61234881
   5.16742352  5.16742352  6.88992180
   6.88992176  3.44492559  6.88992176
   6.88992176  5.16742352  8.61234881
   8.61234881  3.44492559  8.61234881
   8.61234881  5.16742352  6.88992176
   0.00000000  6.88992176  6.88992176
   0.00000000  8.61234881  8.61234881
   1.72249794  6.88992176  8.61234881
   1.72249794  8.61234881  6.88992176
   3.44492559  6.88992176  6.88992176
   3.44492559  8.61234881  8.61234881
   5.16742352  6.88992176  8.61234881
   5.16742352  8.61234881  6.88992176
   6.88992176  6.88992176  6.88992176
   6.88992176  8.61234881  8.61234881
   8.61234881  6.88992176  8.61234881
   8.61234881  8.61234881  6.88992176
 


--------------------------------------------------------------------------------------------------------


 k-point  1 :   0.0000 0.0000 0.0000  plane waves:   20005
 k-point  2 :   0.1111 0.0000 0.0000  plane waves:   20053
 k-point  3 :   0.2222 0.0000 0.0000  plane waves:   20038
 k-point  4 :   0.3333 0.0000 0.0000  plane waves:   20054
 k-point  5 :   0.4444 0.0000 0.0000  plane waves:   20082
 k-point  6 :   0.1111 0.1111 0.0000  plane waves:   20028
 k-point  7 :   0.2222 0.1111 0.0000  plane waves:   20027
 k-point  8 :   0.3333 0.1111 0.0000  plane waves:   20033
 k-point  9 :   0.4444 0.1111 0.0000  plane waves:   20061
 k-point 10 :   0.2222 0.2222 0.0000  plane waves:   20044
 k-point 11 :   0.3333 0.2222 0.0000  plane waves:   20044
 k-point 12 :   0.4444 0.2222 0.0000  plane waves:   20052
 k-point 13 :   0.3333 0.3333 0.0000  plane waves:   20052
 k-point 14 :   0.4444 0.3333 0.0000  plane waves:   20063
 k-point 15 :   0.4444 0.4444 0.0000  plane waves:   20042
 k-point 16 :   0.1111 0.1111 0.1111  plane waves:   20017
 k-point 17 :   0.2222 0.1111 0.1111  plane waves:   20038
 k-point 18 :   0.3333 0.1111 0.1111  plane waves:   20056
 k-point 19 :   0.4444 0.1111 0.1111  plane waves:   20056
 k-point 20 :   0.2222 0.2222 0.1111  plane waves:   20043
 k-point 21 :   0.3333 0.2222 0.1111  plane waves:   20045
 k-point 22 :   0.4444 0.2222 0.1111  plane waves:   20060
 k-point 23 :   0.3333 0.3333 0.1111  plane waves:   20057
 k-point 24 :   0.4444 0.3333 0.1111  plane waves:   20061
 k-point 25 :   0.4444 0.4444 0.1111  plane waves:   20049
 k-point 26 :   0.2222 0.2222 0.2222  plane waves:   20035
 k-point 27 :   0.3333 0.2222 0.2222  plane waves:   20052
 k-point 28 :   0.4444 0.2222 0.2222  plane waves:   20064
 k-point 29 :   0.3333 0.3333 0.2222  plane waves:   20053
 k-point 30 :   0.4444 0.3333 0.2222  plane waves:   20073
 k-point 31 :   0.4444 0.4444 0.2222  plane waves:   20061
 k-point 32 :   0.3333 0.3333 0.3333  plane waves:   20054
 k-point 33 :   0.4444 0.3333 0.3333  plane waves:   20050
 k-point 34 :   0.4444 0.4444 0.3333  plane waves:   20062
 k-point 35 :   0.4444 0.4444 0.4444  plane waves:   20060

 maximum and minimum number of plane-waves per node :      5057     4956

 maximum number of plane-waves:     20082
 maximum index in each direction: 
   IXMAX=   16   IYMAX=   16   IZMAX=   16
   IXMIN=  -17   IYMIN=  -17   IZMIN=  -17


 real space projection operators:
  total allocation   :      71821.69 KBytes
  max/ min on nodes  :      18240.19      17708.62


 parallel 3D FFT for wavefunctions:
    minimum data exchange during FFTs selected (reduces bandwidth)
 parallel 3D FFT for charge:
    minimum data exchange during FFTs selected (reduces bandwidth)


 total amount of memory used by VASP MPI-rank0   897097. kBytes
=======================================================================

   base      :      30000. kBytes
   nonlr-proj:      31400. kBytes
   fftplans  :      15433. kBytes
   grid      :      21835. kBytes
   one-center:        419. kBytes
   wavefun   :     798010. kBytes
 
     INWAV:  cpu time    0.0000: real time    0.0001
 Broyden mixing: mesh for mixing (old mesh)
   NGX = 33   NGY = 33   NGZ = 33
  (NGX  =144   NGY  =144   NGZ  =144)
  gives a total of  35937 points

 initial charge density was supplied:
 charge density of overlapping atoms calculated
 number of electron     864.0000000 magnetization 
 keeping initial charge density in first step


--------------------------------------------------------------------------------------------------------


 Maximum index for non-local projection operator         1201
 Maximum index for augmentation-charges         1463 (set IRDMAX)


--------------------------------------------------------------------------------------------------------


 First call to EWALD:  gamma=   0.172
 Maximum number of real-space cells 3x 3x 3
 Maximum number of reciprocal cells 3x 3x 3

    FEWALD:  cpu time    0.0117: real time    0.0117


--------------------------------------- Iteration      1(   1)  ---------------------------------------


    POTLOK:  cpu time    0.3427: real time    0.3435
    SETDIJ:  cpu time    0.0530: real time    0.0530
     EDDAV:  cpu time  464.4644: real time  464.6650
       DOS:  cpu time    0.0342: real time    0.0342
    --------------------------------------------
      LOOP:  cpu time  464.8944: real time  465.0958

 eigenvalue-minimisations  : 36300
 total energy-change (2. order) : 0.7598624E+04  (-0.2885673E+05)
 number of electron     864.0000000 magnetization 
 augmentation part      864.0000000 magnetization 

 Free energy of the ion-electron system (eV)
  ---------------------------------------------------
  alpha Z        PSCENC =      7300.31925852
  Ewald energy   TEWEN  =    -66232.83996889
  -Hartree energ DENC   =    -11197.02572337
  -exchange      EXHF   =         0.00000000
  -V(xc)+E(xc)   XCENC  =       446.63038354
  PAW double counting   =     51723.88885462   -52548.28121372
  entropy T*S    EENTRO =         0.00427007
  eigenvalues    EBANDS =     13904.25755421
  atomic energy  EATOM  =     64201.67088057
  Solvation  Ediel_sol  =         0.00000000
  ---------------------------------------------------
  free energy    TOTEN  =      7598.62429557 eV

  energy without entropy =     7598.62002549  energy(sigma->0) =     7598.62287221


--------------------------------------------------------------------------------------------------------




--------------------------------------- Iteration      1(   2)  ---------------------------------------


     EDDAV:  cpu time  420.4738: real time  420.6562
       DOS:  cpu time    0.0505: real time    0.0505
    --------------------------------------------
      LOOP:  cpu time  420.5243: real time  420.7066

 eigenvalue-minimisations  : 36260
 total energy-change (2. order) :-0.7621752E+04  (-0.7453034E+04)
 number of electron     864.0000000 magnetization 
 augmentation part      864.0000000 magnetization 

 Free energy of the ion-electron system (eV)
  ---------------------------------------------------
  alpha Z        PSCENC =      7300.31925852
  Ewald energy   TEWEN  =    -66232.83996889
  -Hartree energ DENC   =    -11197.02572337
  -exchange      EXHF   =         0.00000000
  -V(xc)+E(xc)   XCENC  =       446.63038354
  PAW double counting   =     51723.88885462   -52548.28121372
  entropy T*S    EENTRO =         0.01023357
  eigenvalues    EBANDS =      6282.49940796
  atomic energy  EATOM  =     64201.67088057
  Solvation  Ediel_sol  =         0.00000000
  ---------------------------------------------------
  free energy    TOTEN  =       -23.12788718 eV

  energy without entropy =      -23.13812076  energy(sigma->0) =      -23.13129837


--------------------------------------------------------------------------------------------------------




--------------------------------------- Iteration      1(   3)  ---------------------------------------


     EDDAV:  cpu time  369.8818: real time  370.0115
       DOS:  cpu time    0.0599: real time    0.0599
    --------------------------------------------
      LOOP:  cpu time  369.9417: real time  370.0714

 eigenvalue-minimisations  : 36460
 total energy-change (2. order) :-0.8274940E+03  (-0.7070883E+03)
 number of electron     864.0000000 magnetization 
 augmentation part      864.0000000 magnetization 

 Free energy of the ion-electron system (eV)
  ---------------------------------------------------
  alpha Z        PSCENC =      7300.31925852
  Ewald energy   TEWEN  =    -66232.83996889
  -Hartree energ DENC   =    -11197.02572337
  -exchange      EXHF   =         0.00000000
  -V(xc)+E(xc)   XCENC  =       446.63038354
  PAW double counting   =     51723.88885462   -52548.28121372
  entropy T*S    EENTRO =         0.00737665
  eigenvalues    EBANDS =      5455.00822145
  atomic energy  EATOM  =     64201.67088057
  Solvation  Ediel_sol  =         0.00000000
  ---------------------------------------------------
  free energy    TOTEN  =      -850.62193061 eV

  energy without entropy =     -850.62930727  energy(sigma->0) =     -850.62438950


--------------------------------------------------------------------------------------------------------




--------------------------------------- Iteration      1(   4)  ---------------------------------------


     EDDAV:  cpu time  585.6307: real time  585.9117
       DOS:  cpu time    0.0618: real time    0.0618
    --------------------------------------------
      LOOP:  cpu time  585.6926: real time  585.9735

 eigenvalue-minimisations  : 65832
 total energy-change (2. order) :-0.1792641E+03  (-0.1680871E+03)
 number of electron     864.0000000 magnetization 
 augmentation part      864.0000000 magnetization 

 Free energy of the ion-electron system (eV)
  ---------------------------------------------------
  alpha Z        PSCENC =      7300.31925852
  Ewald energy   TEWEN  =    -66232.83996889
  -Hartree energ DENC   =    -11197.02572337
  -exchange      EXHF   =         0.00000000
  -V(xc)+E(xc)   XCENC  =       446.63038354
  PAW double counting   =     51723.88885462   -52548.28121372
  entropy T*S    EENTRO =         0.06356320
  eigenvalues    EBANDS =      5275.68790519
  atomic energy  EATOM  =     64201.67088057
  Solvation  Ediel_sol  =         0.00000000
  ---------------------------------------------------
  free energy    TOTEN  =     -1029.88606033 eV

  energy without entropy =    -1029.94962353  energy(sigma->0) =    -1029.90724806


--------------------------------------------------------------------------------------------------------




--------------------------------------- Iteration      1(   5)  ---------------------------------------


     EDDAV:  cpu time  538.7213: real time  538.9655
       DOS:  cpu time    0.0624: real time    0.0624
    CHARGE:  cpu time   15.9267: real time   15.9267
    MIXING:  cpu time    0.0121: real time    0.0121
    --------------------------------------------
      LOOP:  cpu time  554.7225: real time  554.9667

 eigenvalue-minimisations  : 57944
 total energy-change (2. order) :-0.1520373E+02  (-0.1436738E+02)
 number of electron     864.0000692 magnetization 
 augmentation part      382.7863394 magnetization 

 Broyden mixing:
  rms(total) = 0.93441E+01    rms(broyden)= 0.93435E+01
  rms(prec ) = 0.11651E+02
  weight for this iteration     100.00

 Free energy of the ion-electron system (eV)
  ---------------------------------------------------
  alpha Z        PSCENC =      7300.31925852
  Ewald energy   TEWEN  =    -66232.83996889
  -Hartree energ DENC   =    -11197.02572337
  -exchange      EXHF   =         0.00000000
  -V(xc)+E(xc)   XCENC  =       446.63038354
  PAW double counting   =     51723.88885462   -52548.28121372
  entropy T*S    EENTRO =         0.09503140
  eigenvalues    EBANDS =      5260.45270872
  atomic energy  EATOM  =     64201.67088057
  Solvation  Ediel_sol  =         0.00000000
  ---------------------------------------------------
  free energy    TOTEN  =     -1045.08978859 eV

  energy without entropy =    -1045.18482000  energy(sigma->0) =    -1045.12146573


--------------------------------------------------------------------------------------------------------




--------------------------------------- Iteration      1(   6)  ---------------------------------------


    POTLOK:  cpu time    0.3546: real time    0.3558
    SETDIJ:  cpu time    0.0545: real time    0.0545
    EDDIAG:  cpu time   41.8021: real time   41.8301
  RMM-DIIS:  cpu time  207.4826: real time  207.5625
    ORTHCH:  cpu time    9.5232: real time    9.5233
       DOS:  cpu time    0.0668: real time    0.0668
    CHARGE:  cpu time   15.8892: real time   15.8891
    MIXING:  cpu time    0.0112: real time    0.0112
    --------------------------------------------
      LOOP:  cpu time  275.1842: real time  275.2934

 eigenvalue-minimisations  : 36260
 total energy-change (2. order) : 0.1676274E+03  (-0.1353718E+03)
 number of electron     864.0000779 magnetization 
 augmentation part      447.8678757 magnetization 

 Broyden mixing:
  rms(total) = 0.90028E+00    rms(broyden)= 0.89924E+00
  rms(prec ) = 0.97338E+00
  weight for this iteration     100.00

 eigenvalues of (default mixing * dielectric matrix)
  average eigenvalue GAMMA=   0.9478
  0.9478

 Free energy of the ion-electron system (eV)
  ---------------------------------------------------
  alpha Z        PSCENC =      7300.31925852
  Ewald energy   TEWEN  =    -66232.83996889
  -Hartree energ DENC   =     -9342.26884194
  -exchange      EXHF   =         0.00000000
  -V(xc)+E(xc)   XCENC  =       355.84769430
  PAW double counting   =     52445.40349979   -53026.21473986
  entropy T*S    EENTRO =         0.03247916
  eigenvalues    EBANDS =      3420.58731993
  atomic energy  EATOM  =     64201.67088057
  Solvation  Ediel_sol  =         0.00000000
  ---------------------------------------------------
  free energy    TOTEN  =      -877.46241841 eV

  energy without entropy =     -877.49489757  energy(sigma->0) =     -877.47324480


--------------------------------------------------------------------------------------------------------




--------------------------------------- Iteration      1(   7)  ---------------------------------------


    POTLOK:  cpu time    0.3368: real time    0.3372
    SETDIJ:  cpu time    0.0565: real time    0.0565
    EDDIAG:  cpu time   44.6848: real time   44.6934
  RMM-DIIS:  cpu time  226.1399: real time  226.2109
    ORTHCH:  cpu time    9.8408: real time    9.8508
       DOS:  cpu time    0.0664: real time    0.0664
    CHARGE:  cpu time   16.0156: real time   16.0191
    MIXING:  cpu time    0.0105: real time    0.0105
    --------------------------------------------
      LOOP:  cpu time  297.1513: real time  297.2449

 eigenvalue-minimisations  : 39489
 total energy-change (2. order) :-0.2816391E+01  (-0.1100277E+02)
 number of electron     864.0000752 magnetization 
 augmentation part      446.7439510 magnetization 

 Broyden mixing:
  rms(total) = 0.33539E+00    rms(broyden)= 0.33415E+00
  rms(prec ) = 0.37715E+00
  weight for this iteration     100.00

 eigenvalues of (default mixing * dielectric matrix)
  average eigenvalue GAMMA=   1.0923
  1.0923  1.0923

 Free energy of the ion-electron system (eV)
  ---------------------------------------------------
  alpha Z        PSCENC =      7300.31925852
  Ewald energy   TEWEN  =    -66232.83996889
  -Hartree energ DENC   =     -9384.76139620
  -exchange      EXHF   =         0.00000000
  -V(xc)+E(xc)   XCENC  =       360.42758260
  PAW double counting   =     54329.81107195   -55107.12311134
  entropy T*S    EENTRO =         0.03107470
  eigenvalues    EBANDS =      3652.18579828
  atomic energy  EATOM  =     64201.67088057
  Solvation  Ediel_sol  =         0.00000000
  ---------------------------------------------------
  free energy    TOTEN  =      -880.27880981 eV

  energy without entropy =     -880.30988450  energy(sigma->0) =     -880.28916804


--------------------------------------------------------------------------------------------------------




--------------------------------------- Iteration      1(   8)  ---------------------------------------


    POTLOK:  cpu time    0.3551: real time    0.3563
    SETDIJ:  cpu time    0.0541: real time    0.0541
    EDDIAG:  cpu time   44.6524: real time   44.6707
  RMM-DIIS:  cpu time  217.5324: real time  217.6171
    ORTHCH:  cpu time    9.2433: real time    9.2433
       DOS:  cpu time    0.0668: real time    0.0668
    CHARGE:  cpu time   15.1821: real time   15.1821
    MIXING:  cpu time    0.0097: real time    0.0097
    --------------------------------------------
      LOOP:  cpu time  287.0959: real time  287.2003

 eigenvalue-minimisations  : 38679
 total energy-change (2. order) : 0.5348153E+00  (-0.1325846E+01)
 number of electron     864.0000749 magnetization 
 augmentation part      443.3735641 magnetization 

 Broyden mixing:
  rms(total) = 0.89051E+00    rms(broyden)= 0.89028E+00
  rms(prec ) = 0.12353E+01
  weight for this iteration     100.00

 eigenvalues of (default mixing * dielectric matrix)
  average eigenvalue GAMMA=   0.7907
  1.0251  1.2071  0.1398

 Free energy of the ion-electron system (eV)
  ---------------------------------------------------
  alpha Z        PSCENC =      7300.31925852
  Ewald energy   TEWEN  =    -66232.83996889
  -Hartree energ DENC   =     -9413.09321204
  -exchange      EXHF   =         0.00000000
  -V(xc)+E(xc)   XCENC  =       362.91421105
  PAW double counting   =     56084.94635477   -56967.99857235
  entropy T*S    EENTRO =         0.01703824
  eigenvalues    EBANDS =      3784.32001562
  atomic energy  EATOM  =     64201.67088057
  Solvation  Ediel_sol  =         0.00000000
  ---------------------------------------------------
  free energy    TOTEN  =      -879.74399450 eV

  energy without entropy =     -879.76103274  energy(sigma->0) =     -879.74967391


--------------------------------------------------------------------------------------------------------




--------------------------------------- Iteration      1(   9)  ---------------------------------------


    POTLOK:  cpu time    0.2956: real time    0.2964
    SETDIJ:  cpu time    0.0530: real time    0.0530
    EDDIAG:  cpu time   44.0362: real time   44.0731
  RMM-DIIS:  cpu time  254.2866: real time  254.3721
    ORTHCH:  cpu time    9.0743: real time    9.0744
       DOS:  cpu time    0.0666: real time    0.0666
    CHARGE:  cpu time   15.1095: real time   15.1095
    MIXING:  cpu time    0.0098: real time    0.0098
    --------------------------------------------
      LOOP:  cpu time  322.9316: real time  323.0549

 eigenvalue-minimisations  : 46232
 total energy-change (2. order) : 0.8010503E-01  (-0.4423581E+00)
 number of electron     864.0000751 magnetization 
 augmentation part      443.8119650 magnetization 

 Broyden mixing:
  rms(total) = 0.23645E+00    rms(broyden)= 0.23572E+00
  rms(prec ) = 0.28866E+00
  weight for this iteration     100.00

 eigenvalues of (default mixing * dielectric matrix)
  average eigenvalue GAMMA=   1.1367
  2.3483  1.0399  1.0399  0.1187

 Free energy of the ion-electron system (eV)
  ---------------------------------------------------
  alpha Z        PSCENC =      7300.31925852
  Ewald energy   TEWEN  =    -66232.83996889
  -Hartree energ DENC   =     -9408.49859267
  -exchange      EXHF   =         0.00000000
  -V(xc)+E(xc)   XCENC  =       362.78871954
  PAW double counting   =     56282.22463225   -57174.39517598
  entropy T*S    EENTRO =         0.03436253
  eigenvalues    EBANDS =      3789.03199466
  atomic energy  EATOM  =     64201.67088057
  Solvation  Ediel_sol  =         0.00000000
  ---------------------------------------------------
  free energy    TOTEN  =      -879.66388946 eV

  energy without entropy =     -879.69825200  energy(sigma->0) =     -879.67534364


--------------------------------------------------------------------------------------------------------




--------------------------------------- Iteration      1(  10)  ---------------------------------------


    POTLOK:  cpu time    0.2840: real time    0.2847
    SETDIJ:  cpu time    0.0541: real time    0.0542
    EDDIAG:  cpu time   39.9180: real time   39.9181
  RMM-DIIS:  cpu time  251.0497: real time  251.0493
    ORTHCH:  cpu time    8.3387: real time    8.3388
       DOS:  cpu time    0.0667: real time    0.0667
    CHARGE:  cpu time   14.3121: real time   14.3120
    MIXING:  cpu time    0.0089: real time    0.0089
    --------------------------------------------
      LOOP:  cpu time  314.0322: real time  314.0326

 eigenvalue-minimisations  : 50296
 total energy-change (2. order) : 0.1399915E+00  (-0.1128142E+00)
 number of electron     864.0000752 magnetization 
 augmentation part      444.7119033 magnetization 

 Broyden mixing:
  rms(total) = 0.43599E-01    rms(broyden)= 0.43589E-01
  rms(prec ) = 0.52616E-01
  weight for this iteration     100.00

 eigenvalues of (default mixing * dielectric matrix)
  average eigenvalue GAMMA=   1.1759
  2.5846  1.2728  0.9516  0.9516  0.1190

 Free energy of the ion-electron system (eV)
  ---------------------------------------------------
  alpha Z        PSCENC =      7300.31925852
  Ewald energy   TEWEN  =    -66232.83996889
  -Hartree energ DENC   =     -9339.34676079
  -exchange      EXHF   =         0.00000000
  -V(xc)+E(xc)   XCENC  =       360.09563046
  PAW double counting   =     57779.76982743   -58719.01607722
  entropy T*S    EENTRO =         0.03635757
  eigenvalues    EBANDS =      3769.78695437
  atomic energy  EATOM  =     64201.67088057
  Solvation  Ediel_sol  =         0.00000000
  ---------------------------------------------------
  free energy    TOTEN  =      -879.52389799 eV

  energy without entropy =     -879.56025556  energy(sigma->0) =     -879.53601718


--------------------------------------------------------------------------------------------------------




--------------------------------------- Iteration      1(  11)  ---------------------------------------


    POTLOK:  cpu time    0.2671: real time    0.2674
    SETDIJ:  cpu time    0.0520: real time    0.0520
    EDDIAG:  cpu time   39.4097: real time   39.4098
  RMM-DIIS:  cpu time  257.4368: real time  257.4364
    ORTHCH:  cpu time    8.2028: real time    8.2028
       DOS:  cpu time    0.0643: real time    0.0643
    CHARGE:  cpu time   14.1314: real time   14.1313
    MIXING:  cpu time    0.0098: real time    0.0098
    --------------------------------------------
      LOOP:  cpu time  319.5738: real time  319.5737

 eigenvalue-minimisations  : 51586
 total energy-change (2. order) :-0.1289352E-01  (-0.9804654E-02)
 number of electron     864.0000753 magnetization 
 augmentation part      444.8928803 magnetization 

 Broyden mixing:
  rms(total) = 0.49742E-01    rms(broyden)= 0.49740E-01
  rms(prec ) = 0.62665E-01
  weight for this iteration     100.00

 eigenvalues of (default mixing * dielectric matrix)
  average eigenvalue GAMMA=   1.2668
  2.6289  1.9903  0.9860  0.9860  0.8910  0.1190

 Free energy of the ion-electron system (eV)
  ---------------------------------------------------
  alpha Z        PSCENC =      7300.31925852
  Ewald energy   TEWEN  =    -66232.83996889
  -Hartree energ DENC   =     -9337.25594977
  -exchange      EXHF   =         0.00000000
  -V(xc)+E(xc)   XCENC  =       360.03215925
  PAW double counting   =     58002.10990674   -58942.89175454
  entropy T*S    EENTRO =         0.03768769
  eigenvalues    EBANDS =      3769.28098892
  atomic energy  EATOM  =     64201.67088057
  Solvation  Ediel_sol  =         0.00000000
  ---------------------------------------------------
  free energy    TOTEN  =      -879.53679150 eV

  energy without entropy =     -879.57447920  energy(sigma->0) =     -879.54935407


--------------------------------------------------------------------------------------------------------




--------------------------------------- Iteration      1(  12)  ---------------------------------------


    POTLOK:  cpu time    0.2783: real time    0.2790
    SETDIJ:  cpu time    0.0540: real time    0.0540
    EDDIAG:  cpu time   38.9299: real time   38.9299
  RMM-DIIS:  cpu time  207.1716: real time  207.1749
    ORTHCH:  cpu time   10.1160: real time   10.1159
       DOS:  cpu time    0.0674: real time    0.0674
    CHARGE:  cpu time   15.4815: real time   15.4852
    MIXING:  cpu time    0.0122: real time    0.0122
    --------------------------------------------
      LOOP:  cpu time  272.1109: real time  272.1184

 eigenvalue-minimisations  : 39607
 total energy-change (2. order) : 0.4255162E-02  (-0.2072143E-02)
 number of electron     864.0000752 magnetization 
 augmentation part      444.6676100 magnetization 

 Broyden mixing:
  rms(total) = 0.10461E-01    rms(broyden)= 0.10455E-01
  rms(prec ) = 0.13608E-01
  weight for this iteration     100.00

 eigenvalues of (default mixing * dielectric matrix)
  average eigenvalue GAMMA=   1.3353
  2.5322  2.5322  1.2933  0.9914  0.9914  0.8877  0.1190

 Free energy of the ion-electron system (eV)
  ---------------------------------------------------
  alpha Z        PSCENC =      7300.31925852
  Ewald energy   TEWEN  =    -66232.83996889
  -Hartree energ DENC   =     -9348.10538215
  -exchange      EXHF   =         0.00000000
  -V(xc)+E(xc)   XCENC  =       360.51323363
  PAW double counting   =     58032.23738896   -58969.77449971
  entropy T*S    EENTRO =         0.03906621
  eigenvalues    EBANDS =      3776.40748651
  atomic energy  EATOM  =     64201.67088057
  Solvation  Ediel_sol  =         0.00000000
  ---------------------------------------------------
  free energy    TOTEN  =      -879.53253634 eV

  energy without entropy =     -879.57160255  energy(sigma->0) =     -879.54555841


--------------------------------------------------------------------------------------------------------




--------------------------------------- Iteration      1(  13)  ---------------------------------------


    POTLOK:  cpu time    0.4187: real time    0.4196
    SETDIJ:  cpu time    0.0650: real time    0.0650
    EDDIAG:  cpu time   43.8050: real time   43.8337
  RMM-DIIS:  cpu time  286.8082: real time  286.9613
    ORTHCH:  cpu time    9.9444: real time    9.9444
       DOS:  cpu time    0.0682: real time    0.0682
    CHARGE:  cpu time   14.9080: real time   14.9079
    MIXING:  cpu time    0.0152: real time    0.0152
    --------------------------------------------
      LOOP:  cpu time  356.0327: real time  356.2153

 eigenvalue-minimisations  : 49625
 total energy-change (2. order) :-0.4982042E-03  (-0.9851488E-03)
 number of electron     864.0000752 magnetization 
 augmentation part      444.5695373 magnetization 

 Broyden mixing:
  rms(total) = 0.71995E-02    rms(broyden)= 0.71976E-02
  rms(prec ) = 0.91840E-02
  weight for this iteration     100.00

[...]
   0.105E-01 -.143E-04 -.103E-01   -.205E-01 0.277E-04 0.202E-01   -.873E-21 -.254E-20 0.508E-20   -.379E-07 0.835E-07 -.457E-07
   0.105E-01 0.103E-01 0.143E-04   -.205E-01 -.202E-01 -.277E-04   -.111E-20 -.683E-20 -.593E-20   -.380E-07 0.450E-07 -.835E-07
   -.105E-01 -.143E-04 0.143E-04   0.205E-01 0.277E-04 -.277E-04   0.000E+00 -.169E-20 -.182E-19   0.382E-07 0.835E-07 -.835E-07
   -.105E-01 0.104E-01 -.104E-01   0.205E-01 -.202E-01 0.202E-01   0.000E+00 0.517E-20 0.508E-20   0.384E-07 0.452E-07 -.458E-07
   -.143E-04 -.103E-01 -.103E-01   0.277E-04 0.202E-01 0.202E-01   0.847E-21 -.254E-20 0.199E-19   0.835E-07 -.457E-07 -.457E-07
   -.143E-04 0.143E-04 0.143E-04   0.277E-04 -.277E-04 -.277E-04   -.424E-21 0.182E-19 0.974E-20   0.835E-07 -.835E-07 -.835E-07
   0.103E-01 -.103E-01 0.143E-04   -.202E-01 0.202E-01 -.277E-04   0.471E-22 0.123E-19 -.932E-20   0.450E-07 -.456E-07 -.835E-07
   0.103E-01 0.143E-04 -.103E-01   -.202E-01 -.277E-04 0.202E-01   0.488E-21 0.762E-20 -.347E-19   0.450E-07 -.835E-07 -.456E-07
   -.104E-01 -.104E-01 -.104E-01   0.202E-01 0.202E-01 0.202E-01   0.000E+00 0.889E-20 0.424E-20   -.458E-07 -.458E-07 -.458E-07
   -.104E-01 0.143E-04 0.143E-04   0.203E-01 -.277E-04 -.277E-04   0.000E+00 0.131E-19 -.212E-20   -.459E-07 -.835E-07 -.835E-07
   0.143E-04 -.104E-01 0.143E-04   -.277E-04 0.203E-01 -.277E-04   0.424E-21 -.186E-19 -.635E-20   -.835E-07 -.459E-07 -.835E-07
   0.143E-04 0.143E-04 -.104E-01   -.277E-04 -.277E-04 0.203E-01   0.000E+00 0.720E-20 -.212E-19   -.835E-07 -.835E-07 -.459E-07
   0.105E-01 -.104E-01 -.104E-01   -.205E-01 0.202E-01 0.202E-01   0.582E-21 0.889E-20 -.123E-19   -.377E-07 -.458E-07 -.458E-07
   0.105E-01 0.143E-04 0.143E-04   -.205E-01 -.277E-04 -.277E-04   0.705E-21 -.254E-20 0.186E-19   -.376E-07 -.835E-07 -.835E-07
   -.105E-01 -.103E-01 0.143E-04   0.205E-01 0.202E-01 -.277E-04   0.000E+00 0.123E-19 -.889E-20   0.386E-07 -.456E-07 -.835E-07
   -.105E-01 0.143E-04 -.103E-01   0.205E-01 -.277E-04 0.202E-01   0.000E+00 0.720E-20 -.847E-21   0.386E-07 -.835E-07 -.456E-07
   -.143E-04 0.105E-01 -.103E-01   0.277E-04 -.205E-01 0.202E-01   -.424E-21 -.115E-19 0.110E-19   0.835E-07 -.379E-07 -.457E-07
   -.143E-04 -.105E-01 0.143E-04   0.277E-04 0.205E-01 -.277E-04   0.000E+00 -.381E-20 -.233E-19   0.835E-07 0.382E-07 -.835E-07
   0.103E-01 0.105E-01 0.143E-04   -.202E-01 -.205E-01 -.277E-04   0.347E-21 -.932E-20 -.889E-20   0.450E-07 -.380E-07 -.835E-07
   0.104E-01 -.105E-01 -.104E-01   -.202E-01 0.205E-01 0.202E-01   -.705E-21 0.102E-19 -.237E-19   0.452E-07 0.384E-07 -.458E-07
   -.104E-01 0.105E-01 -.104E-01   0.202E-01 -.205E-01 0.202E-01   0.000E+00 -.472E-20 -.224E-19   -.458E-07 -.377E-07 -.458E-07
   -.103E-01 -.105E-01 0.143E-04   0.202E-01 0.205E-01 -.277E-04   0.000E+00 -.381E-20 -.220E-19   -.456E-07 0.386E-07 -.835E-07
   0.143E-04 0.105E-01 0.143E-04   -.277E-04 -.205E-01 -.277E-04   0.424E-21 0.136E-19 0.508E-20   -.835E-07 -.376E-07 -.835E-07
   0.143E-04 -.105E-01 -.103E-01   -.277E-04 0.205E-01 0.202E-01   0.847E-21 0.381E-20 -.233E-19   -.835E-07 0.386E-07 -.456E-07
   0.105E-01 0.105E-01 -.104E-01   -.205E-01 -.205E-01 0.202E-01   -.132E-20 -.938E-20 -.131E-19   -.377E-07 -.377E-07 -.458E-07
   0.105E-01 -.105E-01 0.143E-04   -.205E-01 0.205E-01 -.277E-04   0.364E-22 0.169E-20 -.216E-19   -.380E-07 0.386E-07 -.835E-07
   -.105E-01 0.105E-01 0.143E-04   0.205E-01 -.205E-01 -.277E-04   0.000E+00 -.102E-19 0.199E-19   0.386E-07 -.380E-07 -.835E-07
   -.105E-01 -.105E-01 -.104E-01   0.205E-01 0.205E-01 0.202E-01   0.000E+00 0.720E-20 0.106E-19   0.384E-07 0.384E-07 -.458E-07
   -.143E-04 -.143E-04 0.105E-01   0.277E-04 0.277E-04 -.205E-01   -.847E-21 0.102E-19 0.768E-20   0.835E-07 0.835E-07 -.376E-07
   -.143E-04 0.103E-01 -.105E-01   0.277E-04 -.202E-01 0.205E-01   -.847E-21 0.168E-20 -.847E-20   0.835E-07 0.450E-07 0.386E-07
   0.103E-01 -.143E-04 -.105E-01   -.202E-01 0.277E-04 0.205E-01   -.629E-22 -.114E-19 0.720E-20   0.450E-07 0.835E-07 0.386E-07
   0.104E-01 0.104E-01 0.105E-01   -.202E-01 -.202E-01 -.205E-01   -.288E-21 0.222E-20 -.203E-19   0.452E-07 0.452E-07 -.378E-07
   -.103E-01 -.143E-04 0.105E-01   0.202E-01 0.277E-04 -.205E-01   0.000E+00 0.212E-20 -.194E-19   -.457E-07 0.835E-07 -.379E-07
   -.104E-01 0.104E-01 -.105E-01   0.202E-01 -.202E-01 0.205E-01   0.000E+00 0.507E-20 0.216E-19   -.458E-07 0.452E-07 0.384E-07
   0.143E-04 -.143E-04 -.105E-01   -.277E-04 0.277E-04 0.205E-01   0.424E-21 0.152E-19 0.106E-19   -.835E-07 0.835E-07 0.382E-07
   0.143E-04 0.103E-01 0.105E-01   -.277E-04 -.202E-01 -.205E-01   0.000E+00 0.179E-20 -.207E-19   -.835E-07 0.450E-07 -.380E-07
   0.105E-01 -.143E-04 0.105E-01   -.205E-01 0.277E-04 -.205E-01   -.407E-21 -.157E-19 0.345E-20   -.379E-07 0.835E-07 -.379E-07
   0.105E-01 0.104E-01 -.105E-01   -.205E-01 -.202E-01 0.205E-01   -.539E-21 -.340E-20 0.720E-20   -.378E-07 0.452E-07 0.384E-07
   -.105E-01 -.143E-04 -.105E-01   0.205E-01 0.277E-04 0.205E-01   0.000E+00 0.106E-19 -.678E-20   0.386E-07 0.835E-07 0.386E-07
   -.105E-01 0.104E-01 0.105E-01   0.205E-01 -.202E-01 -.205E-01   0.000E+00 0.349E-20 -.157E-19   0.384E-07 0.452E-07 -.378E-07
   -.143E-04 -.103E-01 0.105E-01   0.277E-04 0.202E-01 -.205E-01   0.000E+00 -.102E-19 -.460E-20   0.835E-07 -.457E-07 -.379E-07
   -.143E-04 0.143E-04 -.105E-01   0.277E-04 -.277E-04 0.205E-01   0.169E-20 -.424E-20 -.140E-19   0.835E-07 -.835E-07 0.382E-07
   0.104E-01 -.104E-01 -.105E-01   -.202E-01 0.202E-01 0.205E-01   0.255E-21 0.119E-19 -.424E-21   0.452E-07 -.458E-07 0.384E-07
   0.103E-01 0.143E-04 0.105E-01   -.202E-01 -.277E-04 -.205E-01   -.265E-21 0.508E-20 0.765E-20   0.450E-07 -.835E-07 -.380E-07
   -.104E-01 -.104E-01 0.105E-01   0.202E-01 0.202E-01 -.205E-01   0.000E+00 0.254E-20 -.334E-19   -.458E-07 -.458E-07 -.377E-07
   -.103E-01 0.143E-04 -.105E-01   0.202E-01 -.277E-04 0.205E-01   0.000E+00 -.254E-20 -.110E-19   -.456E-07 -.835E-07 0.386E-07
   0.143E-04 -.103E-01 -.105E-01   -.277E-04 0.202E-01 0.205E-01   0.127E-20 -.635E-20 0.932E-20   -.835E-07 -.456E-07 0.386E-07
   0.143E-04 0.143E-04 0.105E-01   -.277E-04 -.277E-04 -.205E-01   0.847E-21 0.296E-20 0.977E-20   -.835E-07 -.835E-07 -.376E-07
   0.105E-01 -.104E-01 0.105E-01   -.205E-01 0.202E-01 -.205E-01   -.725E-21 0.339E-20 0.346E-20   -.377E-07 -.458E-07 -.377E-07
   0.105E-01 0.143E-04 -.105E-01   -.205E-01 -.277E-04 0.205E-01   -.192E-20 -.932E-20 0.889E-20   -.380E-07 -.835E-07 0.386E-07
   -.105E-01 -.104E-01 -.105E-01   0.205E-01 0.202E-01 0.205E-01   0.000E+00 -.127E-20 -.720E-20   0.384E-07 -.458E-07 0.384E-07
   -.105E-01 0.143E-04 0.105E-01   0.205E-01 -.277E-04 -.205E-01   0.000E+00 0.805E-20 -.548E-20   0.386E-07 -.835E-07 -.380E-07
   -.143E-04 0.105E-01 0.105E-01   0.277E-04 -.205E-01 -.205E-01   0.000E+00 -.293E-21 -.713E-20   0.835E-07 -.379E-07 -.379E-07
   -.143E-04 -.105E-01 -.105E-01   0.277E-04 0.205E-01 0.205E-01   0.847E-21 -.847E-21 -.212E-20   0.835E-07 0.386E-07 0.386E-07
   0.104E-01 0.105E-01 -.105E-01   -.202E-01 -.205E-01 0.205E-01   0.471E-21 -.826E-20 0.847E-21   0.452E-07 -.378E-07 0.384E-07
   0.104E-01 -.105E-01 0.105E-01   -.202E-01 0.205E-01 -.205E-01   -.331E-22 -.847E-21 0.140E-19   0.452E-07 0.384E-07 -.378E-07
   -.104E-01 0.105E-01 0.105E-01   0.202E-01 -.205E-01 -.205E-01   0.000E+00 0.129E-21 0.162E-19   -.458E-07 -.377E-07 -.377E-07
   -.104E-01 -.105E-01 -.105E-01   0.202E-01 0.205E-01 0.205E-01   0.000E+00 -.148E-19 0.466E-20   -.458E-07 0.384E-07 0.384E-07
   0.143E-04 0.105E-01 -.105E-01   -.277E-04 -.205E-01 0.205E-01   0.424E-21 0.286E-19 -.203E-19   -.835E-07 -.380E-07 0.386E-07
   0.143E-04 -.105E-01 0.105E-01   -.277E-04 0.205E-01 -.205E-01   0.424E-21 0.296E-20 0.255E-19   -.835E-07 0.386E-07 -.380E-07
   0.105E-01 0.105E-01 0.105E-01   -.205E-01 -.205E-01 -.205E-01   0.213E-21 -.919E-20 0.200E-19   -.377E-07 -.377E-07 -.377E-07
   0.105E-01 -.105E-01 -.105E-01   -.205E-01 0.205E-01 0.205E-01   0.622E-21 0.720E-20 0.119E-19   -.378E-07 0.384E-07 0.384E-07
   -.105E-01 0.105E-01 -.105E-01   0.205E-01 -.205E-01 0.205E-01   0.000E+00 -.487E-20 0.508E-20   0.384E-07 -.378E-07 0.384E-07
   -.105E-01 -.105E-01 0.105E-01   0.205E-01 0.205E-01 -.205E-01   0.000E+00 0.466E-20 0.463E-21   0.384E-07 0.384E-07 -.378E-07
 -----------------------------------------------------------------------------------------------
   0.168E-09 0.203E-09 0.116E-09   0.199E-12 0.130E-14 -.809E-13   -.939E-20 0.134E-18 -.688E-19   -.860E-10 -.875E-10 -.911E-10
 
 
 POSITION                                       TOTAL-FORCE (eV/Angst)
 -----------------------------------------------------------------------------------
      0.00000      0.00000      0.00000         0.000000     -0.000000      0.000000
      0.00000      1.72250      1.72250        -0.000000      0.000000      0.000000
      1.72250      0.00000      1.72250        -0.000000      0.000000      0.000000
      1.72250      1.72250      0.00000        -0.000000     -0.000000     -0.000000
      3.44493      0.00000      0.00000         0.000000     -0.000000      0.000000
      3.44493      1.72250      1.72250         0.000000     -0.000000      0.000000
      5.16742      0.00000      1.72250         0.000000      0.000000     -0.000000
      5.16742      1.72250      0.00000         0.000000     -0.000000     -0.000000
      6.88992      0.00000      0.00000        -0.000000     -0.000000     -0.000000
      6.88992      1.72250      1.72250         0.000000     -0.000000      0.000000
      8.61235      0.00000      1.72250         0.000000     -0.000000     -0.000000
      8.61235      1.72250      0.00000         0.000000     -0.000000      0.000000
      0.00000      3.44493      0.00000        -0.000000     -0.000000      0.000000
      0.00000      5.16742      1.72250         0.000000      0.000000     -0.000000
      1.72250      3.44493      1.72250        -0.000000      0.000000     -0.000000
      1.72250      5.16742      0.00000        -0.000000     -0.000000     -0.000000
      3.44493      3.44493      0.00000         0.000000      0.000000      0.000000
      3.44493      5.16742      1.72250         0.000000     -0.000000     -0.000000
      5.16742      3.44493      1.72250         0.000000      0.000000      0.000000
      5.16742      5.16742      0.00000        -0.000000      0.000000      0.000000
      6.88992      3.44493      0.00000        -0.000000      0.000000     -0.000000
      6.88992      5.16742      1.72250         0.000000     -0.000000      0.000000
      8.61235      3.44493      1.72250         0.000000      0.000000      0.000000
      8.61235      5.16742      0.00000        -0.000000     -0.000000      0.000000
      0.00000      6.88992      0.00000         0.000000      0.000000      0.000000
      0.00000      8.61235      1.72250         0.000000      0.000000     -0.000000
      1.72250      6.88992      1.72250        -0.000000     -0.000000      0.000000
      1.72250      8.61235      0.00000         0.000000     -0.000000     -0.000000
      3.44493      6.88992      0.00000         0.000000      0.000000     -0.000000
      3.44493      8.61235      1.72250        -0.000000     -0.000000     -0.000000
      5.16742      6.88992      1.72250        -0.000000      0.000000      0.000000
      5.16742      8.61235      0.00000         0.000000      0.000000     -0.000000
      6.88992      6.88992      0.00000        -0.000000      0.000000     -0.000000
      6.88992      8.61235      1.72250        -0.000000     -0.000000      0.000000
      8.61235      6.88992      1.72250         0.000000      0.000000     -0.000000
      8.61235      8.61235      0.00000         0.000000      0.000000     -0.000000
      0.00000      0.00000      3.44493         0.000000     -0.000000     -0.000000
      0.00000      1.72250      5.16742         0.000000      0.000000     -0.000000
      1.72250      0.00000      5.16742         0.000000     -0.000000     -0.000000
      1.72250      1.72250      3.44493         0.000000     -0.000000      0.000000
      3.44493      0.00000      3.44493         0.000000     -0.000000     -0.000000
      3.44493      1.72250      5.16742        -0.000000      0.000000     -0.000000
      5.16742      0.00000      5.16742         0.000000      0.000000      0.000000
      5.16742      1.72250      3.44493        -0.000000     -0.000000      0.000000
      6.88992      0.00000      3.44493         0.000000     -0.000000      0.000000
      6.88992      1.72250      5.16742        -0.000000     -0.000000     -0.000000
      8.61235      0.00000      5.16742        -0.000000     -0.000000     -0.000000
      8.61235      1.72250      3.44493         0.000000     -0.000000     -0.000000
      0.00000      3.44493      3.44493         0.000000      0.000000     -0.000000
      0.00000      5.16742      5.16742         0.000000      0.000000     -0.000000
      1.72250      3.44493      5.16742        -0.000000      0.000000     -0.000000
      1.72250      5.16742      3.44493        -0.000000      0.000000      0.000000
      3.44493      3.44493      3.44493         0.000000      0.000000      0.000000
      3.44493      5.16742      5.16742        -0.000000      0.000000     -0.000000
      5.16742      3.44493      5.16742         0.000000      0.000000      0.000000
      5.16742      5.16742      3.44493        -0.000000      0.000000     -0.000000
      6.88992      3.44493      3.44493        -0.000000      0.000000      0.000000
      6.88992      5.16742      5.16742        -0.000000     -0.000000     -0.000000
      8.61235      3.44493      5.16742        -0.000000     -0.000000     -0.000000
      8.61235      5.16742      3.44493        -0.000000      0.000000      0.000000
      0.00000      6.88992      3.44493         0.000000      0.000000     -0.000000
      0.00000      8.61235      5.16742        -0.000000      0.000000     -0.000000
      1.72250      6.88992      5.16742         0.000000     -0.000000      0.000000
      1.72250      8.61235      3.44493         0.000000      0.000000      0.000000
      3.44493      6.88992      3.44493        -0.000000     -0.000000      0.000000
      3.44493      8.61235      5.16742         0.000000     -0.000000      0.000000
      5.16742      6.88992      5.16742         0.000000      0.000000      0.000000
      5.16742      8.61235      3.44493         0.000000      0.000000      0.000000
      6.88992      6.88992      3.44493         0.000000      0.000000      0.000000
      6.88992      8.61235      5.16742         0.000000     -0.000000      0.000000
      8.61235      6.88992      5.16742         0.000000      0.000000     -0.000000
      8.61235      8.61235      3.44493         0.000000      0.000000      0.000000
      0.00000      0.00000      6.88992        -0.000000     -0.000000      0.000000
      0.00000      1.72250      8.61235         0.000000      0.000000     -0.000000
      1.72250      0.00000      8.61235         0.000000     -0.000000     -0.000000
      1.72250      1.72250      6.88992        -0.000000     -0.000000     -0.000000
      3.44493      0.00000      6.88992         0.000000     -0.000000     -0.000000
      3.44493      1.72250      8.61235        -0.000000     -0.000000     -0.000000
      5.16742      0.00000      8.61235         0.000000      0.000000      0.000000
      5.16742      1.72250      6.88992         0.000000     -0.000000     -0.000000
      6.88992      0.00000      6.88992         0.000000      0.000000     -0.000000
      6.88992      1.72250      8.61235         0.000000     -0.000000     -0.000000
      8.61235      0.00000      8.61235         0.000000      0.000000      0.000000
      8.61235      1.72250      6.88992         0.000000     -0.000000      0.000000
      0.00000      3.44493      6.88992        -0.000000      0.000000      0.000000
      0.00000      5.16742      8.61235         0.000000      0.000000      0.000000
      1.72250      3.44493      8.61235         0.000000      0.000000     -0.000000
      1.72250      5.16742      6.88992        -0.000000      0.000000     -0.000000
      3.44493      3.44493      6.88992        -0.000000      0.000000      0.000000
      3.44493      5.16742      8.61235         0.000000     -0.000000      0.000000
      5.16742      3.44493      8.61235        -0.000000     -0.000000      0.000000
      5.16742      5.16742      6.88992         0.000000      0.000000      0.000000
      6.88992      3.44493      6.88992         0.000000      0.000000      0.000000
      6.88992      5.16742      8.61235         0.000000     -0.000000     -0.000000
      8.61235      3.44493      8.61235         0.000000     -0.000000     -0.000000
      8.61235      5.16742      6.88992        -0.000000      0.000000      0.000000
      0.00000      6.88992      6.88992         0.000000     -0.000000      0.000000
      0.00000      8.61235      8.61235         0.000000      0.000000      0.000000
      1.72250      6.88992      8.61235        -0.000000     -0.000000      0.000000
      1.72250      8.61235      6.88992        -0.000000     -0.000000      0.000000
      3.44493      6.88992      6.88992         0.000000     -0.000000      0.000000
      3.44493      8.61235      8.61235         0.000000     -0.000000     -0.000000
      5.16742      6.88992      8.61235        -0.000000      0.000000      0.000000
      5.16742      8.61235      6.88992        -0.000000      0.000000     -0.000000
      6.88992      6.88992      6.88992        -0.000000      0.000000      0.000000
      6.88992      8.61235      8.61235        -0.000000     -0.000000     -0.000000
      8.61235      6.88992      8.61235         0.000000      0.000000      0.000000
      8.61235      8.61235      6.88992        -0.000000     -0.000000     -0.000000
 -----------------------------------------------------------------------------------
    total drift:                                0.000000      0.000000      0.000000


--------------------------------------------------------------------------------------------------------



  FREE ENERGIE OF THE ION-ELECTRON SYSTEM (eV)
  ---------------------------------------------------
  free  energy   TOTEN  =      -879.53277754 eV

  energy  without entropy=     -879.57643936  energy(sigma->0) =     -879.54733148
 


--------------------------------------------------------------------------------------------------------


    POTLOK:  cpu time    0.4768: real time    0.4768


--------------------------------------------------------------------------------------------------------




--------------------------------------------------------------------------------------------------------


  
 reached required accuracy - stopping structural energy minimisation
     LOOP+:  cpu time13460.1470: real time13464.4319
    4ORBIT:  cpu time    0.0000: real time    0.0000

 total amount of memory used by VASP MPI-rank0   897097. kBytes
=======================================================================

   base      :      30000. kBytes
   nonlr-proj:      31400. kBytes
   fftplans  :      15433. kBytes
   grid      :      21835. kBytes
   one-center:        419. kBytes
   wavefun   :     798010. kBytes
 
  
  
 General timing and accounting informations for this job:
 ========================================================
  
                  Total CPU time used (sec):    13537.431
                            User time (sec):    13449.366
                          System time (sec):       88.065
                         Elapsed time (sec):    13541.888
  
                   Maximum memory used (kb):     1013100.
                   Average memory used (kb):           0.
  
                          Minor page faults:      1020738
                          Major page faults:            0
                 Voluntary context switches:          800
