<?xml version="1.0" encoding="ISO-8859-1"?>
<modeling>
 <generator>
  <i name="program" type="string">vasp </i>
  <i name="version" type="string">5.4.4.18Apr17-6-g9f103f2a35  </i>
  <i name="subversion" type="string">(build Aug 17 2017 06:00:38) complex            parallel </i>
  <i name="platform" type="string">LinuxIFC </i>
  <i name="date" type="string">2019 07 13 </i>
  <i name="time" type="string">00:55:04 </i>
 </generator>
 <incar>
  <i type="string" name="SYSTEM">Opt</i>
  <i type="int" name="ISTART">     0</i>
  <i type="string" name="PREC">normal</i>
  <i type="string" name="ALGO"> Fast</i>
  <i type="int" name="ISPIN">     1</i>
  <i type="int" name="ICHARG">     2</i>
  <i type="int" name="NELM">   400</i>
  <i type="int" name="IBRION">     2</i>
  <i name="EDIFF">      0.00000100</i>
  <i name="EDIFFG">     -0.01000000</i>
  <i type="int" name="NSW">   100</i>
  <i type="int" name="ISIF">     3</i>
  <i name="ENCUT">    400.00000000</i>
  <i type="int" name="NGX">    72</i>
  <i type="int" name="NGY">    72</i>
  <i type="int" name="NGZ">    72</i>
  <i name="POTIM">      0.50000000</i>
  <i type="string" name="LREAL">Auto</i>
  <i type="logical" name="LWAVE"> F  </i>
  <i type="logical" name="LCHARG"> F  </i>
  <v type="int" name="KPOINT_BSE">    -1     0     0     0</v>
  <i type="int" name="NELM">   400</i>
 </incar>
 <structure name="primitive_cell" >
  <crystal>
   <varray name="basis" >
    <v>       3.44492529       0.00000000       0.00000000 </v>
    <v>       0.00000000       3.44492529       0.00000000 </v>
    <v>       0.00000000       0.00000000       3.44492524 </v>
   </varray>
   <i name="volume">     40.88268566 </i>
   <varray name="rec_basis" >
    <v>       0.29028206       0.00000000       0.00000000 </v>
    <v>       0.00000000       0.29028206       0.00000000 </v>
    <v>       0.00000000       0.00000000       0.29028206 </v>
   </varray>
  </crystal>
  <varray name="positions" >
   <v>       0.00000000       0.00000000       0.00000000 </v>
   <v>       0.00000000      -0.49998976      -0.49998975 </v>
   <v>      -0.49998976       0.00000000      -0.49998975 </v>
   <v>      -0.49998976      -0.49998976       0.00000000 </v>
  </varray>
 </structure>
 <varray name="primitive_index" >
  <v type="int" >        1 </v>
  <v type="int" >        2 </v>
  <v type="int" >        3 </v>
  <v type="int" >        4 </v>
 </varray>
 <kpoints>
  <generation param="Monkhorst-Pack">
   <v type="int" name="divisions">       9        9        9 </v>
   <v name="usershift">      0.00000000       0.00000000       0.00000000 </v>
   <v name="genvec1">      0.11111111       0.00000000       0.00000000 </v>
   <v name="genvec2">      0.00000000       0.11111111       0.00000000 </v>
   <v name="genvec3">      0.00000000       0.00000000       0.11111111 </v>
   <v name="shift">      0.00000000       0.00000000       0.00000000 </v>
  </generation>
  <varray name="kpointlist" >
   <v>       0.00000000       0.00000000       0.00000000 </v>
   <v>       0.11111111       0.00000000       0.00000000 </v>
   <v>       0.22222222       0.00000000       0.00000000 </v>
   <v>       0.33333333       0.00000000       0.00000000 </v>
   <v>       0.44444444       0.00000000       0.00000000 </v>
   <v>       0.11111111       0.11111111       0.00000000 </v>
   <v>       0.22222222       0.11111111       0.00000000 </v>
   <v>       0.33333333       0.11111111       0.00000000 </v>
   <v>       0.44444444       0.11111111       0.00000000 </v>
   <v>       0.22222222       0.22222222       0.00000000 </v>
   <v>       0.33333333       0.22222222       0.00000000 </v>
   <v>       0.44444444       0.22222222       0.00000000 </v>
   <v>       0.33333333       0.33333333       0.00000000 </v>
   <v>       0.44444444       0.33333333       0.00000000 </v>
   <v>       0.44444444       0.44444444       0.00000000 </v>
   <v>       0.11111111       0.11111111       0.11111111 </v>
   <v>       0.22222222       0.11111111       0.11111111 </v>
   <v>       0.33333333       0.11111111       0.11111111 </v>
   <v>       0.44444444       0.11111111       0.11111111 </v>
   <v>       0.22222222       0.22222222       0.11111111 </v>
   <v>       0.33333333       0.22222222       0.11111111 </v>
   <v>       0.44444444       0.22222222       0.11111111 </v>
   <v>       0.33333333       0.33333333       0.11111111 </v>
   <v>       0.44444444       0.33333333       0.11111111 </v>
   <v>       0.44444444       0.44444444       0.11111111 </v>
   <v>       0.22222222       0.22222222       0.22222222 </v>
   <v>       0.33333333       0.22222222       0.22222222 </v>
   <v>       0.44444444       0.22222222       0.22222222 </v>
   <v>       0.33333333       0.33333333       0.22222222 </v>
   <v>       0.44444444       0.33333333       0.22222222 </v>
   <v>       0.44444444       0.44444444       0.22222222 </v>
   <v>       0.33333333       0.33333333       0.33333333 </v>
   <v>       0.44444444       0.33333333       0.33333333 </v>
   <v>       0.44444444       0.44444444       0.33333333 </v>
   <v>       0.44444444       0.44444444       0.44444444 </v>
  </varray>
  <varray name="weights" >
   <v>       0.00137174 </v>
   <v>       0.00823045 </v>
   <v>       0.00823045 </v>
   <v>       0.00823045 </v>
   <v>       0.00823045 </v>
   <v>       0.01646091 </v>
   <v>       0.03292181 </v>
   <v>       0.03292181 </v>
   <v>       0.03292181 </v>
   <v>       0.01646091 </v>
   <v>       0.03292181 </v>
   <v>       0.03292181 </v>
   <v>       0.01646091 </v>
   <v>       0.03292181 </v>
   <v>       0.01646091 </v>
   <v>       0.01097394 </v>
   <v>       0.03292181 </v>
   <v>       0.03292181 </v>
   <v>       0.03292181 </v>
   <v>       0.03292181 </v>
   <v>       0.06584362 </v>
   <v>       0.06584362 </v>
   <v>       0.03292181 </v>
   <v>       0.06584362 </v>
   <v>       0.03292181 </v>
   <v>       0.01097394 </v>
   <v>       0.03292181 </v>
   <v>       0.03292181 </v>
   <v>       0.03292181 </v>
   <v>       0.06584362 </v>
   <v>       0.03292181 </v>
   <v>       0.01097394 </v>
   <v>       0.03292181 </v>
   <v>       0.03292181 </v>
   <v>       0.01097394 </v>
  </varray>
 </kpoints>
 <parameters>
  <separator name="general" >
   <i type="string" name="SYSTEM">Opt</i>
   <i type="logical" name="LCOMPAT"> F  </i>
  </separator>
  <separator name="electronic" >
   <i type="string" name="PREC">normal</i>
   <i name="ENMAX">    400.00000000</i>
   <i name="ENAUG">    511.36800000</i>
   <i name="EDIFF">      0.00000100</i>
   <i type="int" name="IALGO">    68</i>
   <i type="int" name="IWAVPR">    11</i>
   <i type="int" name="NBANDS">   518</i>
   <i name="NELECT">    864.00000000</i>
   <i type="int" name="TURBO">     0</i>
   <i type="int" name="IRESTART">     0</i>
   <i type="int" name="NREBOOT">     0</i>
   <i type="int" name="NMIN">     0</i>
   <i name="EREF">      0.00000000</i>
   <separator name="electronic smearing" >
    <i type="int" name="ISMEAR">     1</i>
    <i name="SIGMA">      0.20000000</i>
    <i name="KSPACING">      0.50000000</i>
    <i type="logical" name="KGAMMA"> T  </i>
   </separator>
   <separator name="electronic projectors" >
    <i type="logical" name="LREAL"> T  </i>
    <v name="ROPT">     -0.00050000</v>
    <i type="int" name="LMAXPAW">  -100</i>
    <i type="int" name="LMAXMIX">     2</i>
    <i type="logical" name="NLSPLINE"> F  </i>
   </separator>
   <separator name="electronic startup" >
    <i type="int" name="ISTART">     0</i>
    <i type="int" name="ICHARG">     2</i>
    <i type="int" name="INIWAV">     1</i>
   </separator>
   <separator name="electronic spin" >
    <i type="int" name="ISPIN">     1</i>
    <i type="logical" name="LNONCOLLINEAR"> F  </i>
    <v name="MAGMOM">      1.00000000      1.00000000      1.00000000      1.00000000      1.00000000      1.00000000      1.00000000      1.00000000      1.00000000      1.00000000      1.00000000      1.00000000      1.00000000      1.00000000      1.00000000      1.00000000      1.00000000      1.00000000      1.00000000      1.00000000
      1.00000000      1.00000000      1.00000000      1.00000000      1.00000000      1.00000000      1.00000000      1.00000000      1.00000000      1.00000000      1.00000000      1.00000000      1.00000000      1.00000000      1.00000000      1.00000000      1.00000000      1.00000000      1.00000000      1.00000000
      1.00000000      1.00000000      1.00000000      1.00000000      1.00000000      1.00000000      1.00000000      1.00000000      1.00000000      1.00000000      1.00000000      1.00000000      1.00000000      1.00000000      1.00000000      1.00000000      1.00000000      1.00000000      1.00000000      1.00000000
      1.00000000      1.00000000      1.00000000      1.00000000      1.00000000      1.00000000      1.00000000      1.00000000      1.00000000      1.00000000      1.00000000      1.00000000      1.00000000      1.00000000      1.00000000      1.00000000      1.00000000      1.00000000      1.00000000      1.00000000
      1.00000000      1.00000000      1.00000000      1.00000000      1.00000000      1.00000000      1.00000000      1.00000000      1.00000000      1.00000000      1.00000000      1.00000000      1.00000000      1.00000000      1.00000000      1.00000000      1.00000000      1.00000000      1.00000000      1.00000000
      1.00000000      1.00000000      1.00000000      1.00000000      1.00000000      1.00000000      1.00000000      1.00000000</v>
    <i name="NUPDOWN">     -1.00000000</i>
    <i type="logical" name="LSORBIT"> F  </i>
    <v name="SAXIS">      0.00000000      0.00000000      1.00000000</v>
    <i type="logical" name="LSPIRAL"> F  </i>
    <v name="QSPIRAL">      0.00000000      0.00000000      0.00000000</v>
    <i type="logical" name="LZEROZ"> F  </i>
   </separator>
   <separator name="electronic exchange-correlation" >
    <i type="logical" name="LASPH"> F  </i>
    <i type="logical" name="LMETAGGA"> F  </i>
   </separator>
   <separator name="electronic convergence" >
    <i type="int" name="NELM">   400</i>
    <i type="int" name="NELMDL">    -5</i>
    <i type="int" name="NELMIN">     2</i>
    <i name="ENINI">    400.00000000</i>
    <separator name="electronic convergence detail" >
     <i type="logical" name="LDIAG"> T  </i>
     <i type="logical" name="LSUBROT"> F  </i>
     <i name="WEIMIN">      0.00100000</i>
     <i name="EBREAK">      0.00000000</i>
     <i name="DEPER">      0.30000000</i>
     <i type="int" name="NRMM">     4</i>
     <i name="TIME">      0.40000000</i>
    </separator>
   </separator>
   <separator name="electronic mixer" >
    <i name="AMIX">      0.40000000</i>
    <i name="BMIX">      1.00000000</i>
    <i name="AMIN">      0.10000000</i>
    <i name="AMIX_MAG">      1.60000000</i>
    <i name="BMIX_MAG">      1.00000000</i>
    <separator name="electronic mixer details" >
     <i type="int" name="IMIX">     4</i>
     <i type="logical" name="MIXFIRST"> F  </i>
     <i type="int" name="MAXMIX">   -45</i>
     <i name="WC">    100.00000000</i>
     <i type="int" name="INIMIX">     1</i>
     <i type="int" name="MIXPRE">     1</i>
     <i type="int" name="MREMOVE">     5</i>
    </separator>
   </separator>
   <separator name="electronic dipolcorrection" >
    <i type="logical" name="LDIPOL"> F  </i>
    <i type="logical" name="LMONO"> F  </i>
    <i type="int" name="IDIPOL">     0</i>
    <i name="EPSILON">      1.00000000</i>
    <v name="DIPOL">   -100.00000000   -100.00000000   -100.00000000</v>
    <i name="EFIELD">      0.00000000</i>
   </separator>
  </separator>
  <separator name="grids" >
   <i type="int" name="NGX">    72</i>
   <i type="int" name="NGY">    72</i>
   <i type="int" name="NGZ">    72</i>
   <i type="int" name="NGXF">   144</i>
   <i type="int" name="NGYF">   144</i>
   <i type="int" name="NGZF">   144</i>
   <i type="logical" name="ADDGRID"> F  </i>
  </separator>
  <separator name="ionic" >
   <i type="int" name="NSW">   100</i>
   <i type="int" name="IBRION">     2</i>
   <i type="int" name="MDALGO">     0</i>
   <i type="int" name="ISIF">     3</i>
   <i name="PSTRESS">      0.00000000</i>
   <i name="EDIFFG">     -0.01000000</i>
   <i type="int" name="NFREE">     1</i>
   <i name="POTIM">      0.50000000</i>
   <i name="SMASS">     -3.00000000</i>
   <i name="SCALEE">      1.00000000</i>
  </separator>
  <separator name="ionic md" >
   <i name="TEBEG">      0.00010000</i>
   <i name="TEEND">      0.00010000</i>
   <i type="int" name="NBLOCK">     1</i>
   <i type="int" name="KBLOCK">   100</i>
   <i type="int" name="NPACO">   256</i>
   <i name="APACO">     16.00000000</i>
  </separator>
  <separator name="symmetry" >
   <i type="int" name="ISYM">     2</i>
   <i name="SYMPREC">      0.00001000</i>
  </separator>
  <separator name="dos" >
   <i type="int" name="LORBIT">     0</i>
   <v name="RWIGS">     -1.00000000</v>
   <i type="int" name="NEDOS">   301</i>
   <i name="EMIN">     10.00000000</i>
   <i name="EMAX">    -10.00000000</i>
   <i name="EFERMI">      0.00000000</i>
  </separator>
  <separator name="writing" >
   <i type="int" name="NWRITE">     2</i>
   <i type="logical" name="LWAVE"> F  </i>
   <i type="logical" name="LDOWNSAMPLE"> F  </i>
   <i type="logical" name="LCHARG"> F  </i>
   <i type="logical" name="LPARD"> F  </i>
   <i type="logical" name="LVTOT"> F  </i>
   <i type="logical" name="LVHAR"> F  </i>
   <i type="logical" name="LELF"> F  </i>
   <i type="logical" name="LOPTICS"> F  </i>
   <v name="STM">      0.00000000      0.00000000      0.00000000      0.00000000      0.00000000      0.00000000      0.00000000</v>
  </separator>
  <separator name="performance" >
   <i type="int" name="NPAR">     2</i>
   <i type="int" name="NSIM">     4</i>
   <i type="int" name="NBLK">    -1</i>
   <i type="logical" name="LPLANE"> T  </i>
   <i type="logical" name="LSCALAPACK"> T  </i>
   <i type="logical" name="LSCAAWARE"> F  </i>
   <i type="logical" name="LSCALU"> F  </i>
   <i type="logical" name="LASYNC"> F  </i>
   <i type="logical" name="LORBITALREAL"> F  </i>
  </separator>
  <separator name="miscellaneous" >
   <i type="int" name="IDIOT">     3</i>
   <i type="int" name="ISPECIAL">     0</i>
   <i type="logical" name="LMUSIC"> F  </i>
   <v name="POMASS">     55.84700000</v>
   <v name="DARWINR">      0.00000000</v>
   <v name="DARWINV">      1.00000000</v>
   <i type="logical" name="LCORR"> T  </i>
  </separator>
  <i type="logical" name="GGA_COMPAT"> T  </i>
  <i type="logical" name="LBERRY"> F  </i>
  <i type="int" name="ICORELEVEL">     0</i>
  <i type="logical" name="LDAU"> F  </i>
  <i type="int" name="I_CONSTRAINED_M">     0</i>
  <separator name="electronic exchange-correlation" >
   <i type="string" name="GGA">--</i>
   <i type="int" name="VOSKOWN">     0</i>
   <i type="logical" name="LHFCALC"> F  </i>
   <i type="string" name="PRECFOCK"></i>
   <i type="logical" name="LSYMGRAD"> F  </i>
   <i type="logical" name="LHFONE"> F  </i>
   <i type="logical" name="LRHFCALC"> F  </i>
   <i type="logical" name="LTHOMAS"> F  </i>
   <i type="logical" name="LMODELHF"> F  </i>
   <i name="ENCUT4O">     -1.00000000</i>
   <i type="int" name="EXXOEP">     0</i>
   <i type="int" name="FOURORBIT">     0</i>
   <i name="AEXX">      0.00000000</i>
   <i name="HFALPHA">      0.00000000</i>
   <i name="MCALPHA">      0.00000000</i>
   <i name="ALDAX">      1.00000000</i>
   <i name="AGGAX">      1.00000000</i>
   <i name="ALDAC">      1.00000000</i>
   <i name="AGGAC">      1.00000000</i>
   <i type="int" name="NKREDX">     1</i>
   <i type="int" name="NKREDY">     1</i>
   <i type="int" name="NKREDZ">     1</i>
   <i type="logical" name="SHIFTRED"> F  </i>
   <i type="logical" name="ODDONLY"> F  </i>
   <i type="logical" name="EVENONLY"> F  </i>
   <i type="int" name="LMAXFOCK">     0</i>
   <i type="int" name="NMAXFOCKAE">     0</i>
   <i type="logical" name="LFOCKAEDFT"> F  </i>
   <i name="HFSCREEN">      0.00000000</i>
   <i name="HFSCREENC">      0.00000000</i>
   <i type="int" name="NBANDSGWLOW">     0</i>
  </separator>
  <separator name="vdW DFT" >
   <i type="logical" name="LUSE_VDW"> F  </i>
   <i name="Zab_VDW">     -0.84910000</i>
   <i name="PARAM1">      0.12340000</i>
   <i name="PARAM2">      1.00000000</i>
   <i name="PARAM3">      0.00000000</i>
  </separator>
  <separator name="model GW" >
   <i type="int" name="MODEL_GW">     0</i>
   <i name="MODEL_EPS0">      6.13252964</i>
   <i name="MODEL_ALPHA">      1.00000000</i>
  </separator>
  <separator name="linear response parameters" >
   <i type="logical" name="LEPSILON"> F  </i>
   <i type="logical" name="LRPA"> F  </i>
   <i type="logical" name="LNABLA"> F  </i>
   <i type="logical" name="LVEL"> F  </i>
   <i type="int" name="KINTER">     0</i>
   <i name="CSHIFT">      0.10000000</i>
   <i name="OMEGAMAX">     -1.00000000</i>
   <i name="DEG_THRESHOLD">      0.00200000</i>
   <i name="RTIME">     -0.10000000</i>
   <i name="WPLASMAI">      0.00000000</i>
   <v name="DFIELD">      0.00000000      0.00000000      0.00000000</v>
   <v name="WPLASMA">      0.00000000      0.00000000      0.00000000      0.00000000      0.00000000      0.00000000      0.00000000      0.00000000      0.00000000</v>
  </separator>
  <separator name="orbital magnetization" >
   <i type="logical" name="NUCIND"> F  </i>
   <v name="MAGPOS">      0.00000000      0.00000000      0.00000000</v>
   <i type="logical" name="LNICSALL"> T  </i>
   <i type="logical" name="ORBITALMAG"> F  </i>
   <i type="logical" name="LMAGBLOCH"> F  </i>
   <i type="logical" name="LCHIMAG"> F  </i>
   <i type="logical" name="LGAUGE"> T  </i>
   <i type="int" name="MAGATOM">     0</i>
   <v name="MAGDIPOL">      0.00000000      0.00000000      0.00000000</v>
   <v name="AVECCONST">      0.00000000      0.00000000      0.00000000</v>
  </separator>
  <separator name="response functions" >
   <i type="logical" name="LADDER"> F  </i>
   <i type="logical" name="LRPAFORCE"> F  </i>
   <i type="logical" name="LFXC"> F  </i>
   <i type="logical" name="LHARTREE"> T  </i>
   <i type="int" name="IBSE">     0</i>
   <v type="int" name="KPOINT">    -1     0     0     0</v>
   <i type="logical" name="LTCTE"> F  </i>
   <i type="logical" name="LTETE"> F  </i>
   <i type="logical" name="LTRIPLET"> F  </i>
   <i type="logical" name="LFXCEPS"> F  </i>
   <i type="logical" name="LFXHEG"> F  </i>
   <i type="int" name="NATURALO">     2</i>
   <i type="logical" name="L2ORDER"> F  </i>
   <i type="logical" name="LMP2LT"> F  </i>
   <i type="logical" name="LUSEW"> F  </i>
   <i name="ENCUTGW">     -2.00000000</i>
   <i name="ENCUTGWSOFT">     -2.00000000</i>
   <i name="ENCUTLF">     -1.00000000</i>
   <i type="int" name="LMAXMP2">    -1</i>
   <i name="SCISSOR">      0.00000000</i>
   <i type="int" name="NOMEGA">     0</i>
   <i type="int" name="NOMEGAR">     0</i>
   <i type="int" name="NBANDSGW">    -1</i>
   <i type="int" name="NBANDSO">    -1</i>
   <i type="int" name="NBANDSV">    -1</i>
   <i type="int" name="NELM">   400</i>
   <i type="int" name="NELMHF">     1</i>
   <i type="int" name="DIM">     3</i>
   <i type="int" name="ANTIRES">     0</i>
   <i name="OMEGAMAX">    -30.00000000</i>
   <i name="OMEGAMIN">    -30.00000000</i>
   <i name="OMEGATL">   -200.00000000</i>
   <i type="int" name="OMEGAGRID">   140</i>
   <i name="CSHIFT">     -0.10000000</i>
   <i type="logical" name="SELFENERGY"> F  </i>
   <i type="logical" name="LSPECTRAL"> F  </i>
   <i type="logical" name="LSPECTRALGW"> F  </i>
   <i type="logical" name="LSINGLES"> F  </i>
   <i type="logical" name="LFERMIGW"> F  </i>
   <i type="logical" name="ODDONLYGW"> F  </i>
   <i type="logical" name="EVENONLYGW"> F  </i>
   <i type="int" name="NKREDLFX">     1</i>
   <i type="int" name="NKREDLFY">     1</i>
   <i type="int" name="NKREDLFZ">     1</i>
   <i type="int" name="MAXMEM">  2800</i>
   <i type="int" name="TELESCOPE">     0</i>
   <i type="int" name="TAUPAR">     1</i>
   <i type="int" name="OMEGAPAR">    -1</i>
   <i name="LAMBDA">      1.00000000</i>
  </separator>
  <separator name="External order field" >
   <i name="OFIELD_KAPPA">      0.00000000</i>
   <v name="OFIELD_K">      0.00000000      0.00000000      0.00000000</v>
   <i name="OFIELD_Q6_NEAR">      0.00000000</i>
   <i name="OFIELD_Q6_FAR">      0.00000000</i>
   <i name="OFIELD_A">      0.00000000</i>
  </separator>
 </parameters>
 <atominfo>
  <atoms>     108 </atoms>
  <types>       1 </types>
  <array name="atoms" >
   <dimension dim="1">ion</dimension>
   <field type="string">element</field>
   <field type="int">atomtype</field>
   <set>
    <rc><c>Fe</c><c>   1</c></rc>
    <rc><c>Fe</c><c>   1</c></rc>
    <rc><c>Fe</c><c>   1</c></rc>
    <rc><c>Fe</c><c>   1</c></rc>
    <rc><c>Fe</c><c>   1</c></rc>
    <rc><c>Fe</c><c>   1</c></rc>
    <rc><c>Fe</c><c>   1</c></rc>
    <rc><c>Fe</c><c>   1</c></rc>
    <rc><c>Fe</c><c>   1</c></rc>
    <rc><c>Fe</c><c>   1</c></rc>
    <rc><c>Fe</c><c>   1</c></rc>
    <rc><c>Fe</c><c>   1</c></rc>
    <rc><c>Fe</c><c>   1</c></rc>
    <rc><c>Fe</c><c>   1</c></rc>
    <rc><c>Fe</c><c>   1</c></rc>
    <rc><c>Fe</c><c>   1</c></rc>
    <rc><c>Fe</c><c>   1</c></rc>
    <rc><c>Fe</c><c>   1</c></rc>
    <rc><c>Fe</c><c>   1</c></rc>
    <rc><c>Fe</c><c>   1</c></rc>
    <rc><c>Fe</c><c>   1</c></rc>
    <rc><c>Fe</c><c>   1</c></rc>
    <rc><c>Fe</c><c>   1</c></rc>
    <rc><c>Fe</c><c>   1</c></rc>
    <rc><c>Fe</c><c>   1</c></rc>
    <rc><c>Fe</c><c>   1</c></rc>
    <rc><c>Fe</c><c>   1</c></rc>
    <rc><c>Fe</c><c>   1</c></rc>
    <rc><c>Fe</c><c>   1</c></rc>
    <rc><c>Fe</c><c>   1</c></rc>
    <rc><c>Fe</c><c>   1</c></rc>
    <rc><c>Fe</c><c>   1</c></rc>
    <rc><c>Fe</c><c>   1</c></rc>
    <rc><c>Fe</c><c>   1</c></rc>
    <rc><c>Fe</c><c>   1</c></rc>
    <rc><c>Fe</c><c>   1</c></rc>
    <rc><c>Fe</c><c>   1</c></rc>
    <rc><c>Fe</c><c>   1</c></rc>
    <rc><c>Fe</c><c>   1</c></rc>
    <rc><c>Fe</c><c>   1</c></rc>
    <rc><c>Fe</c><c>   1</c></rc>
    <rc><c>Fe</c><c>   1</c></rc>
    <rc><c>Fe</c><c>   1</c></rc>
    <rc><c>Fe</c><c>   1</c></rc>
    <rc><c>Fe</c><c>   1</c></rc>
    <rc><c>Fe</c><c>   1</c></rc>
    <rc><c>Fe</c><c>   1</c></rc>
    <rc><c>Fe</c><c>   1</c></rc>
    <rc><c>Fe</c><c>   1</c></rc>
    <rc><c>Fe</c><c>   1</c></rc>
    <rc><c>Fe</c><c>   1</c></rc>
    <rc><c>Fe</c><c>   1</c></rc>
    <rc><c>Fe</c><c>   1</c></rc>
    <rc><c>Fe</c><c>   1</c></rc>
    <rc><c>Fe</c><c>   1</c></rc>
    <rc><c>Fe</c><c>   1</c></rc>
    <rc><c>Fe</c><c>   1</c></rc>
    <rc><c>Fe</c><c>   1</c></rc>
    <rc><c>Fe</c><c>   1</c></rc>
    <rc><c>Fe</c><c>   1</c></rc>
    <rc><c>Fe</c><c>   1</c></rc>
    <rc><c>Fe</c><c>   1</c></rc>
    <rc><c>Fe</c><c>   1</c></rc>
    <rc><c>Fe</c><c>   1</c></rc>
    <rc><c>Fe</c><c>   1</c></rc>
    <rc><c>Fe</c><c>   1</c></rc>
    <rc><c>Fe</c><c>   1</c></rc>
    <rc><c>Fe</c><c>   1</c></rc>
    <rc><c>Fe</c><c>   1</c></rc>
    <rc><c>Fe</c><c>   1</c></rc>
    <rc><c>Fe</c><c>   1</c></rc>
    <rc><c>Fe</c><c>   1</c></rc>
    <rc><c>Fe</c><c>   1</c></rc>
    <rc><c>Fe</c><c>   1</c></rc>
    <rc><c>Fe</c><c>   1</c></rc>
    <rc><c>Fe</c><c>   1</c></rc>
    <rc><c>Fe</c><c>   1</c></rc>
    <rc><c>Fe</c><c>   1</c></rc>
    <rc><c>Fe</c><c>   1</c></rc>
    <rc><c>Fe</c><c>   1</c></rc>
    <rc><c>Fe</c><c>   1</c></rc>
    <rc><c>Fe</c><c>   1</c></rc>
    <rc><c>Fe</c><c>   1</c></rc>
    <rc><c>Fe</c><c>   1</c></rc>
    <rc><c>Fe</c><c>   1</c></rc>
    <rc><c>Fe</c><c>   1</c></rc>
    <rc><c>Fe</c><c>   1</c></rc>
    <rc><c>Fe</c><c>   1</c></rc>
    <rc><c>Fe</c><c>   1</c></rc>
    <rc><c>Fe</c><c>   1</c></rc>
    <rc><c>Fe</c><c>   1</c></rc>
    <rc><c>Fe</c><c>   1</c></rc>
    <rc><c>Fe</c><c>   1</c></rc>
    <rc><c>Fe</c><c>   1</c></rc>
    <rc><c>Fe</c><c>   1</c></rc>
    <rc><c>Fe</c><c>   1</c></rc>
    <rc><c>Fe</c><c>   1</c></rc>
    <rc><c>Fe</c><c>   1</c></rc>
    <rc><c>Fe</c><c>   1</c></rc>
    <rc><c>Fe</c><c>   1</c></rc>
    <rc><c>Fe</c><c>   1</c></rc>
    <rc><c>Fe</c><c>   1</c></rc>
    <rc><c>Fe</c><c>   1</c></rc>
    <rc><c>Fe</c><c>   1</c></rc>
    <rc><c>Fe</c><c>   1</c></rc>
    <rc><c>Fe</c><c>   1</c></rc>
    <rc><c>Fe</c><c>   1</c></rc>
    <rc><c>Fe</c><c>   1</c></rc>
   </set>
  </array>
  <array name="atomtypes" >
   <dimension dim="1">type</dimension>
   <field type="int">atomspertype</field>
   <field type="string">element</field>
   <field>mass</field>
   <field>valence</field>
   <field type="string">pseudopotential</field>
   <set>
    <rc><c> 108</c><c>Fe</c><c>     55.84700000</c><c>      8.00000000</c><c> PAW_PBE Fe 06Sep2000                   </c></rc>
   </set>
  </array>
 </atominfo>
 <structure name="initialpos" >
  <crystal>
   <varray name="basis" >
    <v>      10.33484705       0.00000000       0.00000000 </v>
    <v>       0.00000000      10.33484705       0.00000000 </v>
    <v>       0.00000000       0.00000000      10.33484705 </v>
   </varray>
   <i name="volume">   1103.85533447 </i>
   <varray name="rec_basis" >
    <v>       0.09676002       0.00000000       0.00000000 </v>
    <v>       0.00000000       0.09676002       0.00000000 </v>
    <v>       0.00000000       0.00000000       0.09676002 </v>
   </varray>
  </crystal>
  <varray name="positions" >
   <v>       0.00000000       0.00000000       0.00000000 </v>
   <v>       0.00000000       0.16666893       0.16666893 </v>
   <v>       0.16666893       0.00000000       0.16666893 </v>
   <v>       0.16666893       0.16666893       0.00000000 </v>
   <v>       0.33333106       0.00000000       0.00000000 </v>
   <v>       0.33333107       0.16666893       0.16666893 </v>
   <v>       0.50000000       0.00000000       0.16666894 </v>
   <v>       0.50000000       0.16666894       0.00000000 </v>
   <v>       0.66666897       0.00000000       0.00000000 </v>
   <v>       0.66666896       0.16666893       0.16666893 </v>
   <v>       0.83333104       0.00000000       0.16666893 </v>
   <v>       0.83333104       0.16666893       0.00000000 </v>
   <v>       0.00000000       0.33333106       0.00000000 </v>
   <v>       0.00000000       0.50000000       0.16666894 </v>
   <v>       0.16666893       0.33333107       0.16666893 </v>
   <v>       0.16666894       0.50000000       0.00000000 </v>
   <v>       0.33333107       0.33333107       0.00000000 </v>
   <v>       0.33333107       0.50000000       0.16666893 </v>
   <v>       0.50000000       0.33333107       0.16666893 </v>
   <v>       0.50000000       0.50000000       0.00000000 </v>
   <v>       0.66666896       0.33333107       0.00000000 </v>
   <v>       0.66666896       0.50000000       0.16666893 </v>
   <v>       0.83333104       0.33333107       0.16666893 </v>
   <v>       0.83333103       0.50000000       0.00000000 </v>
   <v>       0.00000000       0.66666897       0.00000000 </v>
   <v>       0.00000000       0.83333104       0.16666893 </v>
   <v>       0.16666893       0.66666896       0.16666893 </v>
   <v>       0.16666893       0.83333104       0.00000000 </v>
   <v>       0.33333107       0.66666896       0.00000000 </v>
   <v>       0.33333107       0.83333104       0.16666893 </v>
   <v>       0.50000000       0.66666896       0.16666893 </v>
   <v>       0.50000000       0.83333103       0.00000000 </v>
   <v>       0.66666896       0.66666896       0.00000000 </v>
   <v>       0.66666896       0.83333104       0.16666893 </v>
   <v>       0.83333104       0.66666896       0.16666893 </v>
   <v>       0.83333104       0.83333104       0.00000000 </v>
   <v>       0.00000000       0.00000000       0.33333106 </v>
   <v>       0.00000000       0.16666894       0.50000000 </v>
   <v>       0.16666894       0.00000000       0.50000000 </v>
   <v>       0.16666893       0.16666893       0.33333107 </v>
   <v>       0.33333107       0.00000000       0.33333107 </v>
   <v>       0.33333107       0.16666893       0.50000000 </v>
   <v>       0.50000000       0.00000000       0.50000000 </v>
   <v>       0.50000000       0.16666893       0.33333107 </v>
   <v>       0.66666896       0.00000000       0.33333107 </v>
   <v>       0.66666896       0.16666893       0.50000000 </v>
   <v>       0.83333103       0.00000000       0.50000000 </v>
   <v>       0.83333104       0.16666893       0.33333107 </v>
   <v>       0.00000000       0.33333107       0.33333107 </v>
   <v>       0.00000000       0.50000000       0.50000000 </v>
   <v>       0.16666893       0.33333107       0.50000000 </v>
   <v>       0.16666893       0.50000000       0.33333107 </v>
   <v>       0.33333107       0.33333107       0.33333107 </v>
   <v>       0.33333106       0.50000000       0.50000000 </v>
   <v>       0.50000000       0.33333106       0.50000000 </v>
   <v>       0.50000000       0.50000000       0.33333106 </v>
   <v>       0.66666896       0.33333107       0.33333107 </v>
   <v>       0.66666897       0.50000000       0.50000000 </v>
   <v>       0.83333104       0.33333107       0.50000000 </v>
   <v>       0.83333104       0.50000000       0.33333107 </v>
   <v>       0.00000000       0.66666896       0.33333107 </v>
   <v>       0.00000000       0.83333103       0.50000000 </v>
   <v>       0.16666893       0.66666896       0.50000000 </v>
   <v>       0.16666893       0.83333104       0.33333107 </v>
   <v>       0.33333107       0.66666896       0.33333107 </v>
   <v>       0.33333107       0.83333104       0.50000000 </v>
   <v>       0.50000000       0.66666897       0.50000000 </v>
   <v>       0.50000000       0.83333104       0.33333107 </v>
   <v>       0.66666896       0.66666896       0.33333107 </v>
   <v>       0.66666896       0.83333104       0.50000000 </v>
   <v>       0.83333104       0.66666896       0.50000000 </v>
   <v>       0.83333104       0.83333104       0.33333107 </v>
   <v>       0.00000000       0.00000000       0.66666897 </v>
   <v>       0.00000000       0.16666893       0.83333104 </v>
   <v>       0.16666893       0.00000000       0.83333104 </v>
   <v>       0.16666893       0.16666893       0.66666896 </v>
   <v>       0.33333107       0.00000000       0.66666896 </v>
   <v>       0.33333107       0.16666893       0.83333104 </v>
   <v>       0.50000000       0.00000000       0.83333103 </v>
   <v>       0.50000000       0.16666893       0.66666896 </v>
   <v>       0.66666896       0.00000000       0.66666896 </v>
   <v>       0.66666896       0.16666893       0.83333104 </v>
   <v>       0.83333104       0.00000000       0.83333104 </v>
   <v>       0.83333104       0.16666893       0.66666896 </v>
   <v>       0.00000000       0.33333107       0.66666896 </v>
   <v>       0.00000000       0.50000000       0.83333103 </v>
   <v>       0.16666893       0.33333107       0.83333104 </v>
   <v>       0.16666893       0.50000000       0.66666896 </v>
   <v>       0.33333107       0.33333107       0.66666896 </v>
   <v>       0.33333107       0.50000000       0.83333104 </v>
   <v>       0.50000000       0.33333107       0.83333104 </v>
   <v>       0.50000000       0.50000000       0.66666897 </v>
   <v>       0.66666896       0.33333107       0.66666896 </v>
   <v>       0.66666896       0.50000000       0.83333104 </v>
   <v>       0.83333104       0.33333107       0.83333104 </v>
   <v>       0.83333104       0.50000000       0.66666896 </v>
   <v>       0.00000000       0.66666896       0.66666896 </v>
   <v>       0.00000000       0.83333104       0.83333104 </v>
   <v>       0.16666893       0.66666896       0.83333104 </v>
   <v>       0.16666893       0.83333104       0.66666896 </v>
   <v>       0.33333107       0.66666896       0.66666896 </v>
   <v>       0.33333107       0.83333104       0.83333104 </v>
   <v>       0.50000000       0.66666896       0.83333104 </v>
   <v>       0.50000000       0.83333104       0.66666896 </v>
   <v>       0.66666896       0.66666896       0.66666896 </v>
   <v>       0.66666896       0.83333104       0.83333104 </v>
   <v>       0.83333104       0.66666896       0.83333104 </v>
   <v>       0.83333104       0.83333104       0.66666896 </v>
  </varray>
 </structure>
 <calculation>
  <scstep>
   <time name="dav">  464.46  464.66</time>
   <time name="total">  464.89  465.10</time>
   <energy>
    <i name="alphaZ">   7300.31925852 </i>
    <i name="ewald"> -66232.83996889 </i>
    <i name="hartreedc"> -11197.02572337 </i>
    <i name="XCdc">    446.63038354 </i>
    <i name="pawpsdc">  51723.88885462 </i>
    <i name="pawaedc"> -52548.28121372 </i>
    <i name="eentropy">      0.00427007 </i>
    <i name="bandstr">  13904.25755421 </i>
    <i name="atom">  64201.67088057 </i>
    <i name="e_fr_energy">   7598.62429557 </i>
    <i name="e_wo_entrp">   7598.62002549 </i>
    <i name="e_0_energy">   7598.62287221 </i>
   </energy>
  </scstep>
  <scstep>
   <time name="dav">  420.47  420.66</time>
   <time name="total">  420.52  420.71</time>
   <energy>
    <i name="e_fr_energy">    -23.12788718 </i>
    <i name="e_wo_entrp">    -23.13812076 </i>
    <i name="e_0_energy">    -23.13129837 </i>
   </energy>
  </scstep>
  <scstep>
   <time name="dav">  369.88  370.01</time>
   <time name="total">  369.94  370.07</time>
   <energy>
    <i name="e_fr_energy">   -850.62193061 </i>
    <i name="e_wo_entrp">   -850.62930727 </i>
    <i name="e_0_energy">   -850.62438950 </i>
   </energy>
  </scstep>
  <scstep>
   <time name="dav">  585.63  585.91</time>
   <time name="total">  585.69  585.97</time>
   <energy>
    <i name="e_fr_energy">  -1029.88606033 </i>
    <i name="e_wo_entrp">  -1029.94962353 </i>
    <i name="e_0_energy">  -1029.90724806 </i>
   </energy>
  </scstep>
  <scstep>
   <time name="dav">  538.72  538.97</time>
   <time name="total">  554.72  554.97</time>
   <energy>
    <i name="e_fr_energy">  -1045.08978859 </i>
    <i name="e_wo_entrp">  -1045.18482000 </i>
    <i name="e_0_energy">  -1045.12146573 </i>
   </energy>
  </scstep>
  <scstep>
   <time name="diag">   41.80   41.83</time>
   <time name="diis">  207.48  207.56</time>
   <time name="orth">    9.52    9.52</time>
   <time name="total">  275.18  275.29</time>
   <energy>
    <i name="e_fr_energy">   -877.46241841 </i>
    <i name="e_wo_entrp">   -877.49489757 </i>
    <i name="e_0_energy">   -877.47324480 </i>
   </energy>
  </scstep>
  <scstep>
   <time name="diag">   44.68   44.69</time>
   <time name="diis">  226.14  226.21</time>
   <time name="orth">    9.84    9.85</time>
   <time name="total">  297.15  297.24</time>
   <energy>
    <i name="e_fr_energy">   -880.27880981 </i>
    <i name="e_wo_entrp">   -880.30988450 </i>
    <i name="e_0_energy">   -880.28916804 </i>
   </energy>
  </scstep>
  <scstep>
   <time name="diag">   44.65   44.67</time>
   <time name="diis">  217.53  217.62</time>
   <time name="orth">    9.24    9.24</time>
   <time name="total">  287.10  287.20</time>
   <energy>
    <i name="e_fr_energy">   -879.74399450 </i>
    <i name="e_wo_entrp">   -879.76103274 </i>
    <i name="e_0_energy">   -879.74967391 </i>
   </energy>
  </scstep>
  <scstep>
   <time name="diag">   44.04   44.07</time>
   <time name="diis">  254.29  254.37</time>
   <time name="orth">    9.07    9.07</time>
   <time name="total">  322.93  323.05</time>
   <energy>
    <i name="e_fr_energy">   -879.66388946 </i>
    <i name="e_wo_entrp">   -879.69825200 </i>
    <i name="e_0_energy">   -879.67534364 </i>
   </energy>
  </scstep>
  <scstep>
   <time name="diag">   39.92   39.92</time>
   <time name="diis">  251.05  251.05</time>
   <time name="orth">    8.34    8.34</time>
   <time name="total">  314.03  314.03</time>
   <energy>
    <i name="e_fr_energy">   -879.52389799 </i>
    <i name="e_wo_entrp">   -879.56025556 </i>
    <i name="e_0_energy">   -879.53601718 </i>
   </energy>
  </scstep>
  <scstep>
   <time name="diag">   39.41   39.41</time>
   <time name="diis">  257.44  257.44</time>
   <time name="orth">    8.20    8.20</time>
   <time name="total">  319.57  319.57</time>
   <energy>
    <i name="e_fr_energy">   -879.53679150 </i>
    <i name="e_wo_entrp">   -879.57447920 </i>
    <i name="e_0_energy">   -879.54935407 </i>
   </energy>
  </scstep>
  <scstep>
   <time name="diag">   38.93   38.93</time>
   <time name="diis">  207.17  207.17</time>
   <time name="orth">   10.12   10.12</time>
   <time name="total">  272.11  272.12</time>
   <energy>
    <i name="e_fr_energy">   -879.53253634 </i>
    <i name="e_wo_entrp">   -879.57160255 </i>
    <i name="e_0_energy">   -879.54555841 </i>
   </energy>
  </scstep>
  <scstep>
   <time name="diag">   43.80   43.83</time>
   <time name="diis">  286.81  286.96</time>
   <time name="orth">    9.94    9.94</time>
   <time name="total">  356.03  356.22</time>
   <energy>
    <i name="e_fr_energy">   -879.53303455 </i>
    <i name="e_wo_entrp">   -879.57291363 </i>
    <i name="e_0_energy">   -879.54632757 </i>
   </energy>
  </scstep>
  <scstep>
   <time name="diag">   42.63   42.68</time>
   <time name="diis">  234.56  234.70</time>
   <time name="orth">    9.89    9.89</time>
   <time name="total">  302.84  303.04</time>
   <energy>
    <i name="e_fr_energy">   -879.53300977 </i>
    <i name="e_wo_entrp">   -879.57331759 </i>
    <i name="e_0_energy">   -879.54644571 </i>
   </energy>
  </scstep>
  <scstep>
   <time name="diag">   43.77   43.80</time>
   <time name="diis">  292.65  292.75</time>
   <time name="orth">   10.58   10.59</time>
   <time name="total">  367.03  367.17</time>
   <energy>
    <i name="e_fr_energy">   -879.53300830 </i>
    <i name="e_wo_entrp">   -879.57374084 </i>
    <i name="e_0_energy">   -879.54658581 </i>
   </energy>
  </scstep>
  <scstep>
   <time name="diag">   50.64   50.65</time>
   <time name="diis">  264.02  264.07</time>
   <time name="orth">   10.24   10.24</time>
   <time name="total">  344.00  344.05</time>
   <energy>
    <i name="e_fr_energy">   -879.53298296 </i>
    <i name="e_wo_entrp">   -879.57405702 </i>
    <i name="e_0_energy">   -879.54667432 </i>
   </energy>
  </scstep>
  <scstep>
   <time name="diag">   55.18   55.20</time>
   <time name="diis">  190.81  190.86</time>
   <time name="orth">   10.32   10.32</time>
   <time name="total">  277.12  277.19</time>
   <energy>
    <i name="e_fr_energy">   -879.53295217 </i>
    <i name="e_wo_entrp">   -879.57432773 </i>
    <i name="e_0_energy">   -879.54674402 </i>
   </energy>
  </scstep>
  <scstep>
   <time name="diag">   56.27   56.27</time>
   <time name="diis">  180.80  180.84</time>
   <time name="orth">   10.56   10.56</time>
   <time name="total">  268.73  268.77</time>
   <energy>
    <i name="e_fr_energy">   -879.53293115 </i>
    <i name="e_wo_entrp">   -879.57456053 </i>
    <i name="e_0_energy">   -879.54680761 </i>
   </energy>
  </scstep>
  <scstep>
   <time name="diag">   55.01   55.01</time>
   <time name="diis">  175.29  175.32</time>
   <time name="orth">   10.65   10.65</time>
   <time name="total">  262.02  262.06</time>
   <energy>
    <i name="e_fr_energy">   -879.53291243 </i>
    <i name="e_wo_entrp">   -879.57477822 </i>
    <i name="e_0_energy">   -879.54686769 </i>
   </energy>
  </scstep>
  <scstep>
   <time name="diag">   54.83   54.84</time>
   <time name="diis">  172.11  172.14</time>
   <time name="orth">   10.71   10.71</time>
   <time name="total">  258.82  258.86</time>
   <energy>
    <i name="e_fr_energy">   -879.53289704 </i>
    <i name="e_wo_entrp">   -879.57495793 </i>
    <i name="e_0_energy">   -879.54691734 </i>
   </energy>
  </scstep>
  <scstep>
   <time name="diag">   53.98   53.98</time>
   <time name="diis">  174.43  174.46</time>
   <time name="orth">   10.67   10.67</time>
   <time name="total">  258.61  258.66</time>
   <energy>
    <i name="e_fr_energy">   -879.53288430 </i>
    <i name="e_wo_entrp">   -879.57511026 </i>
    <i name="e_0_energy">   -879.54695962 </i>
   </energy>
  </scstep>
  <scstep>
   <time name="diag">   52.82   52.83</time>
   <time name="diis">  172.63  172.70</time>
   <time name="orth">   10.51   10.51</time>
   <time name="total">  254.36  254.46</time>
   <energy>
    <i name="e_fr_energy">   -879.53287309 </i>
    <i name="e_wo_entrp">   -879.57524602 </i>
    <i name="e_0_energy">   -879.54699740 </i>
   </energy>
  </scstep>
  <scstep>
   <time name="diag">   50.88   50.89</time>
   <time name="diis">  141.40  141.42</time>
   <time name="orth">   10.66   10.66</time>
   <time name="total">  224.26  224.30</time>
   <energy>
    <i name="e_fr_energy">   -879.53286209 </i>
    <i name="e_wo_entrp">   -879.57537774 </i>
    <i name="e_0_energy">   -879.54703397 </i>
   </energy>
  </scstep>
  <scstep>
   <time name="diag">   55.29   55.30</time>
   <time name="diis">  147.99  148.01</time>
   <time name="orth">   10.71   10.73</time>
   <time name="total">  237.38  237.43</time>
   <energy>
    <i name="e_fr_energy">   -879.53285372 </i>
    <i name="e_wo_entrp">   -879.57548144 </i>
    <i name="e_0_energy">   -879.54706296 </i>
   </energy>
  </scstep>
  <scstep>
   <time name="diag">   58.89   58.91</time>
   <time name="diis">  155.39  155.41</time>
   <time name="orth">   10.22   10.22</time>
   <time name="total">  245.12  245.17</time>
   <energy>
    <i name="e_fr_energy">   -879.53284502 </i>
    <i name="e_wo_entrp">   -879.57558725 </i>
    <i name="e_0_energy">   -879.54709243 </i>
   </energy>
  </scstep>
  <scstep>
   <time name="diag">   56.88   56.88</time>
   <time name="diis">  147.63  147.65</time>
   <time name="orth">   10.12   10.12</time>
   <time name="total">  233.98  234.02</time>
   <energy>
    <i name="e_fr_energy">   -879.53283631 </i>
    <i name="e_wo_entrp">   -879.57569197 </i>
    <i name="e_0_energy">   -879.54712153 </i>
   </energy>
  </scstep>
  <scstep>
   <time name="diag">   55.08   55.08</time>
   <time name="diis">  144.56  144.59</time>
   <time name="orth">   10.43   10.45</time>
   <time name="total">  231.90  231.96</time>
   <energy>
    <i name="e_fr_energy">   -879.53282946 </i>
    <i name="e_wo_entrp">   -879.57577599 </i>
    <i name="e_0_energy">   -879.54714497 </i>
   </energy>
  </scstep>
  <scstep>
   <time name="diag">   52.78   52.78</time>
   <time name="diis">  131.56  131.59</time>
   <time name="orth">   10.47   10.47</time>
   <time name="total">  216.85  216.89</time>
   <energy>
    <i name="e_fr_energy">   -879.53282378 </i>
    <i name="e_wo_entrp">   -879.57584725 </i>
    <i name="e_0_energy">   -879.54716494 </i>
   </energy>
  </scstep>
  <scstep>
   <time name="diag">   57.11   57.12</time>
   <time name="diis">  136.70  136.71</time>
   <time name="orth">    9.79    9.80</time>
   <time name="total">  222.97  223.00</time>
   <energy>
    <i name="e_fr_energy">   -879.53281824 </i>
    <i name="e_wo_entrp">   -879.57591656 </i>
    <i name="e_0_energy">   -879.54718435 </i>
   </energy>
  </scstep>
  <scstep>
   <time name="diag">   50.90   50.90</time>
   <time name="diis">  129.39  129.39</time>
   <time name="orth">   10.43   10.43</time>
   <time name="total">  212.46  212.48</time>
   <energy>
    <i name="e_fr_energy">   -879.53281340 </i>
    <i name="e_wo_entrp">   -879.57597752 </i>
    <i name="e_0_energy">   -879.54720144 </i>
   </energy>
  </scstep>
  <scstep>
   <time name="diag">   54.83   54.83</time>
   <time name="diis">  128.86  128.91</time>
   <time name="orth">   10.26   10.26</time>
   <time name="total">  214.02  214.08</time>
   <energy>
    <i name="e_fr_energy">   -879.53280852 </i>
    <i name="e_wo_entrp">   -879.57603794 </i>
    <i name="e_0_energy">   -879.54721832 </i>
   </energy>
  </scstep>
  <scstep>
   <time name="diag">   54.91   54.91</time>
   <time name="diis">  136.12  136.14</time>
   <time name="orth">   10.49   10.50</time>
   <time name="total">  223.06  223.09</time>
   <energy>
    <i name="e_fr_energy">   -879.53280486 </i>
    <i name="e_wo_entrp">   -879.57608490 </i>
    <i name="e_0_energy">   -879.54723154 </i>
   </energy>
  </scstep>
  <scstep>
   <time name="diag">   55.05   55.08</time>
   <time name="diis">  122.65  122.67</time>
   <time name="orth">   10.29   10.29</time>
   <time name="total">  208.02  208.06</time>
   <energy>
    <i name="e_fr_energy">   -879.53280155 </i>
    <i name="e_wo_entrp">   -879.57612760 </i>
    <i name="e_0_energy">   -879.54724357 </i>
   </energy>
  </scstep>
  <scstep>
   <time name="diag">   54.58   54.59</time>
   <time name="diis">  145.17  145.21</time>
   <time name="orth">   10.60   10.60</time>
   <time name="total">  230.19  230.25</time>
   <energy>
    <i name="e_fr_energy">   -879.53279846 </i>
    <i name="e_wo_entrp">   -879.57616744 </i>
    <i name="e_0_energy">   -879.54725479 </i>
   </energy>
  </scstep>
  <scstep>
   <time name="diag">   51.01   51.03</time>
   <time name="diis">  138.09  138.11</time>
   <time name="orth">   10.31   10.31</time>
   <time name="total">  221.79  221.84</time>
   <energy>
    <i name="e_fr_energy">   -879.53279562 </i>
    <i name="e_wo_entrp">   -879.57620414 </i>
    <i name="e_0_energy">   -879.54726513 </i>
   </energy>
  </scstep>
  <scstep>
   <time name="diag">   59.92   59.95</time>
   <time name="diis">  137.18  137.27</time>
   <time name="orth">    9.73    9.77</time>
   <time name="total">  226.45  226.60</time>
   <energy>
    <i name="e_fr_energy">   -879.53279316 </i>
    <i name="e_wo_entrp">   -879.57623608 </i>
    <i name="e_0_energy">   -879.54727413 </i>
   </energy>
  </scstep>
  <scstep>
   <time name="diag">   48.06   48.09</time>
   <time name="diis">  129.06  129.12</time>
   <time name="orth">   11.24   11.24</time>
   <time name="total">  212.07  212.17</time>
   <energy>
    <i name="e_fr_energy">   -879.53279077 </i>
    <i name="e_wo_entrp">   -879.57626678 </i>
    <i name="e_0_energy">   -879.54728277 </i>
   </energy>
  </scstep>
  <scstep>
   <time name="diag">   61.54   61.60</time>
   <time name="diis">  132.26  132.33</time>
   <time name="orth">   10.14   10.15</time>
   <time name="total">  222.84  222.98</time>
   <energy>
    <i name="e_fr_energy">   -879.53278867 </i>
    <i name="e_wo_entrp">   -879.57629369 </i>
    <i name="e_0_energy">   -879.54729035 </i>
   </energy>
  </scstep>
  <scstep>
   <time name="diag">   49.90   49.92</time>
   <time name="diis">  143.97  144.04</time>
   <time name="orth">   11.50   11.51</time>
   <time name="total">  228.98  229.08</time>
   <energy>
    <i name="e_fr_energy">   -879.53278660 </i>
    <i name="e_wo_entrp">   -879.57632007 </i>
    <i name="e_0_energy">   -879.54729776 </i>
   </energy>
  </scstep>
  <scstep>
   <time name="diag">   61.99   62.01</time>
   <time name="diis">  111.23  111.30</time>
   <time name="orth">   10.06   10.07</time>
   <time name="total">  203.57  203.67</time>
   <energy>
    <i name="e_fr_energy">   -879.53278490 </i>
    <i name="e_wo_entrp">   -879.57634242 </i>
    <i name="e_0_energy">   -879.54730407 </i>
   </energy>
  </scstep>
  <scstep>
   <time name="diag">   60.16   60.17</time>
   <time name="diis">  137.92  138.01</time>
   <time name="orth">   11.55   11.55</time>
   <time name="total">  230.45  230.56</time>
   <energy>
    <i name="e_fr_energy">   -879.53278339 </i>
    <i name="e_wo_entrp">   -879.57636236 </i>
    <i name="e_0_energy">   -879.54730971 </i>
   </energy>
  </scstep>
  <scstep>
   <time name="diag">   48.98   48.99</time>
   <time name="diis">  117.01  117.07</time>
   <time name="orth">   11.56   11.56</time>
   <time name="total">  200.71  200.81</time>
   <energy>
    <i name="e_fr_energy">   -879.53278201 </i>
    <i name="e_wo_entrp">   -879.57638053 </i>
    <i name="e_0_energy">   -879.54731485 </i>
   </energy>
  </scstep>
  <scstep>
   <time name="diag">   60.97   60.99</time>
   <time name="diis">  144.90  144.92</time>
   <time name="orth">   10.00   10.00</time>
   <time name="total">  235.50  235.55</time>
   <energy>
    <i name="e_fr_energy">   -879.53278074 </i>
    <i name="e_wo_entrp">   -879.57639705 </i>
    <i name="e_0_energy">   -879.54731951 </i>
   </energy>
  </scstep>
  <scstep>
   <time name="diag">   49.30   49.33</time>
   <time name="diis">  117.55  117.60</time>
   <time name="orth">   11.61   11.61</time>
   <time name="total">  202.06  202.17</time>
   <energy>
    <i name="e_fr_energy">   -879.53277955 </i>
    <i name="e_wo_entrp">   -879.57641256 </i>
    <i name="e_0_energy">   -879.54732389 </i>
   </energy>
  </scstep>
  <scstep>
   <time name="diag">   61.76   61.80</time>
   <time name="diis">  136.68  136.70</time>
   <time name="orth">   10.49   10.49</time>
   <time name="total">  228.99  229.06</time>
   <energy>
    <i name="e_fr_energy">   -879.53277850 </i>
    <i name="e_wo_entrp">   -879.57642656 </i>
    <i name="e_0_energy">   -879.54732785 </i>
   </energy>
  </scstep>
  <scstep>
   <time name="diag">   49.22   49.25</time>
   <time name="diis">  121.91  121.94</time>
   <time name="orth">   11.32   11.35</time>
   <time name="total">  183.03  183.12</time>
   <energy>
    <i name="alphaZ">   7300.31925852 </i>
    <i name="ewald"> -66232.83996889 </i>
    <i name="hartreedc">  -9349.49545265 </i>
    <i name="XCdc">    360.57273323 </i>
    <i name="pawpsdc">  58020.93917205 </i>
    <i name="pawaedc"> -58957.23017214 </i>
    <i name="eentropy">      0.04366182 </i>
    <i name="bandstr">   3776.48710993 </i>
    <i name="atom">  64201.67088057 </i>
    <i name="e_fr_energy">   -879.53277754 </i>
    <i name="e_wo_entrp">   -879.57643936 </i>
    <i name="e_0_energy">   -879.54733148 </i>
   </energy>
  </scstep>
  <structure>
   <crystal>
    <varray name="basis" >
     <v>      10.33484705       0.00000000       0.00000000 </v>
     <v>       0.00000000      10.33484705       0.00000000 </v>
     <v>       0.00000000       0.00000000      10.33484705 </v>
    </varray>
    <i name="volume">   1103.85533447 </i>
    <varray name="rec_basis" >
     <v>       0.09676002       0.00000000       0.00000000 </v>
     <v>       0.00000000       0.09676002       0.00000000 </v>
     <v>       0.00000000       0.00000000       0.09676002 </v>
    </varray>
   </crystal>
   <varray name="positions" >
    <v>       0.00000000       0.00000000       0.00000000 </v>
    <v>       0.00000000       0.16666893       0.16666893 </v>
    <v>       0.16666893       0.00000000       0.16666893 </v>
    <v>       0.16666893       0.16666893       0.00000000 </v>
    <v>       0.33333106       0.00000000       0.00000000 </v>
    <v>       0.33333107       0.16666893       0.16666893 </v>
    <v>       0.50000000       0.00000000       0.16666894 </v>
    <v>       0.50000000       0.16666894       0.00000000 </v>
    <v>       0.66666897       0.00000000       0.00000000 </v>
    <v>       0.66666896       0.16666893       0.16666893 </v>
    <v>       0.83333104       0.00000000       0.16666893 </v>
    <v>       0.83333104       0.16666893       0.00000000 </v>
    <v>       0.00000000       0.33333106       0.00000000 </v>
    <v>       0.00000000       0.50000000       0.16666894 </v>
    <v>       0.16666893       0.33333107       0.16666893 </v>
    <v>       0.16666894       0.50000000       0.00000000 </v>
    <v>       0.33333107       0.33333107       0.00000000 </v>
    <v>       0.33333107       0.50000000       0.16666893 </v>
    <v>       0.50000000       0.33333107       0.16666893 </v>
    <v>       0.50000000       0.50000000       0.00000000 </v>
    <v>       0.66666896       0.33333107       0.00000000 </v>
    <v>       0.66666896       0.50000000       0.16666893 </v>
    <v>       0.83333104       0.33333107       0.16666893 </v>
    <v>       0.83333103       0.50000000       0.00000000 </v>
    <v>       0.00000000       0.66666897       0.00000000 </v>
    <v>       0.00000000       0.83333104       0.16666893 </v>
    <v>       0.16666893       0.66666896       0.16666893 </v>
    <v>       0.16666893       0.83333104       0.00000000 </v>
    <v>       0.33333107       0.66666896       0.00000000 </v>
    <v>       0.33333107       0.83333104       0.16666893 </v>
    <v>       0.50000000       0.66666896       0.16666893 </v>
    <v>       0.50000000       0.83333103       0.00000000 </v>
    <v>       0.66666896       0.66666896       0.00000000 </v>
    <v>       0.66666896       0.83333104       0.16666893 </v>
    <v>       0.83333104       0.66666896       0.16666893 </v>
    <v>       0.83333104       0.83333104       0.00000000 </v>
    <v>       0.00000000       0.00000000       0.33333106 </v>
    <v>       0.00000000       0.16666894       0.50000000 </v>
    <v>       0.16666894       0.00000000       0.50000000 </v>
    <v>       0.16666893       0.16666893       0.33333107 </v>
    <v>       0.33333107       0.00000000       0.33333107 </v>
    <v>       0.33333107       0.16666893       0.50000000 </v>
    <v>       0.50000000       0.00000000       0.50000000 </v>
    <v>       0.50000000       0.16666893       0.33333107 </v>
    <v>       0.66666896       0.00000000       0.33333107 </v>
    <v>       0.66666896       0.16666893       0.50000000 </v>
    <v>       0.83333103       0.00000000       0.50000000 </v>
    <v>       0.83333104       0.16666893       0.33333107 </v>
    <v>       0.00000000       0.33333107       0.33333107 </v>
    <v>       0.00000000       0.50000000       0.50000000 </v>
    <v>       0.16666893       0.33333107       0.50000000 </v>
    <v>       0.16666893       0.50000000       0.33333107 </v>
    <v>       0.33333107       0.33333107       0.33333107 </v>
    <v>       0.33333106       0.50000000       0.50000000 </v>
    <v>       0.50000000       0.33333106       0.50000000 </v>
    <v>       0.50000000       0.50000000       0.33333106 </v>
    <v>       0.66666896       0.33333107       0.33333107 </v>
    <v>       0.66666897       0.50000000       0.50000000 </v>
    <v>       0.83333104       0.33333107       0.50000000 </v>
    <v>       0.83333104       0.50000000       0.33333107 </v>
    <v>       0.00000000       0.66666896       0.33333107 </v>
    <v>       0.00000000       0.83333103       0.50000000 </v>
    <v>       0.16666893       0.66666896       0.50000000 </v>
    <v>       0.16666893       0.83333104       0.33333107 </v>
    <v>       0.33333107       0.66666896       0.33333107 </v>
    <v>       0.33333107       0.83333104       0.50000000 </v>
    <v>       0.50000000       0.66666897       0.50000000 </v>
    <v>       0.50000000       0.83333104       0.33333107 </v>
    <v>       0.66666896       0.66666896       0.33333107 </v>
    <v>       0.66666896       0.83333104       0.50000000 </v>
    <v>       0.83333104       0.66666896       0.50000000 </v>
    <v>       0.83333104       0.83333104       0.33333107 </v>
    <v>       0.00000000       0.00000000       0.66666897 </v>
    <v>       0.00000000       0.16666893       0.83333104 </v>
    <v>       0.16666893       0.00000000       0.83333104 </v>
    <v>       0.16666893       0.16666893       0.66666896 </v>
    <v>       0.33333107       0.00000000       0.66666896 </v>
    <v>       0.33333107       0.16666893       0.83333104 </v>
    <v>       0.50000000       0.00000000       0.83333103 </v>
    <v>       0.50000000       0.16666893       0.66666896 </v>
    <v>       0.66666896       0.00000000       0.66666896 </v>
    <v>       0.66666896       0.16666893       0.83333104 </v>
    <v>       0.83333104       0.00000000       0.83333104 </v>
    <v>       0.83333104       0.16666893       0.66666896 </v>
    <v>       0.00000000       0.33333107       0.66666896 </v>
    <v>       0.00000000       0.50000000       0.83333103 </v>
    <v>       0.16666893       0.33333107       0.83333104 </v>
    <v>       0.16666893       0.50000000       0.66666896 </v>
    <v>       0.33333107       0.33333107       0.66666896 </v>
    <v>       0.33333107       0.50000000       0.83333104 </v>
    <v>       0.50000000       0.33333107       0.83333104 </v>
    <v>       0.50000000       0.50000000       0.66666897 </v>
    <v>       0.66666896       0.33333107       0.66666896 </v>
    <v>       0.66666896       0.50000000       0.83333104 </v>
    <v>       0.83333104       0.33333107       0.83333104 </v>
    <v>       0.83333104       0.50000000       0.66666896 </v>
    <v>       0.00000000       0.66666896       0.66666896 </v>
    <v>       0.00000000       0.83333104       0.83333104 </v>
    <v>       0.16666893       0.66666896       0.83333104 </v>
    <v>       0.16666893       0.83333104       0.66666896 </v>
    <v>       0.33333107       0.66666896       0.66666896 </v>
    <v>       0.33333107       0.83333104       0.83333104 </v>
    <v>       0.50000000       0.66666896       0.83333104 </v>
    <v>       0.50000000       0.83333104       0.66666896 </v>
    <v>       0.66666896       0.66666896       0.66666896 </v>
    <v>       0.66666896       0.83333104       0.83333104 </v>
    <v>       0.83333104       0.66666896       0.83333104 </v>
    <v>       0.83333104       0.83333104       0.66666896 </v>
   </varray>
  </structure>
  <varray name="forces" >
   <v>       0.00000000      -0.00000000       0.00000000 </v>
   <v>      -0.00000000       0.00000000       0.00000000 </v>
   <v>      -0.00000000       0.00000000       0.00000000 </v>
   <v>      -0.00000000      -0.00000000      -0.00000000 </v>
   <v>       0.00000000      -0.00000000       0.00000000 </v>
   <v>       0.00000000      -0.00000000       0.00000000 </v>
   <v>       0.00000000       0.00000000      -0.00000000 </v>
   <v>       0.00000000      -0.00000000      -0.00000000 </v>
   <v>      -0.00000000      -0.00000000      -0.00000000 </v>
   <v>       0.00000000      -0.00000000       0.00000000 </v>
   <v>       0.00000000      -0.00000000      -0.00000000 </v>
   <v>       0.00000000      -0.00000000       0.00000000 </v>
   <v>      -0.00000000      -0.00000000       0.00000000 </v>
   <v>       0.00000000       0.00000000      -0.00000000 </v>
   <v>      -0.00000000       0.00000000      -0.00000000 </v>
   <v>      -0.00000000      -0.00000000      -0.00000000 </v>
   <v>       0.00000000       0.00000000       0.00000000 </v>
   <v>       0.00000000      -0.00000000      -0.00000000 </v>
   <v>       0.00000000       0.00000000       0.00000000 </v>
   <v>      -0.00000000       0.00000000       0.00000000 </v>
   <v>      -0.00000000       0.00000000      -0.00000000 </v>
   <v>       0.00000000      -0.00000000       0.00000000 </v>
   <v>       0.00000000       0.00000000       0.00000000 </v>
   <v>      -0.00000000      -0.00000000       0.00000000 </v>
   <v>       0.00000000       0.00000000       0.00000000 </v>
   <v>       0.00000000       0.00000000      -0.00000000 </v>
   <v>      -0.00000000      -0.00000000       0.00000000 </v>
   <v>       0.00000000      -0.00000000      -0.00000000 </v>
   <v>       0.00000000       0.00000000      -0.00000000 </v>
   <v>      -0.00000000      -0.00000000      -0.00000000 </v>
   <v>      -0.00000000       0.00000000       0.00000000 </v>
   <v>       0.00000000       0.00000000      -0.00000000 </v>
   <v>      -0.00000000       0.00000000      -0.00000000 </v>
   <v>      -0.00000000      -0.00000000       0.00000000 </v>
   <v>       0.00000000       0.00000000      -0.00000000 </v>
   <v>       0.00000000       0.00000000      -0.00000000 </v>
   <v>       0.00000000      -0.00000000      -0.00000000 </v>
   <v>       0.00000000       0.00000000      -0.00000000 </v>
   <v>       0.00000000      -0.00000000      -0.00000000 </v>
   <v>       0.00000000      -0.00000000       0.00000000 </v>
   <v>       0.00000000      -0.00000000      -0.00000000 </v>
   <v>      -0.00000000       0.00000000      -0.00000000 </v>
   <v>       0.00000000       0.00000000       0.00000000 </v>
   <v>      -0.00000000      -0.00000000       0.00000000 </v>
   <v>       0.00000000      -0.00000000       0.00000000 </v>
   <v>      -0.00000000      -0.00000000      -0.00000000 </v>
   <v>      -0.00000000      -0.00000000      -0.00000000 </v>
   <v>       0.00000000      -0.00000000      -0.00000000 </v>
   <v>       0.00000000       0.00000000      -0.00000000 </v>
   <v>       0.00000000       0.00000000      -0.00000000 </v>
   <v>      -0.00000000       0.00000000      -0.00000000 </v>
   <v>      -0.00000000       0.00000000       0.00000000 </v>
   <v>       0.00000000       0.00000000       0.00000000 </v>
   <v>      -0.00000000       0.00000000      -0.00000000 </v>
   <v>       0.00000000       0.00000000       0.00000000 </v>
   <v>      -0.00000000       0.00000000      -0.00000000 </v>
   <v>      -0.00000000       0.00000000       0.00000000 </v>
   <v>      -0.00000000      -0.00000000      -0.00000000 </v>
   <v>      -0.00000000      -0.00000000      -0.00000000 </v>
   <v>      -0.00000000       0.00000000       0.00000000 </v>
   <v>       0.00000000       0.00000000      -0.00000000 </v>
   <v>      -0.00000000       0.00000000      -0.00000000 </v>
   <v>       0.00000000      -0.00000000       0.00000000 </v>
   <v>       0.00000000       0.00000000       0.00000000 </v>
   <v>      -0.00000000      -0.00000000       0.00000000 </v>
   <v>       0.00000000      -0.00000000       0.00000000 </v>
   <v>       0.00000000       0.00000000       0.00000000 </v>
   <v>       0.00000000       0.00000000       0.00000000 </v>
   <v>       0.00000000       0.00000000       0.00000000 </v>
   <v>       0.00000000      -0.00000000       0.00000000 </v>
   <v>       0.00000000       0.00000000      -0.00000000 </v>
   <v>       0.00000000       0.00000000       0.00000000 </v>
   <v>      -0.00000000      -0.00000000       0.00000000 </v>
   <v>       0.00000000       0.00000000      -0.00000000 </v>
   <v>       0.00000000      -0.00000000      -0.00000000 </v>
   <v>      -0.00000000      -0.00000000      -0.00000000 </v>
   <v>       0.00000000      -0.00000000      -0.00000000 </v>
   <v>      -0.00000000      -0.00000000      -0.00000000 </v>
   <v>       0.00000000       0.00000000       0.00000000 </v>
   <v>       0.00000000      -0.00000000      -0.00000000 </v>
   <v>       0.00000000       0.00000000      -0.00000000 </v>
   <v>       0.00000000      -0.00000000      -0.00000000 </v>
   <v>       0.00000000       0.00000000       0.00000000 </v>
   <v>       0.00000000      -0.00000000       0.00000000 </v>
   <v>      -0.00000000       0.00000000       0.00000000 </v>
   <v>       0.00000000       0.00000000       0.00000000 </v>
   <v>       0.00000000       0.00000000      -0.00000000 </v>
   <v>      -0.00000000       0.00000000      -0.00000000 </v>
   <v>      -0.00000000       0.00000000       0.00000000 </v>
   <v>       0.00000000      -0.00000000       0.00000000 </v>
   <v>      -0.00000000      -0.00000000       0.00000000 </v>
   <v>       0.00000000       0.00000000       0.00000000 </v>
   <v>       0.00000000       0.00000000       0.00000000 </v>
   <v>       0.00000000      -0.00000000      -0.00000000 </v>
   <v>       0.00000000      -0.00000000      -0.00000000 </v>
   <v>      -0.00000000       0.00000000       0.00000000 </v>
   <v>       0.00000000      -0.00000000       0.00000000 </v>
   <v>       0.00000000       0.00000000       0.00000000 </v>
   <v>      -0.00000000      -0.00000000       0.00000000 </v>
   <v>      -0.00000000      -0.00000000       0.00000000 </v>
   <v>       0.00000000      -0.00000000       0.00000000 </v>
   <v>       0.00000000      -0.00000000      -0.00000000 </v>
   <v>      -0.00000000       0.00000000       0.00000000 </v>
   <v>      -0.00000000       0.00000000      -0.00000000 </v>
   <v>      -0.00000000       0.00000000       0.00000000 </v>
   <v>      -0.00000000      -0.00000000      -0.00000000 </v>
   <v>       0.00000000       0.00000000       0.00000000 </v>
   <v>      -0.00000000      -0.00000000      -0.00000000 </v>
  </varray>
  <varray name="stress" >
   <v>      -0.40923225       0.00000000      -0.00000000 </v>
   <v>       0.00000000      -0.40923225       0.00000000 </v>
   <v>      -0.00000000      -0.00000000      -0.40923225 </v>
  </varray>
  <energy>
   <i name="e_fr_energy">   -879.53277754 </i>
   <i name="e_wo_entrp">   -879.54733148 </i>
   <i name="e_0_energy">      0.04366182 </i>
  </energy>
  <time name="totalsc">13460.1513464.43</time>
  <eigenvalues>
   <array>
    <dimension dim="1">band</dimension>
    <dimension dim="2">kpoint</dimension>
    <dimension dim="3">spin</dimension>
    <field>eigene</field>
    <field>occ</field>
    <set>
     <set comment="spin 1">
      <set comment="kpoint 1">
       <r>   -2.0006    1.0000 </r>
       <r>   -0.5089    1.0000 </r>
       <r>   -0.5089    1.0000 </r>
       <r>   -0.5089    1.0000 </r>
       <r>   -0.5078    1.0000 </r>
       <r>   -0.5078    1.0000 </r>
       <r>   -0.5078    1.0000 </r>
       <r>    0.7821    1.0000 </r>
       <r>    0.7821    1.0000 </r>
       <r>    0.7821    1.0000 </r>
       <r>    0.7831    1.0000 </r>
       <r>    0.7831    1.0000 </r>
       <r>    0.7831    1.0000 </r>
       <r>    0.7831    1.0000 </r>
       <r>    0.7831    1.0000 </r>
       <r>    0.7831    1.0000 </r>
       <r>    0.7841    1.0000 </r>
       <r>    0.7841    1.0000 </r>
       <r>    0.7841    1.0000 </r>
       <r>    1.4216    1.0000 </r>
       <r>    1.4222    1.0000 </r>
       <r>    1.4222    1.0000 </r>
       <r>    1.4222    1.0000 </r>
       <r>    1.4229    1.0000 </r>
       <r>    1.4229    1.0000 </r>
       <r>    1.4229    1.0000 </r>
       <r>    1.4236    1.0000 </r>
       <r>    1.8663    1.0000 </r>
       <r>    1.8663    1.0000 </r>
       <r>    1.8663    1.0000 </r>
       <r>    1.8987    1.0000 </r>
       <r>    1.8987    1.0000 </r>
       <r>    1.8987    1.0000 </r>
       <r>    1.8994    1.0000 </r>
       <r>    1.8994    1.0000 </r>
       <r>    1.8994    1.0000 </r>
       <r>    2.5937    1.0000 </r>
       <r>    2.5937    1.0000 </r>
       <r>    2.5937    1.0000 </r>
       <r>    2.5937    1.0000 </r>
       <r>    2.5937    1.0000 </r>
       <r>    2.5937    1.0000 </r>
       <r>    2.5937    1.0000 </r>
       <r>    2.5937    1.0000 </r>
       <r>    2.5937    1.0000 </r>
       <r>    2.5937    1.0000 </r>
       <r>    2.5937    1.0000 </r>
       <r>    2.5937    1.0000 </r>
       <r>    2.5938    1.0000 </r>
       <r>    2.5938    1.0000 </r>
       <r>    2.5938    1.0000 </r>
       <r>    2.5938    1.0000 </r>
       <r>    2.5938    1.0000 </r>
       <r>    2.5938    1.0000 </r>
       <r>    2.5938    1.0000 </r>
       <r>    2.5938    1.0000 </r>
       <r>    2.5939    1.0000 </r>
       <r>    2.5939    1.0000 </r>
       <r>    2.5939    1.0000 </r>
       <r>    2.5939    1.0000 </r>
       <r>    2.6082    1.0000 </r>
       <r>    2.6082    1.0000 </r>
       <r>    2.6082    1.0000 </r>
       <r>    2.6679    1.0000 </r>
       <r>    2.6679    1.0000 </r>
       <r>    2.6679    1.0000 </r>
       <r>    2.6679    1.0000 </r>
       <r>    2.6679    1.0000 </r>
       <r>    2.6679    1.0000 </r>
       <r>    2.6689    1.0000 </r>
       <r>    2.6689    1.0000 </r>
       <r>    2.6689    1.0000 </r>
       <r>    2.6689    1.0000 </r>
       <r>    2.6689    1.0000 </r>
       <r>    2.6689    1.0000 </r>
       <r>    2.8818    1.0000 </r>
       <r>    2.8818    1.0000 </r>
       <r>    2.8818    1.0000 </r>
       <r>    2.8818    1.0000 </r>
       <r>    2.8818    1.0000 </r>
       <r>    2.8818    1.0000 </r>
       <r>    2.8823    1.0000 </r>
       <r>    2.8823    1.0000 </r>
       <r>    2.8823    1.0000 </r>
       <r>    2.8823    1.0000 </r>
       <r>    2.8823    1.0000 </r>
       <r>    2.8823    1.0000 </r>
       <r>    2.8828    1.0000 </r>
       <r>    2.8828    1.0000 </r>
       <r>    2.8828    1.0000 </r>
       <r>    2.8828    1.0000 </r>
       <r>    2.8828    1.0000 </r>
       <r>    2.8828    1.0000 </r>
       <r>    2.8833    1.0000 </r>
       <r>    2.8833    1.0000 </r>
       <r>    2.8833    1.0000 </r>
       <r>    2.8833    1.0000 </r>
       <r>    2.8833    1.0000 </r>
       <r>    2.8833    1.0000 </r>
       <r>    3.1866    1.0000 </r>
       <r>    3.1866    1.0000 </r>
       <r>    3.1866    1.0000 </r>
       <r>    3.1876    1.0000 </r>
       <r>    3.1876    1.0000 </r>
       <r>    3.1876    1.0000 </r>
       <r>    3.3142    1.0000 </r>
       <r>    3.3142    1.0000 </r>
       <r>    3.3142    1.0000 </r>
       <r>    3.3143    1.0000 </r>
       <r>    3.3143    1.0000 </r>
       <r>    3.3143    1.0000 </r>
       <r>    3.3143    1.0000 </r>
       <r>    3.3143    1.0000 </r>
       <r>    3.3143    1.0000 </r>
       <r>    3.3144    1.0000 </r>
       <r>    3.3144    1.0000 </r>
       <r>    3.3144    1.0000 </r>
       <r>    3.3242    1.0000 </r>
       <r>    3.3242    1.0000 </r>
       <r>    3.3242    1.0000 </r>
       <r>    3.3242    1.0000 </r>
       <r>    3.3242    1.0000 </r>
       <r>    3.3242    1.0000 </r>
       <r>    3.3251    1.0000 </r>
       <r>    3.3251    1.0000 </r>
       <r>    3.3251    1.0000 </r>
       <r>    3.3251    1.0000 </r>
       <r>    3.3251    1.0000 </r>
       <r>    3.3251    1.0000 </r>
       <r>    3.5709    1.0000 </r>
       <r>    3.5709    1.0000 </r>
       <r>    3.5709    1.0000 </r>
       <r>    3.5709    1.0000 </r>
       <r>    3.5709    1.0000 </r>
       <r>    3.5709    1.0000 </r>
       <r>    3.5709    1.0000 </r>
       <r>    3.5709    1.0000 </r>
       <r>    3.5709    1.0000 </r>
       <r>    3.5709    1.0000 </r>
       <r>    3.5709    1.0000 </r>
       <r>    3.5709    1.0000 </r>
       <r>    3.6936    1.0000 </r>
       <r>    3.6936    1.0000 </r>
       <r>    3.6936    1.0000 </r>
       <r>    3.6936    1.0000 </r>
       <r>    3.6936    1.0000 </r>
       <r>    3.6936    1.0000 </r>
       <r>    3.6944    1.0000 </r>
       <r>    3.6944    1.0000 </r>
       <r>    3.6944    1.0000 </r>
       <r>    3.6944    1.0000 </r>
       <r>    3.6944    1.0000 </r>
       <r>    3.6944    1.0000 </r>
       <r>    3.6945    1.0000 </r>
       <r>    3.6945    1.0000 </r>
       <r>    3.6945    1.0000 </r>
       <r>    3.6945    1.0000 </r>
       <r>    3.6945    1.0000 </r>
       <r>    3.6945    1.0000 </r>
       <r>    3.6954    1.0000 </r>
       <r>    3.6954    1.0000 </r>
       <r>    3.6954    1.0000 </r>
       <r>    3.6954    1.0000 </r>
       <r>    3.6954    1.0000 </r>
       <r>    3.6954    1.0000 </r>
       <r>    4.2997    1.0000 </r>
       <r>    4.2997    1.0000 </r>
       <r>    4.2997    1.0000 </r>
       <r>    4.3005    1.0000 </r>
       <r>    4.3005    1.0000 </r>
       <r>    4.3005    1.0000 </r>
       <r>    4.3005    1.0000 </r>
       <r>    4.3005    1.0000 </r>
       <r>    4.3005    1.0000 </r>
       <r>    4.3006    1.0000 </r>
       <r>    4.3006    1.0000 </r>
       <r>    4.3006    1.0000 </r>
       <r>    4.3013    1.0000 </r>
       <r>    4.3013    1.0000 </r>
       <r>    4.3013    1.0000 </r>
       <r>    4.3014    1.0000 </r>
       <r>    4.3014    1.0000 </r>
       <r>    4.3014    1.0000 </r>
       <r>    4.3014    1.0000 </r>
       <r>    4.3014    1.0000 </r>
       <r>    4.3014    1.0000 </r>
       <r>    4.3021    1.0000 </r>
       <r>    4.3021    1.0000 </r>
       <r>    4.3021    1.0000 </r>
       <r>    4.3514    1.0000 </r>
       <r>    4.3514    1.0000 </r>
       <r>    4.3514    1.0000 </r>
       <r>    4.3516    1.0000 </r>
       <r>    4.3516    1.0000 </r>
       <r>    4.3516    1.0000 </r>
       <r>    4.3516    1.0000 </r>
       <r>    4.3516    1.0000 </r>
       <r>    4.3516    1.0000 </r>
       <r>    4.3518    1.0000 </r>
       <r>    4.3518    1.0000 </r>
       <r>    4.3518    1.0000 </r>
       <r>    4.4647    1.0000 </r>
       <r>    4.4647    1.0000 </r>
       <r>    4.4647    1.0000 </r>
       <r>    4.4654    1.0000 </r>
       <r>    4.4654    1.0000 </r>
       <r>    4.4654    1.0000 </r>
       <r>    4.6417    1.0000 </r>
       <r>    4.6417    1.0000 </r>
       <r>    4.6417    1.0000 </r>
       <r>    4.6417    1.0000 </r>
       <r>    4.6417    1.0000 </r>
       <r>    4.6417    1.0000 </r>
       <r>    4.6418    1.0000 </r>
       <r>    4.6418    1.0000 </r>
       <r>    4.6418    1.0000 </r>
       <r>    4.6418    1.0000 </r>
       <r>    4.6418    1.0000 </r>
       <r>    4.6418    1.0000 </r>
       <r>    4.6419    1.0000 </r>
       <r>    4.6419    1.0000 </r>
       <r>    4.6419    1.0000 </r>
       <r>    4.6419    1.0000 </r>
       <r>    4.6419    1.0000 </r>
       <r>    4.6419    1.0000 </r>
       <r>    4.6420    1.0000 </r>
       <r>    4.6420    1.0000 </r>
       <r>    4.6420    1.0000 </r>
       <r>    4.6420    1.0000 </r>
       <r>    4.6420    1.0000 </r>
       <r>    4.6420    1.0000 </r>
       <r>    4.8750    1.0000 </r>
       <r>    4.8750    1.0000 </r>
       <r>    4.8750    1.0000 </r>
       <r>    4.8754    1.0000 </r>
       <r>    4.8754    1.0000 </r>
       <r>    4.8754    1.0000 </r>
       <r>    4.8754    1.0000 </r>
       <r>    4.8754    1.0000 </r>
       <r>    4.8754    1.0000 </r>
       <r>    4.8758    1.0000 </r>
       <r>    4.8758    1.0000 </r>
       <r>    4.8758    1.0000 </r>
       <r>    5.0405    1.0000 </r>
       <r>    5.0406    1.0000 </r>
       <r>    5.0406    1.0000 </r>
       <r>    5.0406    1.0000 </r>
       <r>    5.0406    1.0000 </r>
       <r>    5.0406    1.0000 </r>
       <r>    5.0406    1.0000 </r>
       <r>    5.0406    1.0000 </r>
       <r>    5.1782    1.0000 </r>
       <r>    5.1782    1.0000 </r>
       <r>    5.1782    1.0000 </r>
       <r>    5.2309    1.0000 </r>
       <r>    5.2309    1.0000 </r>
       <r>    5.2309    1.0000 </r>
       <r>    5.2311    1.0000 </r>
       <r>    5.2311    1.0000 </r>
       <r>    5.2311    1.0000 </r>
       <r>    5.2311    1.0000 </r>
       <r>    5.2311    1.0000 </r>
       <r>    5.2311    1.0000 </r>
       <r>    5.2311    1.0000 </r>
       <r>    5.2311    1.0000 </r>
       <r>    5.2311    1.0000 </r>
       <r>    5.2313    1.0000 </r>
       <r>    5.2313    1.0000 </r>
       <r>    5.2313    1.0000 </r>
       <r>    5.2313    1.0000 </r>
       <r>    5.2313    1.0000 </r>
       <r>    5.2313    1.0000 </r>
       <r>    5.2313    1.0000 </r>
       <r>    5.2313    1.0000 </r>
       <r>    5.2313    1.0000 </r>
       <r>    5.2315    1.0000 </r>
       <r>    5.2315    1.0000 </r>
       <r>    5.2315    1.0000 </r>
       <r>    5.3031    1.0000 </r>
       <r>    5.3031    1.0000 </r>
       <r>    5.3031    1.0000 </r>
       <r>    5.3031    1.0000 </r>
       <r>    5.3031    1.0000 </r>
       <r>    5.3033    1.0000 </r>
       <r>    5.3033    1.0000 </r>
       <r>    5.3033    1.0000 </r>
       <r>    5.3035    1.0000 </r>
       <r>    5.3035    1.0000 </r>
       <r>    5.3035    1.0000 </r>
       <r>    5.3037    1.0000 </r>
       <r>    5.3037    1.0000 </r>
       <r>    5.3037    1.0000 </r>
       <r>    5.3037    1.0000 </r>
       <r>    5.3037    1.0000 </r>
       <r>    5.3278    1.0000 </r>
       <r>    5.3278    1.0000 </r>
       <r>    5.3278    1.0000 </r>
       <r>    5.3280    1.0000 </r>
       <r>    5.3280    1.0000 </r>
       <r>    5.3280    1.0000 </r>
       <r>    5.3280    1.0000 </r>
       <r>    5.3280    1.0000 </r>
       <r>    5.3280    1.0000 </r>
       <r>    5.3281    1.0000 </r>
       <r>    5.3281    1.0000 </r>
       <r>    5.3281    1.0000 </r>
       <r>    5.4427    1.0000 </r>
       <r>    5.4427    1.0000 </r>
       <r>    5.4427    1.0000 </r>
       <r>    5.4427    1.0000 </r>
       <r>    5.4427    1.0000 </r>
       <r>    5.4427    1.0000 </r>
       <r>    5.4428    1.0000 </r>
       <r>    5.4428    1.0000 </r>
       <r>    5.4428    1.0000 </r>
       <r>    5.4428    1.0000 </r>
       <r>    5.4428    1.0000 </r>
       <r>    5.4428    1.0000 </r>
       <r>    5.6810    1.0000 </r>
       <r>    5.6810    1.0000 </r>
       <r>    5.6810    1.0000 </r>
       <r>    5.6813    1.0000 </r>
       <r>    5.6813    1.0000 </r>
       <r>    5.6813    1.0000 </r>
       <r>    5.6815    1.0000 </r>
       <r>    5.6815    1.0000 </r>
       <r>    5.6815    1.0000 </r>
       <r>    5.6815    1.0000 </r>
       <r>    5.6815    1.0000 </r>
       <r>    5.6815    1.0000 </r>
       <r>    5.6818    1.0000 </r>
       <r>    5.6818    1.0000 </r>
       <r>    5.6818    1.0000 </r>
       <r>    5.6818    1.0000 </r>
       <r>    5.6818    1.0000 </r>
       <r>    5.6818    1.0000 </r>
       <r>    5.6820    1.0000 </r>
       <r>    5.6820    1.0000 </r>
       <r>    5.6820    1.0000 </r>
       <r>    5.6822    1.0000 </r>
       <r>    5.6822    1.0000 </r>
       <r>    5.6822    1.0000 </r>
       <r>    5.7418    1.0000 </r>
       <r>    5.7418    1.0000 </r>
       <r>    5.7418    1.0000 </r>
       <r>    5.7418    1.0000 </r>
       <r>    5.7418    1.0000 </r>
       <r>    5.7418    1.0000 </r>
       <r>    5.7427    1.0000 </r>
       <r>    5.7427    1.0000 </r>
       <r>    5.7427    1.0000 </r>
       <r>    5.7427    1.0000 </r>
       <r>    5.7427    1.0000 </r>
       <r>    5.7427    1.0000 </r>
       <r>    5.9501    1.0000 </r>
       <r>    5.9501    1.0000 </r>
       <r>    5.9501    1.0000 </r>
       <r>    5.9502    1.0000 </r>
       <r>    5.9502    1.0000 </r>
       <r>    5.9502    1.0000 </r>
       <r>    5.9502    1.0000 </r>
       <r>    5.9502    1.0000 </r>
       <r>    5.9502    1.0000 </r>
       <r>    5.9503    1.0000 </r>
       <r>    5.9503    1.0000 </r>
       <r>    5.9503    1.0000 </r>
       <r>    6.1110    1.0000 </r>
       <r>    6.1110    1.0000 </r>
       <r>    6.1110    1.0000 </r>
       <r>    6.1115    1.0000 </r>
       <r>    6.1115    1.0000 </r>
       <r>    6.1115    1.0000 </r>
       <r>    6.1259    1.0000 </r>
       <r>    6.1259    1.0000 </r>
       <r>    6.1259    1.0000 </r>
       <r>    6.1266    1.0000 </r>
       <r>    6.1266    1.0000 </r>
       <r>    6.1266    1.0000 </r>
       <r>    6.1266    1.0000 </r>
       <r>    6.1266    1.0000 </r>
       <r>    6.1266    1.0000 </r>
       <r>    6.1274    1.0000 </r>
       <r>    6.1274    1.0000 </r>
       <r>    6.1274    1.0000 </r>
       <r>    6.5341    1.0329 </r>
       <r>    6.5341    1.0329 </r>
       <r>    6.5341    1.0329 </r>
       <r>    6.5348    1.0331 </r>
       <r>    6.5348    1.0331 </r>
       <r>    6.5348    1.0331 </r>
       <r>    6.5348    1.0331 </r>
       <r>    6.5348    1.0331 </r>
       <r>    6.5348    1.0331 </r>
       <r>    6.5355    1.0332 </r>
       <r>    6.5355    1.0332 </r>
       <r>    6.5355    1.0332 </r>
       <r>    6.6196    1.0175 </r>
       <r>    6.6196    1.0175 </r>
       <r>    6.6196    1.0175 </r>
       <r>    6.6196    1.0175 </r>
       <r>    6.6196    1.0175 </r>
       <r>    6.6196    1.0175 </r>
       <r>    6.7374    0.7767 </r>
       <r>    6.7374    0.7767 </r>
       <r>    6.7374    0.7767 </r>
       <r>    6.7374    0.7767 </r>
       <r>    6.7374    0.7767 </r>
       <r>    6.7374    0.7767 </r>
       <r>    6.7380    0.7744 </r>
       <r>    6.7380    0.7744 </r>
       <r>    6.7380    0.7744 </r>
       <r>    6.7380    0.7744 </r>
       <r>    6.7380    0.7744 </r>
       <r>    6.7380    0.7744 </r>
       <r>    6.7381    0.7744 </r>
       <r>    6.7381    0.7744 </r>
       <r>    6.7381    0.7744 </r>
       <r>    6.7381    0.7743 </r>
       <r>    6.7381    0.7743 </r>
       <r>    6.7381    0.7743 </r>
       <r>    6.7381    0.7743 </r>
       <r>    6.7381    0.7743 </r>
       <r>    6.7387    0.7720 </r>
       <r>    6.7387    0.7720 </r>
       <r>    6.7387    0.7720 </r>
[...]
       <r>    -1.8142     2.4332     0.3395 </r>
       <r>    -1.7677     2.8617     0.4726 </r>
       <r>    -1.7211     3.2321     0.6230 </r>
       <r>    -1.6746     3.5534     0.7883 </r>
       <r>    -1.6281     3.8403     0.9669 </r>
       <r>    -1.5816     4.1059     1.1579 </r>
       <r>    -1.5351     4.3579     1.3607 </r>
       <r>    -1.4885     4.5991     1.5746 </r>
       <r>    -1.4420     4.8315     1.7994 </r>
       <r>    -1.3955     5.0594     2.0347 </r>
       <r>    -1.3490     5.2867     2.2806 </r>
       <r>    -1.3025     5.5121     2.5371 </r>
       <r>    -1.2559     5.7289     2.8036 </r>
       <r>    -1.2094     5.9336     3.0796 </r>
       <r>    -1.1629     6.1338     3.3649 </r>
       <r>    -1.1164     6.3429     3.6600 </r>
       <r>    -1.0699     6.5644     3.9653 </r>
       <r>    -1.0234     6.7837     4.2809 </r>
       <r>    -0.9768     6.9821     4.6057 </r>
       <r>    -0.9303     7.1592     4.9388 </r>
       <r>    -0.8838     7.3383     5.2801 </r>
       <r>    -0.8373     7.5446     5.6311 </r>
       <r>    -0.7908     7.7790     5.9930 </r>
       <r>    -0.7442     8.0133     6.3657 </r>
       <r>    -0.6977     8.2152     6.7479 </r>
       <r>    -0.6512     8.3784     7.1376 </r>
       <r>    -0.6047     8.5317     7.5345 </r>
       <r>    -0.5582     8.7188     7.9401 </r>
       <r>    -0.5116     8.9619     8.3570 </r>
       <r>    -0.4651     9.2374     8.7867 </r>
       <r>    -0.4186     9.4885     9.2281 </r>
       <r>    -0.3721     9.6721     9.6780 </r>
       <r>    -0.3256     9.8021    10.1340 </r>
       <r>    -0.2791     9.9450    10.5966 </r>
       <r>    -0.2325    10.1649    11.0695 </r>
       <r>    -0.1860    10.4649    11.5563 </r>
       <r>    -0.1395    10.7827    12.0579 </r>
       <r>    -0.0930    11.0440    12.5717 </r>
       <r>    -0.0465    11.2247    13.0938 </r>
       <r>     0.0001    11.3655    13.6225 </r>
       <r>     0.0466    11.5352    14.1591 </r>
       <r>     0.0931    11.7787    14.7071 </r>
       <r>     0.1396    12.0934    15.2696 </r>
       <r>     0.1861    12.4388    15.8483 </r>
       <r>     0.2327    12.7618    16.4419 </r>
       <r>     0.2792    13.0226    17.0477 </r>
       <r>     0.3257    13.2170    17.6626 </r>
       <r>     0.3722    13.3899    18.2855 </r>
       <r>     0.4187    13.6181    18.9190 </r>
       <r>     0.4652    13.9583    19.5683 </r>
       <r>     0.5118    14.3936    20.2378 </r>
       <r>     0.5583    14.8320    20.9278 </r>
       <r>     0.6048    15.1763    21.6338 </r>
       <r>     0.6513    15.4107    22.3507 </r>
       <r>     0.6978    15.6228    23.0774 </r>
       <r>     0.7444    15.9328    23.8186 </r>
       <r>     0.7909    16.3884    24.5810 </r>
       <r>     0.8374    16.9248    25.3683 </r>
       <r>     0.8839    17.4267    26.1790 </r>
       <r>     0.9304    17.8354    27.0086 </r>
       <r>     0.9770    18.1981    27.8552 </r>
       <r>     1.0235    18.6153    28.7212 </r>
       <r>     1.0700    19.1440    29.6117 </r>
       <r>     1.1165    19.7547    30.5307 </r>
       <r>     1.1630    20.3786    31.4787 </r>
       <r>     1.2095    20.9869    32.4549 </r>
       <r>     1.2561    21.6154    33.4605 </r>
       <r>     1.3026    22.3157    34.4986 </r>
       <r>     1.3491    23.0956    35.5729 </r>
       <r>     1.3956    23.9187    36.6856 </r>
       <r>     1.4421    24.7581    37.8373 </r>
       <r>     1.4887    25.6287    39.0295 </r>
       <r>     1.5352    26.5589    40.2650 </r>
       <r>     1.5817    27.5525    41.5467 </r>
       <r>     1.6282    28.6361    42.8789 </r>
       <r>     1.6747    29.9998    44.2744 </r>
       <r>     1.7213    32.1163    45.7684 </r>
       <r>     1.7678    35.6913    47.4287 </r>
       <r>     1.8143    41.4112    49.3551 </r>
       <r>     1.8608    49.5934    51.6621 </r>
       <r>     1.9073    59.9152    54.4493 </r>
       <r>     1.9538    71.3701    57.7694 </r>
       <r>     2.0004    82.5130    61.6078 </r>
       <r>     2.0469    91.9322    65.8843 </r>
       <r>     2.0934    98.7423    70.4777 </r>
       <r>     2.1399   102.8435    75.2619 </r>
       <r>     2.1864   104.8093    80.1375 </r>
       <r>     2.2330   105.5019    85.0453 </r>
       <r>     2.2795   105.6730    89.9610 </r>
       <r>     2.3260   105.7742    94.8815 </r>
       <r>     2.3725   106.0131    99.8131 </r>
       <r>     2.4190   106.5329   104.7689 </r>
       <r>     2.4656   107.5550   109.7722 </r>
       <r>     2.5121   109.3973   114.8612 </r>
       <r>     2.5586   112.3703   120.0886 </r>
       <r>     2.6051   116.6244   125.5138 </r>
       <r>     2.6516   122.0384   131.1909 </r>
       <r>     2.6981   128.2243   137.1557 </r>
       <r>     2.7447   134.6651   143.4201 </r>
       <r>     2.7912   140.9168   149.9754 </r>
       <r>     2.8377   146.7493   156.8020 </r>
       <r>     2.8842   152.1302   163.8789 </r>
       <r>     2.9307   157.0715   171.1857 </r>
       <r>     2.9773   161.4592   178.6966 </r>
       <r>     3.0238   164.9971   186.3720 </r>
       <r>     3.0703   167.3048   194.1548 </r>
       <r>     3.1168   168.1012   201.9747 </r>
       <r>     3.1633   167.3482   209.7595 </r>
       <r>     3.2099   165.2686   217.4476 </r>
       <r>     3.2564   162.2494   224.9952 </r>
       <r>     3.3029   158.7235   232.3789 </r>
       <r>     3.3494   155.1160   239.5947 </r>
       <r>     3.3959   151.8512   246.6586 </r>
       <r>     3.4424   149.3369   253.6056 </r>
       <r>     3.4890   147.8536   260.4835 </r>
       <r>     3.5355   147.3840   267.3396 </r>
       <r>     3.5820   147.5221   274.2022 </r>
       <r>     3.6285   147.5863   281.0677 </r>
       <r>     3.6750   146.9127   287.9019 </r>
       <r>     3.7216   145.1469   294.6539 </r>
       <r>     3.7681   142.3344   301.2752 </r>
       <r>     3.8146   138.7794   307.7310 </r>
       <r>     3.8611   134.8405   314.0036 </r>
       <r>     3.9076   130.8586   320.0910 </r>
       <r>     3.9542   127.2423   326.0101 </r>
       <r>     4.0007   124.5591   331.8045 </r>
       <r>     4.0472   123.4727   337.5483 </r>
       <r>     4.0937   124.5257   343.3410 </r>
       <r>     4.1402   127.9028   349.2909 </r>
       <r>     4.1867   133.3145   355.4925 </r>
       <r>     4.2333   140.0602   362.0080 </r>
       <r>     4.2798   147.2531   368.8580 </r>
       <r>     4.3263   154.1272   376.0278 </r>
       <r>     4.3728   160.2880   383.4842 </r>
       <r>     4.4193   165.7412   391.1943 </r>
       <r>     4.4659   170.6532   399.1328 </r>
       <r>     4.5124   175.0221   407.2747 </r>
       <r>     4.5589   178.5633   415.5812 </r>
       <r>     4.6054   180.9441   423.9985 </r>
       <r>     4.6519   182.1682   432.4727 </r>
       <r>     4.6985   182.7664   440.9748 </r>
       <r>     4.7450   183.6539   449.5181 </r>
       <r>     4.7915   185.8098   458.1618 </r>
       <r>     4.8380   189.9771   466.9993 </r>
       <r>     4.8845   196.4131   476.1361 </r>
       <r>     4.9310   204.6504   485.6562 </r>
       <r>     4.9776   213.4023   495.5834 </r>
       <r>     5.0241   220.8813   505.8586 </r>
       <r>     5.0706   225.5914   516.3528 </r>
       <r>     5.1171   227.2170   526.9226 </r>
       <r>     5.1636   227.0113   537.4829 </r>
       <r>     5.2102   227.3436   548.0586 </r>
       <r>     5.2567   230.5742   558.7847 </r>
       <r>     5.3032   237.7987   569.8468 </r>
       <r>     5.3497   248.0487   581.3857 </r>
       <r>     5.3962   258.3583   593.4042 </r>
       <r>     5.4428   264.7901   605.7219 </r>
       <r>     5.4893   264.0719   618.0062 </r>
       <r>     5.5358   255.0690   629.8717 </r>
       <r>     5.5823   239.2660   641.0020 </r>
       <r>     5.6288   219.9740   651.2349 </r>
       <r>     5.6753   200.7969   660.5757 </r>
       <r>     5.7219   184.3067   669.1495 </r>
       <r>     5.7684   171.5658   677.1305 </r>
       <r>     5.8149   162.4463   684.6873 </r>
       <r>     5.8614   156.2445   691.9556 </r>
       <r>     5.9079   152.1623   699.0340 </r>
       <r>     5.9545   149.5578   705.9912 </r>
       <r>     6.0010   148.0865   712.8800 </r>
       <r>     6.0475   147.7983   719.7554 </r>
       <r>     6.0940   149.1143   726.6920 </r>
       <r>     6.1405   152.5926   733.7904 </r>
       <r>     6.1871   158.5469   741.1658 </r>
       <r>     6.2336   166.7432   748.9225 </r>
       <r>     6.2801   176.3837   757.1277 </r>
       <r>     6.3266   186.3930   765.7984 </r>
       <r>     6.3731   195.7901   774.9063 </r>
       <r>     6.4196   203.8734   784.3903 </r>
       <r>     6.4662   210.1261   794.1651 </r>
       <r>     6.5127   214.0332   804.1216 </r>
       <r>     6.5592   215.0963   814.1276 </r>
       <r>     6.6057   213.1265   824.0420 </r>
       <r>     6.6522   208.5542   833.7437 </r>
       <r>     6.6988   202.4112   843.1596 </r>
       <r>     6.7453   195.9227   852.2737 </r>
       <r>     6.7918   190.0136   861.1129 </r>
       <r>     6.8383   185.0864   869.7229 </r>
       <r>     6.8848   181.1476   878.1496 </r>
       <r>     6.9314   178.0672   886.4331 </r>
       <r>     6.9779   175.7403   894.6083 </r>
       <r>     7.0244   174.1132   902.7078 </r>
       <r>     7.0709   173.1718   910.7636 </r>
       <r>     7.1174   172.9510   918.8090 </r>
       <r>     7.1639   173.5304   926.8814 </r>
       <r>     7.2105   174.9806   935.0213 </r>
       <r>     7.2570   177.3021   943.2692 </r>
       <r>     7.3035   180.4238   951.6623 </r>
       <r>     7.3500   184.2463   960.2332 </r>
       <r>     7.3965   188.6248   969.0078 </r>
       <r>     7.4431   193.2012   977.9953 </r>
       <r>     7.4896   197.0932   987.1638 </r>
       <r>     7.5361   198.5840   996.4017 </r>
       <r>     7.5826   195.0966  1005.4773 </r>
       <r>     7.6291   183.7778  1014.0264 </r>
       <r>     7.6757   162.7580  1021.5977 </r>
       <r>     7.7222   132.5747  1027.7649 </r>
       <r>     7.7687    96.7854  1032.2673 </r>
       <r>     7.8152    61.0545  1035.1074 </r>
       <r>     7.8617    31.0004  1036.5495 </r>
       <r>     7.9082    10.0412  1037.0166 </r>
       <r>     7.9548    -1.5102  1036.9464 </r>
       <r>     8.0013    -5.7791  1036.6776 </r>
       <r>     8.0478    -5.8045  1036.4075 </r>
       <r>     8.0943    -4.1831  1036.2129 </r>
       <r>     8.1408    -2.4646  1036.0983 </r>
       <r>     8.1874    -1.2421  1036.0405 </r>
       <r>     8.2339    -0.5475  1036.0150 </r>
       <r>     8.2804    -0.2142  1036.0051 </r>
       <r>     8.3269    -0.0753  1036.0016 </r>
       <r>     8.3734    -0.0241  1036.0005 </r>
       <r>     8.4200    -0.0071  1036.0001 </r>
       <r>     8.4665    -0.0020  1036.0000 </r>
       <r>     8.5130    -0.0005  1036.0000 </r>
       <r>     8.5595    -0.0001  1036.0000 </r>
       <r>     8.6060    -0.0000  1036.0000 </r>
       <r>     8.6525    -0.0000  1036.0000 </r>
       <r>     8.6991    -0.0000  1036.0000 </r>
       <r>     8.7456    -0.0000  1036.0000 </r>
       <r>     8.7921    -0.0000  1036.0000 </r>
       <r>     8.8386    -0.0000  1036.0000 </r>
       <r>     8.8851    -0.0000  1036.0000 </r>
       <r>     8.9317    -0.0000  1036.0000 </r>
       <r>     8.9782    -0.0000  1036.0000 </r>
       <r>     9.0247    -0.0000  1036.0000 </r>
       <r>     9.0712    -0.0000  1036.0000 </r>
       <r>     9.1177    -0.0000  1036.0000 </r>
       <r>     9.1643    -0.0000  1036.0000 </r>
       <r>     9.2108    -0.0000  1036.0000 </r>
       <r>     9.2573     0.0000  1036.0000 </r>
       <r>     9.3038     0.0000  1036.0000 </r>
       <r>     9.3503     0.0000  1036.0000 </r>
       <r>     9.3968     0.0000  1036.0000 </r>
       <r>     9.4434     0.0000  1036.0000 </r>
       <r>     9.4899     0.0000  1036.0000 </r>
       <r>     9.5364     0.0000  1036.0000 </r>
       <r>     9.5829     0.0000  1036.0000 </r>
       <r>     9.6294     0.0000  1036.0000 </r>
       <r>     9.6760     0.0000  1036.0000 </r>
       <r>     9.7225     0.0000  1036.0000 </r>
       <r>     9.7690     0.0000  1036.0000 </r>
       <r>     9.8155     0.0000  1036.0000 </r>
       <r>     9.8620     0.0000  1036.0000 </r>
       <r>     9.9086     0.0000  1036.0000 </r>
       <r>     9.9551     0.0000  1036.0000 </r>
      </set>
     </set>
    </array>
   </total>
  </dos>
 </calculation>
 <structure name="finalpos" >
  <crystal>
   <varray name="basis" >
    <v>      10.33484705       0.00000000       0.00000000 </v>
    <v>       0.00000000      10.33484705       0.00000000 </v>
    <v>       0.00000000       0.00000000      10.33484705 </v>
   </varray>
   <i name="volume">   1103.85533447 </i>
   <varray name="rec_basis" >
    <v>       0.09676002       0.00000000       0.00000000 </v>
    <v>       0.00000000       0.09676002       0.00000000 </v>
    <v>       0.00000000       0.00000000       0.09676002 </v>
   </varray>
  </crystal>
  <varray name="positions" >
   <v>       0.00000000       0.00000000       0.00000000 </v>
   <v>       0.00000000       0.16666893       0.16666893 </v>
   <v>       0.16666893       0.00000000       0.16666893 </v>
   <v>       0.16666893       0.16666893       0.00000000 </v>
   <v>       0.33333106       0.00000000       0.00000000 </v>
   <v>       0.33333107       0.16666893       0.16666893 </v>
   <v>       0.50000000       0.00000000       0.16666894 </v>
   <v>       0.50000000       0.16666894       0.00000000 </v>
   <v>       0.66666897       0.00000000       0.00000000 </v>
   <v>       0.66666896       0.16666893       0.16666893 </v>
   <v>       0.83333104       0.00000000       0.16666893 </v>
   <v>       0.83333104       0.16666893       0.00000000 </v>
   <v>       0.00000000       0.33333106       0.00000000 </v>
   <v>       0.00000000       0.50000000       0.16666894 </v>
   <v>       0.16666893       0.33333107       0.16666893 </v>
   <v>       0.16666894       0.50000000       0.00000000 </v>
   <v>       0.33333107       0.33333107       0.00000000 </v>
   <v>       0.33333107       0.50000000       0.16666893 </v>
   <v>       0.50000000       0.33333107       0.16666893 </v>
   <v>       0.50000000       0.50000000       0.00000000 </v>
   <v>       0.66666896       0.33333107       0.00000000 </v>
   <v>       0.66666896       0.50000000       0.16666893 </v>
   <v>       0.83333104       0.33333107       0.16666893 </v>
   <v>       0.83333103       0.50000000       0.00000000 </v>
   <v>       0.00000000       0.66666897       0.00000000 </v>
   <v>       0.00000000       0.83333104       0.16666893 </v>
   <v>       0.16666893       0.66666896       0.16666893 </v>
   <v>       0.16666893       0.83333104       0.00000000 </v>
   <v>       0.33333107       0.66666896       0.00000000 </v>
   <v>       0.33333107       0.83333104       0.16666893 </v>
   <v>       0.50000000       0.66666896       0.16666893 </v>
   <v>       0.50000000       0.83333103       0.00000000 </v>
   <v>       0.66666896       0.66666896       0.00000000 </v>
   <v>       0.66666896       0.83333104       0.16666893 </v>
   <v>       0.83333104       0.66666896       0.16666893 </v>
   <v>       0.83333104       0.83333104       0.00000000 </v>
   <v>       0.00000000       0.00000000       0.33333106 </v>
   <v>       0.00000000       0.16666894       0.50000000 </v>
   <v>       0.16666894       0.00000000       0.50000000 </v>
   <v>       0.16666893       0.16666893       0.33333107 </v>
   <v>       0.33333107       0.00000000       0.33333107 </v>
   <v>       0.33333107       0.16666893       0.50000000 </v>
   <v>       0.50000000       0.00000000       0.50000000 </v>
   <v>       0.50000000       0.16666893       0.33333107 </v>
   <v>       0.66666896       0.00000000       0.33333107 </v>
   <v>       0.66666896       0.16666893       0.50000000 </v>
   <v>       0.83333103       0.00000000       0.50000000 </v>
   <v>       0.83333104       0.16666893       0.33333107 </v>
   <v>       0.00000000       0.33333107       0.33333107 </v>
   <v>       0.00000000       0.50000000       0.50000000 </v>
   <v>       0.16666893       0.33333107       0.50000000 </v>
   <v>       0.16666893       0.50000000       0.33333107 </v>
   <v>       0.33333107       0.33333107       0.33333107 </v>
   <v>       0.33333106       0.50000000       0.50000000 </v>
   <v>       0.50000000       0.33333106       0.50000000 </v>
   <v>       0.50000000       0.50000000       0.33333106 </v>
   <v>       0.66666896       0.33333107       0.33333107 </v>
   <v>       0.66666897       0.50000000       0.50000000 </v>
   <v>       0.83333104       0.33333107       0.50000000 </v>
   <v>       0.83333104       0.50000000       0.33333107 </v>
   <v>       0.00000000       0.66666896       0.33333107 </v>
   <v>       0.00000000       0.83333103       0.50000000 </v>
   <v>       0.16666893       0.66666896       0.50000000 </v>
   <v>       0.16666893       0.83333104       0.33333107 </v>
   <v>       0.33333107       0.66666896       0.33333107 </v>
   <v>       0.33333107       0.83333104       0.50000000 </v>
   <v>       0.50000000       0.66666897       0.50000000 </v>
   <v>       0.50000000       0.83333104       0.33333107 </v>
   <v>       0.66666896       0.66666896       0.33333107 </v>
   <v>       0.66666896       0.83333104       0.50000000 </v>
   <v>       0.83333104       0.66666896       0.50000000 </v>
   <v>       0.83333104       0.83333104       0.33333107 </v>
   <v>       0.00000000       0.00000000       0.66666897 </v>
   <v>       0.00000000       0.16666893       0.83333104 </v>
   <v>       0.16666893       0.00000000       0.83333104 </v>
   <v>       0.16666893       0.16666893       0.66666896 </v>
   <v>       0.33333107       0.00000000       0.66666896 </v>
   <v>       0.33333107       0.16666893       0.83333104 </v>
   <v>       0.50000000       0.00000000       0.83333103 </v>
   <v>       0.50000000       0.16666893       0.66666896 </v>
   <v>       0.66666896       0.00000000       0.66666896 </v>
   <v>       0.66666896       0.16666893       0.83333104 </v>
   <v>       0.83333104       0.00000000       0.83333104 </v>
   <v>       0.83333104       0.16666893       0.66666896 </v>
   <v>       0.00000000       0.33333107       0.66666896 </v>
   <v>       0.00000000       0.50000000       0.83333103 </v>
   <v>       0.16666893       0.33333107       0.83333104 </v>
   <v>       0.16666893       0.50000000       0.66666896 </v>
   <v>       0.33333107       0.33333107       0.66666896 </v>
   <v>       0.33333107       0.50000000       0.83333104 </v>
   <v>       0.50000000       0.33333107       0.83333104 </v>
   <v>       0.50000000       0.50000000       0.66666897 </v>
   <v>       0.66666896       0.33333107       0.66666896 </v>
   <v>       0.66666896       0.50000000       0.83333104 </v>
   <v>       0.83333104       0.33333107       0.83333104 </v>
   <v>       0.83333104       0.50000000       0.66666896 </v>
   <v>       0.00000000       0.66666896       0.66666896 </v>
   <v>       0.00000000       0.83333104       0.83333104 </v>
   <v>       0.16666893       0.66666896       0.83333104 </v>
   <v>       0.16666893       0.83333104       0.66666896 </v>
   <v>       0.33333107       0.66666896       0.66666896 </v>
   <v>       0.33333107       0.83333104       0.83333104 </v>
   <v>       0.50000000       0.66666896       0.83333104 </v>
   <v>       0.50000000       0.83333104       0.66666896 </v>
   <v>       0.66666896       0.66666896       0.66666896 </v>
   <v>       0.66666896       0.83333104       0.83333104 </v>
   <v>       0.83333104       0.66666896       0.83333104 </v>
   <v>       0.83333104       0.83333104       0.66666896 </v>
  </varray>
 </structure>
</modeling>
