 108 108   0   0
  0.1022088E+02  0.1033485E-08  0.1033485E-08  0.1033485E-08  0.5000000E-15
  1.000000000000000E-004
  CAR 
 Opt                                     
      9.66594037     -3.93757035  301      6.77676338      1.00000000
     -3.938  0.0000E+00  0.0000E+00
     -3.892  0.0000E+00  0.0000E+00
     -3.847  0.0000E+00  0.0000E+00
     -3.802  0.0000E+00  0.0000E+00
     -3.756  0.0000E+00  0.0000E+00
     -3.711  0.0000E+00  0.0000E+00
     -3.666  0.0000E+00  0.0000E+00
     -3.620  0.0000E+00  0.0000E+00
     -3.575 -0.1003E-29 -0.4546E-31
     -3.529 -0.3691E-28 -0.1719E-29
     -3.484 -0.1254E-26 -0.5859E-28
     -3.439 -0.3842E-25 -0.1801E-26
     -3.393 -0.1060E-23 -0.4988E-25
     -3.348 -0.2637E-22 -0.1246E-23
     -3.303 -0.5909E-21 -0.2804E-22
     -3.257 -0.1193E-19 -0.5688E-21
     -3.212 -0.2168E-18 -0.1040E-19
     -3.167 -0.3550E-17 -0.1714E-18
     -3.121 -0.4927E-16 -0.2405E-17
     -3.076 -0.6760E-15 -0.3306E-16
     -3.031 -0.8018E-14 -0.3966E-15
     -2.985 -0.8591E-13 -0.4292E-14
     -2.940 -0.8275E-12 -0.4182E-13
     -2.895 -0.7164E-11 -0.3667E-12
     -2.849 -0.5571E-10 -0.2893E-11
     -2.804 -0.3889E-09 -0.2053E-10
     -2.759 -0.2436E-08 -0.1310E-09
     -2.713 -0.1367E-07 -0.7510E-09
     -2.668 -0.6872E-07 -0.3867E-08
     -2.623 -0.3089E-06 -0.1787E-07
     -2.577 -0.1239E-05 -0.7406E-07
     -2.532 -0.4428E-05 -0.2748E-06
     -2.487 -0.1406E-04 -0.9122E-06
     -2.441 -0.3948E-04 -0.2702E-05
     -2.396 -0.9759E-04 -0.7128E-05
     -2.350 -0.2106E-03 -0.1668E-04
     -2.305 -0.3913E-03 -0.3442E-04
     -2.260 -0.6109E-03 -0.6212E-04
     -2.214 -0.7579E-03 -0.9649E-04
     -2.169 -0.6204E-03 -0.1246E-03
     -2.124  0.6916E-04 -0.1215E-03
     -2.078  0.1531E-02 -0.5206E-04
     -2.033  0.3853E-02  0.1226E-03
     -1.988  0.7014E-02  0.4407E-03
     -1.942  0.1100E-01  0.9396E-03
     -1.897  0.1585E-01  0.1658E-02
     -1.852  0.2146E-01  0.2631E-02
     -1.806  0.2734E-01  0.3871E-02
     -1.761  0.3263E-01  0.5351E-02
     -1.716  0.3645E-01  0.7004E-02
     -1.670  0.3854E-01  0.8751E-02
     -1.625  0.3931E-01  0.1053E-01
     -1.580  0.3961E-01  0.1233E-01
     -1.534  0.4024E-01  0.1415E-01
     -1.489  0.4174E-01  0.1605E-01
     -1.444  0.4442E-01  0.1806E-01
     -1.398  0.4839E-01  0.2026E-01
     -1.353  0.5364E-01  0.2269E-01
     -1.308  0.5986E-01  0.2540E-01
     -1.262  0.6627E-01  0.2841E-01
     -1.217  0.7136E-01  0.3164E-01
     -1.172  0.7331E-01  0.3497E-01
     -1.126  0.7092E-01  0.3818E-01
     -1.081  0.6471E-01  0.4112E-01
     -1.035  0.5711E-01  0.4371E-01
     -0.990  0.5148E-01  0.4604E-01
     -0.945  0.5056E-01  0.4833E-01
     -0.899  0.5546E-01  0.5085E-01
     -0.854  0.6549E-01  0.5382E-01
     -0.809  0.7880E-01  0.5739E-01
     -0.763  0.9302E-01  0.6161E-01
     -0.718  0.1054E+00  0.6639E-01
     -0.673  0.1131E+00  0.7152E-01
     -0.627  0.1133E+00  0.7665E-01
     -0.582  0.1052E+00  0.8143E-01
     -0.537  0.9109E-01  0.8556E-01
     -0.491  0.7586E-01  0.8900E-01
     -0.446  0.6538E-01  0.9196E-01
     -0.401  0.6363E-01  0.9485E-01
     -0.355  0.7114E-01  0.9807E-01
     -0.310  0.8521E-01  0.1019E+00
     -0.265  0.1014E+00  0.1065E+00
     -0.219  0.1155E+00  0.1118E+00
     -0.174  0.1244E+00  0.1174E+00
     -0.129  0.1267E+00  0.1232E+00
     -0.083  0.1235E+00  0.1288E+00
     -0.038  0.1177E+00  0.1341E+00
      0.007  0.1129E+00  0.1392E+00
      0.053  0.1119E+00  0.1443E+00
      0.098  0.1155E+00  0.1495E+00
      0.143  0.1223E+00  0.1551E+00
      0.189  0.1297E+00  0.1610E+00
      0.234  0.1359E+00  0.1671E+00
      0.280  0.1399E+00  0.1735E+00
      0.325  0.1416E+00  0.1799E+00
      0.370  0.1410E+00  0.1863E+00
      0.416  0.1381E+00  0.1925E+00
      0.461  0.1330E+00  0.1986E+00
      0.506  0.1268E+00  0.2043E+00
      0.552  0.1215E+00  0.2098E+00
      0.597  0.1205E+00  0.2153E+00
      0.642  0.1273E+00  0.2211E+00
      0.688  0.1437E+00  0.2276E+00
      0.733  0.1673E+00  0.2352E+00
      0.778  0.1919E+00  0.2439E+00
      0.824  0.2099E+00  0.2534E+00
      0.869  0.2166E+00  0.2632E+00
      0.914  0.2128E+00  0.2728E+00
      0.960  0.2036E+00  0.2821E+00
      1.005  0.1944E+00  0.2909E+00
      1.050  0.1873E+00  0.2994E+00
      1.096  0.1806E+00  0.3076E+00
      1.141  0.1721E+00  0.3154E+00
      1.186  0.1637E+00  0.3228E+00
      1.232  0.1618E+00  0.3301E+00
      1.277  0.1739E+00  0.3380E+00
      1.322  0.2033E+00  0.3472E+00
      1.368  0.2458E+00  0.3584E+00
      1.413  0.2905E+00  0.3716E+00
      1.458  0.3241E+00  0.3863E+00
      1.504  0.3365E+00  0.4015E+00
      1.549  0.3255E+00  0.4163E+00
      1.595  0.2979E+00  0.4298E+00
      1.640  0.2683E+00  0.4419E+00
      1.685  0.2545E+00  0.4535E+00
      1.731  0.2717E+00  0.4658E+00
      1.776  0.3280E+00  0.4807E+00
      1.821  0.4212E+00  0.4998E+00
      1.867  0.5401E+00  0.5243E+00
      1.912  0.6687E+00  0.5546E+00
      1.957  0.7913E+00  0.5905E+00
      2.003  0.8969E+00  0.6311E+00
      2.048  0.9785E+00  0.6755E+00
      2.093  0.1032E+01  0.7223E+00
      2.139  0.1055E+01  0.7702E+00
      2.184  0.1052E+01  0.8179E+00
      2.229  0.1034E+01  0.8647E+00
      2.275  0.1015E+01  0.9108E+00
      2.320  0.1011E+01  0.9566E+00
      2.365  0.1029E+01  0.1003E+01
      2.411  0.1065E+01  0.1052E+01
      2.456  0.1106E+01  0.1102E+01
      2.501  0.1140E+01  0.1153E+01
      2.547  0.1164E+01  0.1206E+01
      2.592  0.1187E+01  0.1260E+01
      2.637  0.1221E+01  0.1315E+01
      2.683  0.1273E+01  0.1373E+01
      2.728  0.1337E+01  0.1434E+01
      2.773  0.1402E+01  0.1497E+01
      2.819  0.1457E+01  0.1563E+01
      2.864  0.1504E+01  0.1632E+01
      2.910  0.1551E+01  0.1702E+01
      2.955  0.1604E+01  0.1775E+01
      3.000  0.1658E+01  0.1850E+01
      3.046  0.1699E+01  0.1927E+01
      3.091  0.1714E+01  0.2005E+01
      3.136  0.1700E+01  0.2082E+01
      3.182  0.1664E+01  0.2157E+01
      3.227  0.1621E+01  0.2231E+01
      3.272  0.1580E+01  0.2302E+01
      3.318  0.1545E+01  0.2372E+01
      3.363  0.1516E+01  0.2441E+01
      3.408  0.1497E+01  0.2509E+01
      3.454  0.1493E+01  0.2577E+01
      3.499  0.1501E+01  0.2645E+01
      3.544  0.1512E+01  0.2713E+01
      3.590  0.1513E+01  0.2782E+01
      3.635  0.1493E+01  0.2850E+01
      3.680  0.1451E+01  0.2915E+01
      3.726  0.1399E+01  0.2979E+01
      3.771  0.1354E+01  0.3040E+01
      3.816  0.1330E+01  0.3101E+01
      3.862  0.1327E+01  0.3161E+01
      3.907  0.1334E+01  0.3221E+01
      3.952  0.1332E+01  0.3282E+01
      3.998  0.1312E+01  0.3341E+01
      4.043  0.1278E+01  0.3399E+01
      4.089  0.1253E+01  0.3456E+01
      4.134  0.1257E+01  0.3513E+01
      4.179  0.1298E+01  0.3572E+01
      4.225  0.1366E+01  0.3634E+01
      4.270  0.1445E+01  0.3699E+01
      4.315  0.1527E+01  0.3768E+01
      4.361  0.1613E+01  0.3842E+01
      4.406  0.1707E+01  0.3919E+01
      4.451  0.1799E+01  0.4001E+01
      4.497  0.1868E+01  0.4085E+01
      4.542  0.1891E+01  0.4171E+01
      4.587  0.1863E+01  0.4255E+01
      4.633  0.1798E+01  0.4337E+01
      4.678  0.1730E+01  0.4415E+01
      4.723  0.1698E+01  0.4492E+01
      4.769  0.1730E+01  0.4571E+01
      4.814  0.1831E+01  0.4654E+01
      4.859  0.1980E+01  0.4744E+01
      4.905  0.2138E+01  0.4841E+01
      4.950  0.2263E+01  0.4943E+01
      4.995  0.2330E+01  0.5049E+01
      5.041  0.2339E+01  0.5155E+01
      5.086  0.2308E+01  0.5260E+01
      5.131  0.2264E+01  0.5362E+01
      5.177  0.2234E+01  0.5463E+01
      5.222  0.2235E+01  0.5565E+01
      5.267  0.2280E+01  0.5668E+01
      5.313  0.2370E+01  0.5776E+01
      5.358  0.2493E+01  0.5889E+01
      5.404  0.2614E+01  0.6007E+01
      5.449  0.2688E+01  0.6129E+01
      5.494  0.2672E+01  0.6250E+01
      5.540  0.2553E+01  0.6366E+01
      5.585  0.2355E+01  0.6473E+01
      5.630  0.2130E+01  0.6569E+01
      5.676  0.1930E+01  0.6657E+01
      5.721  0.1781E+01  0.6738E+01
      5.766  0.1679E+01  0.6814E+01
      5.812  0.1601E+01  0.6886E+01
      5.857  0.1529E+01  0.6956E+01
      5.902  0.1460E+01  0.7022E+01
      5.948  0.1410E+01  0.7086E+01
      5.993  0.1398E+01  0.7149E+01
      6.038  0.1434E+01  0.7214E+01
      6.084  0.1510E+01  0.7283E+01
      6.129  0.1607E+01  0.7356E+01
      6.174  0.1701E+01  0.7433E+01
      6.220  0.1780E+01  0.7513E+01
      6.265  0.1842E+01  0.7597E+01
      6.310  0.1900E+01  0.7683E+01
      6.356  0.1963E+01  0.7772E+01
      6.401  0.2034E+01  0.7864E+01
      6.446  0.2096E+01  0.7959E+01
      6.492  0.2130E+01  0.8056E+01
      6.537  0.2125E+01  0.8152E+01
      6.582  0.2093E+01  0.8247E+01
      6.628  0.2058E+01  0.8341E+01
      6.673  0.2036E+01  0.8433E+01
      6.719  0.2021E+01  0.8525E+01
      6.764  0.1989E+01  0.8615E+01
      6.809  0.1921E+01  0.8702E+01
      6.855  0.1821E+01  0.8784E+01
      6.900  0.1721E+01  0.8863E+01
      6.945  0.1658E+01  0.8938E+01
      6.991  0.1653E+01  0.9013E+01
      7.036  0.1696E+01  0.9090E+01
      7.081  0.1757E+01  0.9169E+01
      7.127  0.1808E+01  0.9251E+01
      7.172  0.1838E+01  0.9335E+01
      7.217  0.1852E+01  0.9419E+01
      7.263  0.1866E+01  0.9503E+01
      7.308  0.1895E+01  0.9589E+01
      7.353  0.1946E+01  0.9677E+01
      7.399  0.2019E+01  0.9769E+01
      7.444  0.2096E+01  0.9864E+01
      7.489  0.2146E+01  0.9961E+01
      7.535  0.2126E+01  0.1006E+02
      7.580  0.1995E+01  0.1015E+02
      7.625  0.1738E+01  0.1023E+02
      7.671  0.1374E+01  0.1029E+02
      7.716  0.9605E+00  0.1033E+02
      7.761  0.5677E+00  0.1036E+02
      7.807  0.2559E+00  0.1037E+02
      7.852  0.5308E-01  0.1037E+02
      7.897 -0.4762E-01  0.1037E+02
      7.943 -0.7575E-01  0.1037E+02
      7.988 -0.6579E-01  0.1036E+02
      8.034 -0.4407E-01  0.1036E+02
      8.079 -0.2468E-01  0.1036E+02
      8.124 -0.1192E-01  0.1036E+02
      8.170 -0.5039E-02  0.1036E+02
      8.215 -0.1883E-02  0.1036E+02
      8.260 -0.6248E-03  0.1036E+02
      8.306 -0.1848E-03  0.1036E+02
      8.351 -0.4886E-04  0.1036E+02
      8.396 -0.1156E-04  0.1036E+02
      8.442 -0.2453E-05  0.1036E+02
      8.487 -0.4671E-06  0.1036E+02
      8.532 -0.7987E-07  0.1036E+02
      8.578 -0.1227E-07  0.1036E+02
      8.623 -0.1696E-08  0.1036E+02
      8.668 -0.2108E-09  0.1036E+02
      8.714 -0.2358E-10  0.1036E+02
      8.759 -0.2375E-11  0.1036E+02
      8.804 -0.2154E-12  0.1036E+02
      8.850 -0.1747E-13  0.1036E+02
      8.895 -0.1445E-14  0.1036E+02
      8.940  0.0000E+00  0.1036E+02
      8.986  0.0000E+00  0.1036E+02
      9.031  0.0000E+00  0.1036E+02
      9.076  0.0000E+00  0.1036E+02
      9.122  0.0000E+00  0.1036E+02
      9.167  0.0000E+00  0.1036E+02
      9.212  0.0000E+00  0.1036E+02
      9.258  0.0000E+00  0.1036E+02
      9.303  0.0000E+00  0.1036E+02
      9.349  0.0000E+00  0.1036E+02
      9.394  0.0000E+00  0.1036E+02
      9.439  0.0000E+00  0.1036E+02
      9.485  0.0000E+00  0.1036E+02
      9.530  0.0000E+00  0.1036E+02
      9.575  0.0000E+00  0.1036E+02
      9.621  0.0000E+00  0.1036E+02
      9.666  0.0000E+00  0.1036E+02
