  108  108  100    1
  0.1022088E+02  0.1033485E-08  0.1033485E-08  0.1033485E-08  0.5000000E-15
  1.000000000000000E-004
  CAR 
 Opt                                     
    864      4    518
 
  0.1250000E+00  0.1250000E+00  0.1250000E+00  0.1250000E+00
    1       -1.937570   1.000000
    2       -0.806862   1.000000
    3       -0.806862   1.000000
    4       -0.806862   1.000000
    5       -0.124252   1.000000
    6       -0.124252   1.000000
    7       -0.124252   1.000000
    8        0.207897   1.000000
    9        0.207897   1.000000
   10        0.207897   1.000000
   11        0.814086   1.000000
   12        0.814086   1.000000
   13        0.814086   1.000000
   14        0.814086   1.000000
   15        0.814086   1.000000
   16        0.814086   1.000000
   17        0.920902   1.000000
   18        1.316515   1.000000
   19        1.316515   1.000000
   20        1.316515   1.000000
   21        1.363022   1.000000
   22        1.363022   1.000000
   23        1.363022   1.000000
   24        1.584793   1.000000
   25        1.584793   1.000000
   26        1.584793   1.000000
   27        1.718449   1.000000
   28        1.790079   1.000000
   29        1.790079   1.000000
   30        1.790079   1.000000
   31        1.891360   1.000000
   32        1.891362   1.000000
   33        1.891362   1.000000
   34        1.986254   1.000000
   35        1.986254   1.000000
   36        1.986254   1.000000
   37        2.343075   1.000000
   38        2.343076   1.000000
   39        2.343076   1.000000
   40        2.465336   1.000000
   41        2.465336   1.000000
   42        2.465336   1.000000
   43        2.465337   1.000000
   44        2.465337   1.000000
   45        2.465337   1.000000
   46        2.480010   1.000000
   47        2.480010   1.000000
   48        2.480010   1.000000
   49        2.525349   1.000000
   50        2.525349   1.000000
   51        2.525349   1.000000
   52        2.525351   1.000000
   53        2.525351   1.000000
   54        2.525351   1.000000
   55        2.548794   1.000000
   56        2.548794   1.000000
   57        2.548794   1.000000
   58        2.548795   1.000000
   59        2.548795   1.000000
   60        2.548795   1.000000
   61        2.625500   1.000000
   62        2.625500   1.000000
   63        2.625500   1.000000
   64        2.628003   1.000000
   65        2.628003   1.000000
   66        2.628003   1.000000
   67        2.719937   1.000000
   68        2.719937   1.000000
   69        2.719937   1.000000
   70        2.719938   1.000000
   71        2.719938   1.000000
   72        2.719938   1.000000
   73        2.759220   1.000000
   74        2.759220   1.000000
   75        2.759220   1.000000
   76        2.759221   1.000000
   77        2.759221   1.000000
   78        2.759221   1.000000
   79        2.762165   1.000000
   80        2.762166   1.000000
   81        2.762166   1.000000
   82        2.817327   1.000000
   83        2.817327   1.000000
   84        2.817327   1.000000
   85        2.817329   1.000000
   86        2.817329   1.000000
   87        2.817329   1.000000
   88        2.927695   1.000000
   89        2.927695   1.000000
   90        2.927695   1.000000
   91        2.927696   1.000000
   92        2.927696   1.000000
   93        2.927696   1.000000
   94        3.042535   1.000000
   95        3.042535   1.000000
   96        3.042535   1.000000
   97        3.060115   1.000000
   98        3.060115   1.000000
   99        3.060115   1.000000
  100        3.091938   1.000000
  101        3.091938   1.000000
  102        3.091938   1.000000
  103        3.091938   1.000000
  104        3.091938   1.000000
  105        3.091938   1.000000
  106        3.153649   1.000000
  107        3.153649   1.000000
  108        3.153649   1.000000
  109        3.153650   1.000000
  110        3.153650   1.000000
  111        3.153650   1.000000
  112        3.317803   1.000000
  113        3.317803   1.000000
  114        3.317803   1.000000
  115        3.317807   1.000000
  116        3.317807   1.000000
  117        3.317807   1.000000
  118        3.326497   1.000000
  119        3.326498   1.000000
  120        3.326498   1.000000
  121        3.429723   1.000000
  122        3.429724   1.000000
  123        3.429724   1.000000
  124        3.432722   1.000000
  125        3.432722   1.000000
  126        3.432722   1.000000
  127        3.477830   1.000000
  128        3.477830   1.000000
  129        3.477830   1.000000
  130        3.477831   1.000000
  131        3.477831   1.000000
  132        3.477831   1.000000
  133        3.502330   1.000000
  134        3.502330   1.000000
  135        3.502330   1.000000
  136        3.502330   1.000000
  137        3.502330   1.000000
  138        3.502330   1.000000
  139        3.556058   1.000000
  140        3.556058   1.000000
  141        3.556058   1.000000
  142        3.556060   1.000000
  143        3.556060   1.000000
  144        3.556061   1.000000
  145        3.674714   1.000000
  146        3.674714   1.000000
  147        3.674714   1.000000
  148        3.674714   1.000000
  149        3.674714   1.000000
  150        3.674714   1.000000
  151        3.713290   1.000000
  152        3.713290   1.000000
  153        3.713290   1.000000
  154        3.736934   1.000000
  155        3.736934   1.000000
  156        3.736934   1.000000
  157        3.736934   1.000000
  158        3.736934   1.000000
  159        3.736934   1.000000
  160        3.889903   1.000000
  161        3.889903   1.000000
  162        3.889903   1.000000
  163        3.889905   1.000000
  164        3.889905   1.000000
  165        3.889905   1.000000
  166        3.906818   1.000000
  167        3.906820   1.000000
  168        3.906820   1.000000
  169        4.097685   1.000000
  170        4.097685   1.000000
  171        4.097685   1.000000
  172        4.097686   1.000000
  173        4.097686   1.000000
  174        4.097686   1.000000
  175        4.237385   1.000000
  176        4.237385   1.000000
  177        4.237385   1.000000
  178        4.255751   1.000000
  179        4.255751   1.000000
  180        4.255751   1.000000
  181        4.288861   1.000000
  182        4.288861   1.000000
  183        4.288861   1.000000
  184        4.303466   1.000000
  185        4.303466   1.000000
  186        4.303466   1.000000
  187        4.303467   1.000000
  188        4.303467   1.000000
  189        4.303467   1.000000
  190        4.311822   1.000000
  191        4.311822   1.000000
  192        4.311822   1.000000
  193        4.436190   1.000000
  194        4.436191   1.000000
  195        4.436191   1.000000
  196        4.436191   1.000000
  197        4.436191   1.000000
  198        4.436191   1.000000
  199        4.456640   1.000000
  200        4.456640   1.000000
  201        4.456640   1.000000
  202        4.463103   1.000000
  203        4.463104   1.000000
  204        4.463104   1.000000
  205        4.463105   1.000000
  206        4.463105   1.000000
  207        4.463105   1.000000
  208        4.475393   1.000000
  209        4.475393   1.000000
  210        4.475393   1.000000
  211        4.475394   1.000000
  212        4.475394   1.000000
  213        4.475394   1.000000
  214        4.593409   1.000000
  215        4.593409   1.000000
  216        4.593409   1.000000
  217        4.618214   1.000000
  218        4.618216   1.000000
  219        4.618216   1.000000
  220        4.632294   1.000000
  221        4.632294   1.000000
  222        4.632294   1.000000
  223        4.723013   1.000000
  224        4.804324   1.000000
  225        4.804324   1.000000
  226        4.804324   1.000000
  227        4.804324   1.000000
  228        4.804324   1.000000
  229        4.804324   1.000000
  230        4.812234   1.000000
  231        4.812234   1.000000
  232        4.812235   1.000000
  233        4.812237   1.000000
  234        4.812237   1.000000
  235        4.812237   1.000000
  236        4.818350   1.000000
  237        4.818350   1.000000
  238        4.818351   1.000000
  239        4.954462   1.000000
  240        4.954462   1.000000
  241        4.954462   1.000000
  242        4.954464   1.000000
  243        4.954464   1.000000
  244        4.954464   1.000000
  245        5.049210   1.000000
  246        5.049210   1.000000
  247        5.049210   1.000000
  248        5.054330   1.000000
  249        5.054330   1.000000
  250        5.054333   1.000000
  251        5.058550   1.000000
  252        5.058550   1.000000
  253        5.058550   1.000000
  254        5.058551   1.000000
  255        5.058551   1.000000
  256        5.058551   1.000000
  257        5.084689   1.000000
  258        5.084689   1.000000
  259        5.084690   1.000000
  260        5.111926   1.000000
  261        5.111926   1.000000
  262        5.111926   1.000000
  263        5.111927   1.000000
  264        5.111927   1.000000
  265        5.111928   1.000000
  266        5.126682   1.000000
  267        5.155158   1.000000
  268        5.155158   1.000000
  269        5.155158   1.000000
  270        5.155563   1.000000
  271        5.155563   1.000000
  272        5.155564   1.000000
  273        5.176810   1.000000
  274        5.176810   1.000000
  275        5.194919   1.000000
  276        5.194919   1.000000
  277        5.212033   1.000000
  278        5.212034   1.000000
  279        5.212034   1.000000
  280        5.212034   1.000000
  281        5.212034   1.000000
  282        5.212035   1.000000
  283        5.227896   1.000000
  284        5.227899   1.000000
  285        5.227899   1.000000
  286        5.273812   1.000000
  287        5.273812   1.000000
  288        5.273839   1.000000
  289        5.275785   1.000000
  290        5.275812   1.000000
  291        5.275812   1.000000
  292        5.293218   1.000000
  293        5.293218   1.000000
  294        5.293218   1.000000
  295        5.293219   1.000000
  296        5.293219   1.000000
  297        5.293219   1.000000
  298        5.321279   1.000000
  299        5.321279   1.000000
  300        5.321279   1.000000
  301        5.352050   1.000000
  302        5.352050   1.000000
  303        5.352051   1.000000
  304        5.364763   1.000000
  305        5.364763   1.000000
  306        5.405375   1.000000
  307        5.405376   1.000000
  308        5.405376   1.000000
  309        5.407450   1.000000
  310        5.407450   1.000000
  311        5.407450   1.000000
  312        5.543442   1.000000
  313        5.559567   1.000000
  314        5.559567   1.000000
  315        5.559568   1.000000
  316        5.575424   1.000000
  317        5.575424   1.000000
  318        5.575424   1.000000
  319        5.582913   1.000000
  320        5.582913   1.000000
  321        5.582913   1.000000
  322        5.582914   1.000000
  323        5.582914   1.000000
  324        5.582914   1.000000
  325        5.584885   1.000000
  326        5.584885   1.000000
  327        5.584885   1.000000
  328        5.609409   1.000000
  329        5.609409   1.000000
  330        5.609409   1.000000
  331        5.724749   1.000000
  332        5.724749   1.000000
  333        5.724749   1.000000
  334        5.727696   1.000000
  335        5.727696   1.000000
  336        5.727696   1.000000
  337        5.734127   1.000000
  338        5.734127   1.000000
  339        5.734127   1.000000
  340        5.734128   1.000000
  341        5.734128   1.000000
  342        5.734128   1.000000
  343        5.751773   1.000000
  344        5.751773   1.000000
  345        5.751773   1.000000
  346        5.801457   1.000000
  347        5.801457   1.000000
  348        5.801457   1.000000
  349        5.801458   1.000000
  350        5.801458   1.000000
  351        5.801459   1.000000
  352        5.845793   1.000000
  353        5.845793   1.000000
  354        5.845793   1.000000
  355        5.883210   1.000000
  356        5.883210   1.000000
  357        5.883210   1.000000
  358        5.883212   1.000000
  359        5.883212   1.000000
  360        5.883212   1.000000
  361        5.915485   1.000000
  362        5.915485   1.000000
  363        5.915485   1.000000
  364        5.961606   1.000000
  365        5.961607   1.000000
  366        5.961607   1.000000
  367        6.063632   1.000003
  368        6.063632   1.000003
  369        6.063633   1.000003
  370        6.090577   1.000007
  371        6.090577   1.000007
  372        6.090577   1.000007
  373        6.224634   1.000334
  374        6.224634   1.000334
  375        6.224634   1.000334
  376        6.224756   1.000335
  377        6.224756   1.000335
  378        6.224756   1.000335
  379        6.226186   1.000348
  380        6.226186   1.000348
  381        6.226186   1.000348
  382        6.229520   1.000378
  383        6.229520   1.000378
  384        6.229520   1.000378
  385        6.231147   1.000394
  386        6.231147   1.000394
  387        6.231147   1.000394
  388        6.308428   1.002281
  389        6.308429   1.002281
  390        6.308429   1.002281
  391        6.411336   1.013410
  392        6.411336   1.013410
  393        6.411336   1.013410
  394        6.411336   1.013410
  395        6.411337   1.013410
  396        6.411337   1.013410
  397        6.479122   1.028174
  398        6.479122   1.028174
  399        6.479122   1.028174
  400        6.479122   1.028174
  401        6.479123   1.028174
  402        6.479123   1.028174
  403        6.603503   1.005119
  404        6.603503   1.005119
  405        6.603503   1.005119
  406        6.603504   1.005118
  407        6.603504   1.005118
  408        6.603504   1.005118
  409        6.623495   0.980928
  410        6.623495   0.980928
  411        6.623495   0.980928
  412        6.623496   0.980927
  413        6.623496   0.980927
  414        6.623496   0.980927
  415        6.669526   0.889321
  416        6.669526   0.889321
  417        6.669542   0.889282
  418        6.679776   0.861712
  419        6.679790   0.861673
  420        6.679790   0.861673
  421        6.698502   0.804715
  422        6.698502   0.804715
  423        6.783986   0.469461
  424        6.783986   0.469461
  425        6.783986   0.469461
  426        6.783987   0.469456
  427        6.783987   0.469456
  428        6.783987   0.469456
  429        6.856329   0.191050
  430        6.856329   0.191050
  431        6.856330   0.191049
  432        6.856330   0.191046
  433        6.856331   0.191046
  434        6.856331   0.191046
  435        6.865826   0.161398
  436        6.865827   0.161396
  437        6.865827   0.161396
  438        6.902302   0.067946
  439        6.902302   0.067946
  440        6.902302   0.067946
  441        7.013802  -0.035204
  442        7.013802  -0.035204
  443        7.013802  -0.035204
  444        7.013803  -0.035204
  445        7.013803  -0.035204
  446        7.013803  -0.035204
  447        7.024456  -0.035429
  448        7.024456  -0.035429
  449        7.024456  -0.035429
  450        7.028535  -0.035287
  451        7.028535  -0.035287
  452        7.052686  -0.032491
  453        7.052686  -0.032491
  454        7.052686  -0.032491
  455        7.052687  -0.032491
  456        7.052687  -0.032491
  457        7.052687  -0.032491
  458        7.078391  -0.027287
  459        7.078391  -0.027287
  460        7.078392  -0.027287
  461        7.078392  -0.027287
  462        7.078393  -0.027287
  463        7.078393  -0.027287
  464        7.116369  -0.018634
  465        7.116369  -0.018634
  466        7.116370  -0.018633
  467        7.128602  -0.016048
  468        7.128602  -0.016048
  469        7.128602  -0.016048
  470        7.191107  -0.006298
  471        7.191108  -0.006298
  472        7.191108  -0.006298
  473        7.210673  -0.004451
  474        7.210674  -0.004451
  475        7.210674  -0.004451
  476        7.238787  -0.002592
  477        7.238787  -0.002592
  478        7.238787  -0.002592
  479        7.243800  -0.002342
  480        7.243801  -0.002342
  481        7.243801  -0.002342
  482        7.301560  -0.000654
  483        7.301564  -0.000654
  484        7.301564  -0.000654
  485        7.340249  -0.000250
  486        7.340251  -0.000250
  487        7.340255  -0.000250
  488        7.340257  -0.000250
  489        7.340261  -0.000250
  490        7.340261  -0.000250
  491        7.372485  -0.000105
  492        7.372487  -0.000105
  493        7.372495  -0.000105
  494        7.372507  -0.000105
  495        7.372519  -0.000105
  496        7.372539  -0.000105
  497        7.434885  -0.000017
  498        7.434886  -0.000017
  499        7.434892  -0.000017
  500        7.434912  -0.000017
  501        7.434996  -0.000017
  502        7.435095  -0.000017
  503        7.452416  -0.000010
  504        7.452467  -0.000010
  505        7.454913  -0.000009
  506        7.455019  -0.000009
  507        7.455498  -0.000009
  508        7.544527  -0.000000
  509        7.545094  -0.000000
  510        7.545952  -0.000000
  511        7.547569  -0.000000
  512        7.547716  -0.000000
  513        7.547797  -0.000000
  514        7.547929  -0.000000
  515        7.548047  -0.000000
  516        7.554058  -0.000000
  517        7.558521  -0.000000
  518        7.571420  -0.000000
 
  0.3750000E+00  0.1250000E+00  0.1250000E+00  0.3750000E+00
    1       -1.741570   1.000000
    2       -1.358169   1.000000
    3       -0.629886   1.000000
    4       -0.629886   1.000000
    5       -0.285012   1.000000
    6       -0.285012   1.000000
    7        0.040973   1.000000
    8        0.040973   1.000000
    9        0.337076   1.000000
   10        0.361124   1.000000
   11        0.361124   1.000000
   12        0.582937   1.000000
   13        0.622128   1.000000
   14        0.908189   1.000000
   15        0.908189   1.000000
   16        1.083127   1.000000
   17        1.083127   1.000000
   18        1.312726   1.000000
   19        1.404139   1.000000
   20        1.475927   1.000000
   21        1.475927   1.000000
   22        1.480051   1.000000
   23        1.730973   1.000000
   24        1.870952   1.000000
   25        1.870956   1.000000
   26        1.886309   1.000000
   27        1.930551   1.000000
   28        1.930551   1.000000
   29        1.936294   1.000000
   30        1.953016   1.000000
   31        1.953016   1.000000
   32        1.993506   1.000000
   33        2.011377   1.000000
   34        2.011378   1.000000
   35        2.094014   1.000000
   36        2.099715   1.000000
   37        2.099715   1.000000
   38        2.121776   1.000000
   39        2.121777   1.000000
   40        2.128441   1.000000
   41        2.166254   1.000000
   42        2.166256   1.000000
   43        2.195445   1.000000
   44        2.195445   1.000000
   45        2.234933   1.000000
   46        2.234934   1.000000
   47        2.278475   1.000000
   48        2.278475   1.000000
   49        2.377525   1.000000
   50        2.377526   1.000000
   51        2.479823   1.000000
   52        2.479823   1.000000
   53        2.508612   1.000000
   54        2.508612   1.000000
   55        2.508840   1.000000
   56        2.508840   1.000000
   57        2.533054   1.000000
   58        2.533054   1.000000
   59        2.535204   1.000000
   60        2.535204   1.000000
   61        2.589992   1.000000
   62        2.589992   1.000000
   63        2.623129   1.000000
   64        2.623129   1.000000
   65        2.629171   1.000000
   66        2.629171   1.000000
   67        2.684598   1.000000
   68        2.684598   1.000000
   69        2.700816   1.000000
   70        2.713847   1.000000
   71        2.713847   1.000000
   72        2.739232   1.000000
   73        2.739233   1.000000
   74        2.756017   1.000000
   75        2.756017   1.000000
   76        2.757206   1.000000
   77        2.757207   1.000000
   78        2.803065   1.000000
   79        2.803065   1.000000
   80        2.803882   1.000000
   81        2.803882   1.000000
   82        2.848011   1.000000
   83        2.890227   1.000000
   84        2.890227   1.000000
   85        2.898090   1.000000
   86        2.898090   1.000000
   87        2.907808   1.000000
   88        2.907808   1.000000
   89        2.918492   1.000000
   90        2.918492   1.000000
   91        2.933434   1.000000
   92        2.953738   1.000000
   93        3.011167   1.000000
   94        3.011169   1.000000
   95        3.024639   1.000000
   96        3.024639   1.000000
   97        3.028819   1.000000
   98        3.028819   1.000000
   99        3.033149   1.000000
  100        3.033149   1.000000
  101        3.038183   1.000000
  102        3.102819   1.000000
  103        3.102819   1.000000
  104        3.130831   1.000000
  105        3.130831   1.000000
  106        3.200905   1.000000
  107        3.200905   1.000000
  108        3.209571   1.000000
  109        3.209571   1.000000
  110        3.226409   1.000000
  111        3.235119   1.000000
  112        3.235127   1.000000
  113        3.241756   1.000000
  114        3.241756   1.000000
  115        3.271239   1.000000
  116        3.271239   1.000000
  117        3.296051   1.000000
  118        3.296052   1.000000
  119        3.319180   1.000000
  120        3.319180   1.000000
  121        3.385952   1.000000
  122        3.385953   1.000000
  123        3.409553   1.000000
  124        3.409553   1.000000
  125        3.410631   1.000000
  126        3.410631   1.000000
  127        3.480021   1.000000
  128        3.501952   1.000000
  129        3.501952   1.000000
  130        3.503329   1.000000
  131        3.503330   1.000000
  132        3.510672   1.000000
  133        3.510673   1.000000
  134        3.541968   1.000000
  135        3.541968   1.000000
  136        3.548901   1.000000
  137        3.548902   1.000000
  138        3.575072   1.000000
  139        3.575072   1.000000
  140        3.616258   1.000000
  141        3.616258   1.000000
  142        3.619447   1.000000
  143        3.619447   1.000000
  144        3.625193   1.000000
  145        3.625194   1.000000
  146        3.632737   1.000000
  147        3.638994   1.000000
  148        3.699772   1.000000
  149        3.699773   1.000000
  150        3.760636   1.000000
  151        3.760636   1.000000
  152        3.782042   1.000000
  153        3.782042   1.000000
  154        3.809572   1.000000
  155        3.809573   1.000000
  156        3.823191   1.000000
  157        3.889178   1.000000
  158        3.889178   1.000000
  159        3.890947   1.000000
  160        3.890947   1.000000
  161        3.904646   1.000000
  162        3.904647   1.000000
  163        3.928088   1.000000
  164        3.928089   1.000000
  165        3.934814   1.000000
  166        3.934814   1.000000
  167        3.960682   1.000000
  168        3.986152   1.000000
  169        3.986152   1.000000
  170        4.013189   1.000000
  171        4.013190   1.000000
  172        4.032034   1.000000
  173        4.039339   1.000000
  174        4.039339   1.000000
  175        4.080201   1.000000
  176        4.080202   1.000000
  177        4.107246   1.000000
  178        4.107246   1.000000
  179        4.164712   1.000000
  180        4.164712   1.000000
  181        4.200092   1.000000
  182        4.200092   1.000000
  183        4.200163   1.000000
  184        4.200164   1.000000
  185        4.214506   1.000000
  186        4.214506   1.000000
  187        4.245885   1.000000
  188        4.245885   1.000000
  189        4.300641   1.000000
  190        4.300641   1.000000
  191        4.312296   1.000000
  192        4.312296   1.000000
  193        4.388970   1.000000
  194        4.388976   1.000000
  195        4.393600   1.000000
  196        4.416651   1.000000
  197        4.416652   1.000000
  198        4.458257   1.000000
  199        4.458257   1.000000
  200        4.461309   1.000000
  201        4.461309   1.000000
  202        4.461698   1.000000
  203        4.461698   1.000000
  204        4.506452   1.000000
  205        4.509107   1.000000
  206        4.509107   1.000000
  207        4.549338   1.000000
  208        4.549338   1.000000
  209        4.564151   1.000000
  210        4.564151   1.000000
  211        4.569715   1.000000
  212        4.586146   1.000000
  213        4.586146   1.000000
  214        4.601895   1.000000
  215        4.619328   1.000000
  216        4.619330   1.000000
  217        4.638318   1.000000
  218        4.638318   1.000000
  219        4.663388   1.000000
  220        4.663388   1.000000
  221        4.674344   1.000000
  222        4.677088   1.000000
  223        4.677088   1.000000
  224        4.719200   1.000000
  225        4.719201   1.000000
  226        4.773191   1.000000
  227        4.773192   1.000000
  228        4.796498   1.000000
  229        4.815375   1.000000
  230        4.849749   1.000000
  231        4.850993   1.000000
  232        4.850993   1.000000
  233        4.871020   1.000000
  234        4.871020   1.000000
  235        4.880397   1.000000
  236        4.880397   1.000000
  237        4.883264   1.000000
  238        4.883264   1.000000
  239        4.884701   1.000000
  240        4.884702   1.000000
  241        4.893825   1.000000
  242        4.910060   1.000000
  243        4.910060   1.000000
  244        4.933657   1.000000
  245        4.933657   1.000000
  246        4.935529   1.000000
  247        4.935529   1.000000
  248        4.942502   1.000000
  249        4.942502   1.000000
  250        4.978795   1.000000
  251        4.978797   1.000000
  252        4.995381   1.000000
  253        4.995381   1.000000
  254        5.014954   1.000000
  255        5.014956   1.000000
  256        5.022093   1.000000
  257        5.022093   1.000000
  258        5.034790   1.000000
  259        5.046772   1.000000
  260        5.046774   1.000000
  261        5.066025   1.000000
  262        5.069142   1.000000
  263        5.083423   1.000000
  264        5.089640   1.000000
  265        5.089640   1.000000
  266        5.090330   1.000000
  267        5.125004   1.000000
  268        5.139362   1.000000
  269        5.179115   1.000000
  270        5.184632   1.000000
  271        5.184634   1.000000
  272        5.190513   1.000000
  273        5.211567   1.000000
  274        5.214788   1.000000
  275        5.214789   1.000000
  276        5.241876   1.000000
  277        5.246048   1.000000
  278        5.252718   1.000000
  279        5.252718   1.000000
  280        5.254029   1.000000
  281        5.254030   1.000000
  282        5.262281   1.000000
  283        5.270950   1.000000
  284        5.270951   1.000000
  285        5.297742   1.000000
  286        5.297742   1.000000
  287        5.298802   1.000000
  288        5.298802   1.000000
  289        5.312157   1.000000
  290        5.312157   1.000000
  291        5.313155   1.000000
  292        5.313157   1.000000
  293        5.379948   1.000000
  294        5.381541   1.000000
  295        5.381541   1.000000
  296        5.383113   1.000000
  297        5.398791   1.000000
  298        5.407009   1.000000
  299        5.409988   1.000000
  300        5.417757   1.000000
  301        5.417757   1.000000
  302        5.418964   1.000000
  303        5.418965   1.000000
  304        5.429062   1.000000
  305        5.442662   1.000000
  306        5.442670   1.000000
  307        5.443296   1.000000
  308        5.443296   1.000000
  309        5.444697   1.000000
  310        5.466697   1.000000
  311        5.466697   1.000000
  312        5.471306   1.000000
  313        5.471307   1.000000
  314        5.504377   1.000000
  315        5.504377   1.000000
  316        5.505889   1.000000
  317        5.505889   1.000000
  318        5.513652   1.000000
  319        5.513652   1.000000
  320        5.525397   1.000000
  321        5.525397   1.000000
  322        5.536597   1.000000
  323        5.549521   1.000000
  324        5.549521   1.000000
  325        5.576679   1.000000
  326        5.576679   1.000000
  327        5.579806   1.000000
  328        5.589549   1.000000
  329        5.589549   1.000000
  330        5.628284   1.000000
  331        5.628284   1.000000
  332        5.638571   1.000000
  333        5.638572   1.000000
  334        5.646660   1.000000
  335        5.653654   1.000000
  336        5.653663   1.000000
  337        5.666717   1.000000
  338        5.666718   1.000000
  339        5.707140   1.000000
  340        5.709706   1.000000
  341        5.709708   1.000000
  342        5.733557   1.000000
  343        5.756393   1.000000
  344        5.808618   1.000000
  345        5.809476   1.000000
  346        5.809477   1.000000
  347        5.828599   1.000000
  348        5.828599   1.000000
  349        5.836922   1.000000
  350        5.836922   1.000000
  351        5.848876   1.000000
  352        5.848876   1.000000
  353        5.856339   1.000000
  354        5.950157   1.000000
  355        5.950157   1.000000
  356        5.989207   1.000000
  357        5.989207   1.000000
  358        6.052868   1.000002
  359        6.052868   1.000002
  360        6.065020   1.000003
  361        6.065020   1.000003
  362        6.076143   1.000004
  363        6.076143   1.000004
  364        6.107533   1.000012
  365        6.107533   1.000012
  366        6.113484   1.000014
  367        6.124026   1.000020
  368        6.124027   1.000020
  369        6.156764   1.000053
  370        6.171831   1.000081
  371        6.171831   1.000081
  372        6.202085   1.000186
  373        6.202085   1.000186
  374        6.204140   1.000197
  375        6.204140   1.000197
  376        6.226537   1.000351
  377        6.242821   1.000525
  378        6.242822   1.000525
  379        6.252172   1.000657
  380        6.252172   1.000657
  381        6.253136   1.000672