 running on    8 total cores
 distrk:  each k-point on    8 cores,    1 groups
 distr:  one band on    4 cores,    2 groups
 using from now: INCAR     
 vasp.5.4.4.18Apr17-6-g9f103f2a35 (build Aug 17 2017 06:00:38) complex          
  
 POSCAR found type information on POSCAR  Fe
 POSCAR found :  1 types and     108 ions
 scaLAPACK will be used
 LDA part: xc-table for Pade appr. of Perdew
 POSCAR, INCAR and KPOINTS ok, starting setup
 FFT: planning ...
 WAVECAR not read
 entering main loop
       N       E                     dE             d eps       ncg     rms          rms(c)
DAV:   1     0.947848942191E+04    0.94785E+04   -0.39852E+05  4144   0.264E+03
DAV:   2     0.321660384021E+03   -0.91568E+04   -0.90072E+04  4144   0.551E+02
DAV:   3    -0.815230164378E+03   -0.11369E+04   -0.97394E+03  4144   0.249E+02
DAV:   4    -0.102617191628E+04   -0.21094E+03   -0.19810E+03  7536   0.678E+01
DAV:   5    -0.104507241087E+04   -0.18900E+02   -0.17889E+02  6680   0.256E+01    0.934E+01
RMM:   6    -0.877077203431E+03    0.16800E+03   -0.13525E+03  4144   0.112E+02    0.884E+00
RMM:   7    -0.880203360123E+03   -0.31262E+01   -0.11191E+02  4559   0.241E+01    0.352E+00
RMM:   8    -0.879681251663E+03    0.52211E+00   -0.13850E+01  4428   0.105E+01    0.947E+00
RMM:   9    -0.879647252600E+03    0.33999E-01   -0.48511E+00  5313   0.279E+00    0.256E+00
RMM:  10    -0.879492463876E+03    0.15479E+00   -0.13549E+00  5612   0.125E+00    0.593E-01
RMM:  11    -0.879506169071E+03   -0.13705E-01   -0.13272E-01  5801   0.348E-01    0.590E-01
RMM:  12    -0.879500430700E+03    0.57384E-02   -0.36433E-02  4508   0.536E-01    0.106E-01
RMM:  13    -0.879501325288E+03   -0.89459E-03   -0.12546E-02  5586   0.802E-02    0.518E-02
RMM:  14    -0.879501335242E+03   -0.99549E-05   -0.27058E-04  4741   0.686E-02    0.190E-02
RMM:  15    -0.879501308038E+03    0.27204E-04    0.55357E-05  5723   0.172E-02    0.515E-03
RMM:  16    -0.879501281528E+03    0.26510E-04    0.32506E-04  4601   0.144E-02    0.119E-02
RMM:  17    -0.879501235824E+03    0.45704E-04    0.28132E-04  4591   0.106E-02    0.925E-04
RMM:  18    -0.879501207093E+03    0.28732E-04    0.25015E-04  3493   0.151E-03    0.711E-04
RMM:  19    -0.879501191710E+03    0.15382E-04    0.14775E-04  2697   0.139E-03    0.409E-04
RMM:  20    -0.879501171006E+03    0.20704E-04    0.19121E-04  2637   0.185E-03    0.866E-04
RMM:  21    -0.879501159976E+03    0.11030E-04    0.99415E-05  2589   0.135E-03    0.105E-04
RMM:  22    -0.879501149099E+03    0.10877E-04    0.10235E-04  2378   0.781E-04    0.486E-04
RMM:  23    -0.879501141297E+03    0.78018E-05    0.72804E-05  2341   0.876E-04    0.813E-05
RMM:  24    -0.879501134615E+03    0.66825E-05    0.63777E-05  1908   0.545E-04    0.292E-04
RMM:  25    -0.879501128643E+03    0.59715E-05    0.57060E-05  1900   0.541E-04    0.141E-04
RMM:  26    -0.879501123267E+03    0.53767E-05    0.52321E-05  1463   0.435E-04    0.243E-04
RMM:  27    -0.879501118305E+03    0.49614E-05    0.48253E-05  1560   0.438E-04    0.226E-04
RMM:  28    -0.879501113703E+03    0.46026E-05    0.44923E-05  1258   0.379E-04    0.243E-04
RMM:  29    -0.879501109440E+03    0.42622E-05    0.41642E-05  1485   0.387E-04    0.947E-05
RMM:  30    -0.879501105471E+03    0.39696E-05    0.38782E-05   917   0.260E-04    0.121E-04
RMM:  31    -0.879501101791E+03    0.36795E-05    0.35934E-05   885   0.271E-04    0.928E-05
RMM:  32    -0.879501098381E+03    0.34102E-05    0.33392E-05   850   0.239E-04    0.113E-04
RMM:  33    -0.879501095225E+03    0.31559E-05    0.30872E-05   834   0.238E-04    0.749E-05
RMM:  34    -0.879501092300E+03    0.29250E-05    0.28609E-05   721   0.214E-04    0.747E-05
RMM:  35    -0.879501089607E+03    0.26933E-05    0.26387E-05   724   0.220E-04    0.626E-05
RMM:  36    -0.879501087124E+03    0.24831E-05    0.24382E-05   676   0.210E-04    0.751E-05
RMM:  37    -0.879501084837E+03    0.22869E-05    0.22441E-05   675   0.217E-04    0.630E-05
RMM:  38    -0.879501082734E+03    0.21031E-05    0.20681E-05   626   0.211E-04    0.695E-05
RMM:  39    -0.879501080801E+03    0.19329E-05    0.19001E-05   622   0.216E-04    0.634E-05
RMM:  40    -0.879501079026E+03    0.17747E-05    0.17471E-05   587   0.210E-04    0.702E-05
RMM:  41    -0.879501077399E+03    0.16269E-05    0.16027E-05   583   0.215E-04    0.657E-05
RMM:  42    -0.879501075908E+03    0.14918E-05    0.14710E-05   567   0.213E-04    0.700E-05
RMM:  43    -0.879501074540E+03    0.13674E-05    0.13476E-05   558   0.214E-04    0.701E-05
RMM:  44    -0.879501073289E+03    0.12510E-05    0.12352E-05   544   0.214E-04    0.726E-05
RMM:  45    -0.879501072142E+03    0.11468E-05    0.11304E-05   545   0.217E-04    0.725E-05
RMM:  46    -0.879501071095E+03    0.10472E-05    0.10349E-05   529   0.218E-04    0.748E-05
RMM:  47    -0.879501070137E+03    0.95840E-06    0.94629E-06   530   0.219E-04
   1 F= -.87950107E+03 E0= -.87947719E+03  d E =-.879501E+03
 curvature:   0.00 expect dE= 0.000E+00 dE for cont linesearch  0.000E+00
 trial: gam= 0.00000 g(F)=  0.237E-37 g(S)=  0.244E-01 ort = 0.000E+00 (trialstep = 0.100E+01)
 search vector abs. value=  0.244E-01
 bond charge predicted
       N       E                     dE             d eps       ncg     rms          rms(c)
DAV:   1    -0.879758551498E+03   -0.25748E+00   -0.68088E+00  4744   0.828E+00    0.390E+00
RMM:   2    -0.879501638540E+03    0.25691E+00   -0.22335E+00  4153   0.412E+00    0.481E-01
RMM:   3    -0.879500248650E+03    0.13899E-02   -0.17928E-01  4607   0.772E-01    0.385E-01
RMM:   4    -0.879496509319E+03    0.37393E-02   -0.74337E-02  4144   0.901E-01    0.374E-01
RMM:   5    -0.879498411369E+03   -0.19021E-02   -0.14910E-02  4162   0.326E-01    0.868E-01
RMM:   6    -0.879494619367E+03    0.37920E-02   -0.88857E-03  4162   0.258E-01    0.781E-02
RMM:   7    -0.879494603934E+03    0.15433E-04   -0.13896E-03  5303   0.473E-02    0.721E-02
RMM:   8    -0.879494566265E+03    0.37669E-04   -0.14513E-04  4197   0.330E-02    0.417E-02
RMM:   9    -0.879494578709E+03   -0.12444E-04   -0.21452E-04  4192   0.361E-02    0.531E-03
RMM:  10    -0.879494582605E+03   -0.38957E-05   -0.35995E-05  4538   0.548E-03    0.577E-03
RMM:  11    -0.879494579441E+03    0.31639E-05   -0.98092E-07  2275   0.380E-03    0.400E-03
RMM:  12    -0.879494579769E+03   -0.32852E-06   -0.38198E-07  2232   0.196E-03
   2 F= -.87949458E+03 E0= -.87947201E+03  d E =0.649037E-02
 trial-energy change:    0.006490  1 .order    0.006670   -0.024375    0.037716
 step:   0.3967(harm=  0.3926)  dis= 0.00000  next Energy=  -879.505917 (dE=-0.485E-02)
 bond charge predicted
       N       E                     dE             d eps       ncg     rms          rms(c)
DAV:   1    -0.879600744144E+03   -0.10616E+00   -0.24636E+00  4632   0.497E+00    0.234E+00
RMM:   2    -0.879507964340E+03    0.92780E-01   -0.79968E-01  4153   0.248E+00    0.290E-01
RMM:   3    -0.879508034022E+03   -0.69681E-04   -0.66407E-02  4610   0.462E-01    0.234E-01
RMM:   4    -0.879507454558E+03    0.57946E-03   -0.21859E-02  4144   0.479E-01    0.503E-01
RMM:   5    -0.879506794603E+03    0.65995E-03   -0.42145E-03  4219   0.167E-01    0.254E-01
RMM:   6    -0.879505949459E+03    0.84514E-03   -0.68087E-03  4161   0.230E-01    0.367E-02
RMM:   7    -0.879505998052E+03   -0.48593E-04   -0.84128E-04  4909   0.305E-02    0.575E-02
RMM:   8    -0.879505908815E+03    0.89238E-04   -0.31059E-04  4145   0.538E-02    0.124E-02
RMM:   9    -0.879505897067E+03    0.11748E-04   -0.51108E-05  4527   0.961E-03    0.352E-03
RMM:  10    -0.879505900674E+03   -0.36075E-05   -0.16973E-06  2372   0.205E-03    0.247E-03
RMM:  11    -0.879505900945E+03   -0.27099E-06   -0.49760E-07  2231   0.176E-03
   3 F= -.87950590E+03 E0= -.87948258E+03  d E =-.483081E-02
 curvature:  -0.20 expect dE=-0.246E-05 dE for cont linesearch -0.246E-05
 trial: gam= 0.00000 g(F)=  0.448E-37 g(S)=  0.126E-04 ort =-0.553E-03 (trialstep = 0.879E+00)
 search vector abs. value=  0.126E-04
 reached required accuracy - stopping structural energy minimisation
