 vasp.5.4.4.18Apr17-6-g9f103f2a35 (build Aug 17 2017 06:00:38) complex          
  
 executed on             LinuxIFC date 2019.07.12  14:57:58
 running on    8 total cores
 distrk:  each k-point on    8 cores,    1 groups
 distr:  one band on NCORES_PER_BAND=   4 cores,    2 groups


--------------------------------------------------------------------------------------------------------


 INCAR:
 POTCAR:   PAW_PBE Fe 06Sep2000                   
 POTCAR:   PAW_PBE Fe 06Sep2000                   
   VRHFIN =Fe:  d7 s1                                                           
   LEXCH  = PE                                                                  
   EATOM  =   594.4687 eV,   43.6922 Ry                                         
                                                                                
   TITEL  = PAW_PBE Fe 06Sep2000                                                
   LULTRA =        F    use ultrasoft PP ?                                      
   IUNSCR =        1    unscreen: 0-lin 1-nonlin 2-no                           
   RPACOR =    2.000    partial core radius                                     
   POMASS =   55.847; ZVAL   =    8.000    mass and valenz                      
   RCORE  =    2.300    outmost cutoff radius                                   
   RWIGS  =    2.460; RWIGS  =    1.302    wigner-seitz radius (au A)           
   ENMAX  =  267.883; ENMIN  =  200.912 eV                                      
   RCLOC  =    1.701    cutoff for local pot                                    
   LCOR   =        T    correct aug charges                                     
   LPAW   =        T    paw PP                                                  
   EAUG   =  511.368                                                            
   DEXC   =    -.022                                                            
   RMAX   =    2.817    core radius for proj-oper                               
   RAUG   =    1.300    factor for augmentation sphere                          
   RDEP   =    2.442    radius for radial grids                                 
   QCUT   =   -4.437; QGAM   =    8.874    optimization parameters              
                                                                                
   Description                                                                  
     l     E      TYP  RCUT    TYP  RCUT                                        
     2   .000     23  2.300                                                     
     2   .000     23  2.300                                                     
     0   .000     23  2.300                                                     
     0   .000     23  2.300                                                     
     1  -.200     23  2.300                                                     
     1   .000     23  2.300                                                     
     3   .000      7   .000                                                     
  local pseudopotential read in
  partial core-charges read in
  atomic valenz-charges read in
  non local Contribution for L=           2  read in
    real space projection operators read in
  non local Contribution for L=           2  read in
    real space projection operators read in
  non local Contribution for L=           0  read in
    real space projection operators read in
  non local Contribution for L=           0  read in
    real space projection operators read in
  non local Contribution for L=           1  read in
    real space projection operators read in
  non local Contribution for L=           1  read in
    real space projection operators read in
    PAW grid and wavefunctions read in
 
   number of l-projection  operators is LMAX  =           6
   number of lm-projection operators is LMMAX =          18
 
 Optimization of the real space projectors (new method)

 maximal supplied QI-value         = 16.25
 optimisation between [QCUT,QGAM] = [ 13.00, 26.00] = [ 47.33,189.34] Ry 
 Optimized for a Real-space Cutoff    1.37 Angstroem

   l    n(q)    QCUT    max X(q) W(low)/X(q) W(high)/X(q)  e(spline) 
   2     10    13.001     4.378    0.16E-04    0.20E-04    0.36E-07
   2     10    13.001    23.237    0.18E-03    0.30E-04    0.64E-06
   0     11    13.001    17.641    0.14E-04    0.95E-05    0.60E-07
   0     11    13.001    50.908    0.35E-04    0.94E-04    0.73E-06
   1     10    13.001     6.148    0.37E-04    0.16E-05    0.57E-07
   1     10    13.001     8.345    0.16E-03    0.25E-04    0.17E-06
 PAW_PBE Fe 06Sep2000                   :
 energy of atom  1       EATOM= -594.4687
 kinetic energy error for atom=    0.0009 (will be added to EATOM!!)
 
 
 POSCAR: fcc_Fe_CON_333                          
  positions in direct lattice
  velocities in cartesian coordinates
 exchange correlation table for  LEXCH =        8
   RHO(1)=    0.500       N(1)  =     2000
   RHO(2)=  100.500       N(2)  =     4000
 


--------------------------------------------------------------------------------------------------------


 ion  position               nearest neighbor table
   1  0.000  0.000  0.000-   2 2.44   3 2.44   4 2.44  11 2.44  12 2.44  26 2.44  28 2.44  74 2.44
                            75 2.44  36 2.44  83 2.44  98 2.44
   2  0.000  0.167  0.167-  49 2.44  37 2.44  13 2.44  40 2.44  15 2.44  48 2.44  23 2.44   3 2.44
                             4 2.44   1 2.44  12 2.44  11 2.44
   3  0.167  0.000  0.167-  41 2.44  37 2.44   5 2.44  40 2.44   6 2.44  30 2.44  64 2.44   2 2.44
                             4 2.44   1 2.44  28 2.44  26 2.44
   4  0.167  0.167  0.000-  17 2.44  13 2.44   5 2.44  15 2.44   6 2.44  78 2.44  87 2.44   2 2.44
                             3 2.44   1 2.44  74 2.44  75 2.44
   5  0.333  0.000  0.000-   3 2.44   4 2.44  28 2.44  75 2.44   6 2.44   7 2.44   8 2.44  30 2.44
                            78 2.44  32 2.44  79 2.44 102 2.44
   6  0.333  0.167  0.167-  15 2.44  40 2.44  53 2.44  17 2.44  19 2.44   4 2.44  41 2.44  44 2.44
                             3 2.44   7 2.44   8 2.44   5 2.44
   7  0.500  0.000  0.167-  41 2.44  44 2.44  45 2.44  68 2.44   6 2.44   5 2.44   8 2.44  10 2.44
                            30 2.44   9 2.44  32 2.44  34 2.44
   8  0.500  0.167  0.000-  17 2.44  19 2.44  21 2.44  91 2.44   6 2.44   5 2.44   7 2.44  78 2.44
                            10 2.44  79 2.44   9 2.44  82 2.44
   9  0.667  0.000  0.000-  11 2.44  12 2.44  36 2.44  83 2.44  10 2.44  82 2.44  34 2.44   8 2.44
                             7 2.44 106 2.44  79 2.44  32 2.44
  10  0.667  0.167  0.167-  23 2.44  48 2.44  57 2.44  12 2.44  11 2.44  21 2.44  45 2.44  44 2.44
                            19 2.44   9 2.44   7 2.44   8 2.44
  11  0.833  0.000  0.167-  45 2.44   9 2.44  10 2.44  34 2.44  48 2.44  37 2.44  72 2.44  12 2.44
                             2 2.44  36 2.44   1 2.44  26 2.44
  12  0.833  0.167  0.000-  21 2.44   9 2.44  10 2.44  82 2.44  23 2.44  13 2.44  95 2.44  11 2.44
                             1 2.44  83 2.44   2 2.44  74 2.44
  13  0.000  0.333  0.000-   2 2.44   4 2.44  12 2.44  74 2.44  15 2.44  16 2.44  14 2.44  23 2.44
                            87 2.44  86 2.44  24 2.44  95 2.44
  14  0.000  0.500  0.167-  49 2.44  52 2.44  60 2.44  61 2.44  15 2.44  13 2.44  16 2.44  23 2.44
                            27 2.44  25 2.44  24 2.44  35 2.44
  15  0.167  0.333  0.167-   6 2.44  40 2.44  53 2.44  17 2.44  18 2.44   4 2.44  49 2.44  52 2.44
                             2 2.44  13 2.44  14 2.44  16 2.44
  16  0.167  0.500  0.000-  17 2.44  18 2.44  29 2.44  90 2.44  15 2.44  14 2.44  13 2.44  87 2.44
                            27 2.44  25 2.44  86 2.44  99 2.44
  17  0.333  0.333  0.000-   4 2.44   8 2.44  16 2.44  15 2.44   6 2.44  78 2.44  87 2.44  20 2.44
                            18 2.44  19 2.44  90 2.44  91 2.44
  18  0.333  0.500  0.167-  52 2.44  16 2.44  56 2.44  53 2.44  15 2.44  27 2.44  65 2.44  20 2.44
                            17 2.44  19 2.44  29 2.44  31 2.44
  19  0.500  0.333  0.167-  44 2.44   8 2.44  56 2.44  53 2.44   6 2.44  10 2.44  57 2.44  18 2.44
                            20 2.44  17 2.44  21 2.44  22 2.44
  20  0.500  0.500  0.000-  17 2.44  18 2.44  19 2.44  21 2.44  22 2.44  29 2.44  31 2.44  90 2.44
                            91 2.44  33 2.44  94 2.44 103 2.44
  21  0.667  0.333  0.000-  12 2.44  24 2.44  23 2.44  95 2.44  10 2.44   8 2.44  82 2.44  22 2.44
                            20 2.44  94 2.44  19 2.44  91 2.44
  22  0.667  0.500  0.167-  60 2.44  24 2.44  23 2.44  35 2.44  57 2.44  56 2.44  69 2.44  21 2.44
                            33 2.44  20 2.44  19 2.44  31 2.44
  23  0.833  0.333  0.167-  10 2.44  57 2.44  48 2.44  21 2.44  22 2.44  12 2.44  60 2.44   2 2.44
                            49 2.44  24 2.44  14 2.44  13 2.44
  24  0.833  0.500  0.000-  21 2.44  22 2.44  33 2.44  94 2.44  23 2.44  35 2.44  95 2.44  14 2.44
                            13 2.44 107 2.44  86 2.44  25 2.44
  25  0.000  0.667  0.000-  26 2.44  28 2.44  36 2.44  98 2.44  27 2.44  35 2.44  99 2.44  16 2.44
                            14 2.44 107 2.44  86 2.44  24 2.44
  26  0.000  0.833  0.167-  61 2.44  25 2.44  27 2.44  35 2.44  64 2.44  37 2.44  72 2.44  28 2.44
                             3 2.44  36 2.44   1 2.44  11 2.44
  27  0.167  0.667  0.167-  30 2.44  64 2.44  65 2.44  28 2.44  26 2.44  29 2.44  61 2.44  52 2.44
                            18 2.44  25 2.44  14 2.44  16 2.44
  28  0.167  0.833  0.000-  29 2.44  25 2.44  27 2.44  99 2.44  30 2.44   5 2.44 102 2.44  26 2.44
                            98 2.44   1 2.44   3 2.44  75 2.44
  29  0.333  0.667  0.000-  28 2.44  32 2.44  30 2.44 102 2.44  27 2.44  16 2.44  99 2.44  31 2.44
                            20 2.44  18 2.44 103 2.44  90 2.44
  30  0.333  0.833  0.167-  27 2.44  65 2.44  64 2.44  29 2.44  31 2.44  28 2.44  68 2.44  41 2.44
                             3 2.44  32 2.44   7 2.44   5 2.44
  31  0.500  0.667  0.167-  68 2.44  32 2.44  30 2.44  34 2.44  65 2.44  56 2.44  69 2.44  29 2.44
                            33 2.44  20 2.44  18 2.44  22 2.44
  32  0.500  0.833  0.000-  29 2.44  31 2.44  33 2.44 103 2.44  30 2.44 102 2.44  34 2.44   7 2.44
                             5 2.44 106 2.44  79 2.44   9 2.44
  33  0.667  0.667  0.000-  36 2.44  35 2.44  34 2.44  32 2.44  24 2.44 106 2.44 107 2.44  22 2.44
                            31 2.44 103 2.44  20 2.44  94 2.44
  34  0.667  0.833  0.167-  35 2.44  69 2.44  72 2.44  33 2.44  36 2.44  31 2.44  11 2.44  45 2.44
                            68 2.44  32 2.44   9 2.44   7 2.44
  35  0.833  0.667  0.167-  34 2.44  69 2.44  72 2.44  33 2.44  36 2.44  26 2.44  22 2.44  60 2.44
                            61 2.44  24 2.44  25 2.44  14 2.44
  36  0.833  0.833  0.000-  33 2.44  34 2.44  35 2.44  25 2.44   9 2.44 106 2.44 107 2.44  26 2.44
                            11 2.44  98 2.44   1 2.44  83 2.44
  37  0.000  0.000  0.333-   2 2.44   3 2.44  11 2.44  26 2.44  40 2.44  39 2.44  38 2.44  48 2.44
                            64 2.44  62 2.44  47 2.44  72 2.44
  38  0.000  0.167  0.500-  49 2.44  51 2.44  59 2.44  85 2.44  40 2.44  39 2.44  37 2.44  76 2.44
                            48 2.44  47 2.44  73 2.44  84 2.44
  39  0.167  0.000  0.500-  41 2.44  42 2.44  66 2.44  77 2.44  40 2.44  38 2.44  37 2.44  76 2.44
                            64 2.44  62 2.44  73 2.44 100 2.44
  40  0.167  0.167  0.333-   6 2.44  15 2.44  53 2.44   3 2.44  41 2.44  42 2.44  49 2.44  51 2.44
                             2 2.44  39 2.44  37 2.44  38 2.44
  41  0.333  0.000  0.333-   3 2.44   7 2.44  39 2.44   6 2.44  40 2.44  30 2.44  64 2.44  43 2.44
                            44 2.44  42 2.44  66 2.44  68 2.44
  42  0.333  0.167  0.500-  51 2.44  39 2.44  55 2.44  53 2.44  40 2.44  76 2.44  89 2.44  44 2.44
                            41 2.44  43 2.44  80 2.44  77 2.44
  43  0.500  0.000  0.500-  41 2.44  42 2.44  44 2.44  45 2.44  46 2.44  66 2.44  68 2.44  77 2.44
                            80 2.44  70 2.44  81 2.44 104 2.44
  44  0.500  0.167  0.333-  19 2.44   7 2.44  55 2.44  53 2.44   6 2.44  10 2.44  57 2.44  41 2.44
                            42 2.44  43 2.44  46 2.44  45 2.44
  45  0.667  0.000  0.333-  11 2.44  47 2.44  48 2.44  72 2.44  10 2.44   7 2.44  34 2.44  46 2.44
                            43 2.44  70 2.44  44 2.44  68 2.44
  46  0.667  0.167  0.500-  59 2.44  47 2.44  48 2.44  84 2.44  57 2.44  55 2.44  93 2.44  45 2.44
                            81 2.44  43 2.44  44 2.44  80 2.44
  47  0.833  0.000  0.500-  45 2.44  46 2.44  70 2.44  81 2.44  48 2.44  72 2.44  84 2.44  38 2.44
                            37 2.44 108 2.44  73 2.44  62 2.44
  48  0.833  0.167  0.333-  10 2.44  57 2.44  23 2.44  46 2.44  45 2.44  11 2.44  59 2.44   2 2.44
                            49 2.44  47 2.44  37 2.44  38 2.44
  49  0.000  0.333  0.333-   2 2.44  14 2.44  38 2.44  15 2.44  40 2.44  23 2.44  48 2.44  50 2.44
                            51 2.44  52 2.44  59 2.44  60 2.44
  50  0.000  0.500  0.500-  49 2.44  51 2.44  52 2.44  59 2.44  60 2.44  61 2.44  63 2.44  85 2.44
                            88 2.44  71 2.44  96 2.44  97 2.44
  51  0.167  0.333  0.500-  42 2.44  38 2.44  54 2.44  53 2.44  40 2.44  76 2.44  89 2.44  50 2.44
                            52 2.44  49 2.44  88 2.44  85 2.44
  52  0.167  0.500  0.333-  18 2.44  14 2.44  54 2.44  53 2.44  15 2.44  27 2.44  65 2.44  49 2.44
                            50 2.44  51 2.44  63 2.44  61 2.44
  53  0.333  0.333  0.333-   6 2.44  15 2.44  40 2.44  19 2.44  18 2.44  42 2.44  44 2.44  51 2.44
                            52 2.44  54 2.44  55 2.44  56 2.44
  54  0.333  0.500  0.500-  51 2.44  52 2.44  63 2.44  88 2.44  53 2.44  55 2.44  56 2.44  65 2.44
                            89 2.44  67 2.44  92 2.44 101 2.44
  55  0.500  0.333  0.500-  42 2.44  44 2.44  46 2.44  80 2.44  53 2.44  56 2.44  54 2.44  57 2.44
                            89 2.44  58 2.44  92 2.44  93 2.44
  56  0.500  0.500  0.333-  18 2.44  19 2.44  22 2.44  31 2.44  53 2.44  54 2.44  55 2.44  57 2.44
                            65 2.44  58 2.44  67 2.44  69 2.44
  57  0.667  0.333  0.333-  23 2.44  48 2.44  10 2.44  59 2.44  60 2.44  46 2.44  22 2.44  19 2.44
                            44 2.44  58 2.44  56 2.44  55 2.44
  58  0.667  0.500  0.500-  59 2.44  60 2.44  71 2.44  96 2.44  57 2.44  93 2.44  69 2.44  56 2.44
                            55 2.44 105 2.44  92 2.44  67 2.44
  59  0.833  0.333  0.500-  46 2.44  58 2.44  57 2.44  93 2.44  48 2.44  38 2.44  84 2.44  60 2.44
                            50 2.44  49 2.44  96 2.44  85 2.44
  60  0.833  0.500  0.333-  22 2.44  58 2.44  57 2.44  69 2.44  23 2.44  14 2.44  35 2.44  59 2.44
                            49 2.44  50 2.44  71 2.44  61 2.44
  61  0.000  0.667  0.333-  26 2.44  62 2.44  64 2.44  72 2.44  27 2.44  14 2.44  35 2.44  63 2.44
                            50 2.44  71 2.44  52 2.44  60 2.44
  62  0.000  0.833  0.500-  61 2.44  63 2.44  71 2.44  97 2.44  64 2.44  72 2.44 100 2.44  39 2.44
                            37 2.44 108 2.44  73 2.44  47 2.44
  63  0.167  0.667  0.500-  66 2.44  62 2.44  64 2.44 100 2.44  65 2.44  54 2.44 101 2.44  61 2.44
                            97 2.44  50 2.44  52 2.44  88 2.44
  64  0.167  0.833  0.333-  27 2.44  65 2.44  30 2.44  63 2.44  61 2.44  26 2.44  66 2.44   3 2.44
                            41 2.44  62 2.44  37 2.44  39 2.44
  65  0.333  0.667  0.333-  30 2.44  64 2.44  27 2.44  66 2.44  68 2.44  63 2.44  31 2.44  18 2.44
                            52 2.44  67 2.44  56 2.44  54 2.44
  66  0.333  0.833  0.500-  63 2.44  67 2.44  65 2.44 101 2.44  64 2.44  39 2.44 100 2.44  68 2.44
                            43 2.44  41 2.44 104 2.44  77 2.44
  67  0.500  0.667  0.500-  66 2.44  68 2.44  70 2.44 104 2.44  65 2.44 101 2.44  69 2.44  56 2.44
                            54 2.44 105 2.44  92 2.44  58 2.44
  68  0.500  0.833  0.333-  31 2.44  67 2.44  65 2.44  69 2.44  30 2.44   7 2.44  34 2.44  66 2.44
                            41 2.44  43 2.44  70 2.44  45 2.44
  69  0.667  0.667  0.333-  72 2.44  35 2.44  34 2.44  71 2.44  70 2.44  68 2.44  60 2.44  31 2.44
                            22 2.44  58 2.44  67 2.44  56 2.44
  70  0.667  0.833  0.500-  71 2.44  69 2.44  72 2.44  67 2.44  47 2.44 105 2.44 108 2.44  68 2.44
                            45 2.44 104 2.44  43 2.44  81 2.44
  71  0.833  0.667  0.500-  70 2.44  69 2.44  72 2.44  62 2.44  58 2.44 105 2.44 108 2.44  60 2.44
                            61 2.44  97 2.44  50 2.44  96 2.44
  72  0.833  0.833  0.333-  69 2.44  35 2.44  34 2.44  70 2.44  71 2.44  61 2.44  45 2.44  26 2.44
                            11 2.44  62 2.44  47 2.44  37 2.44
  73  0.000  0.000  0.667-  74 2.44  75 2.44  83 2.44  98 2.44  76 2.44  84 2.44 100 2.44  39 2.44
                            38 2.44 108 2.44  47 2.44  62 2.44
  74  0.000  0.167  0.833-  85 2.44  73 2.44  76 2.44  84 2.44  87 2.44  13 2.44  95 2.44  75 2.44
                             4 2.44  83 2.44   1 2.44  12 2.44
  75  0.167  0.000  0.833-  77 2.44  73 2.44  76 2.44 100 2.44  78 2.44   5 2.44 102 2.44  74 2.44
                            98 2.44   1 2.44   4 2.44  28 2.44
  76  0.167  0.167  0.667-  78 2.44  87 2.44  89 2.44  75 2.44  74 2.44  77 2.44  85 2.44  51 2.44
                            42 2.44  73 2.44  38 2.44  39 2.44
  77  0.333  0.000  0.667-  75 2.44  79 2.44  78 2.44 102 2.44  76 2.44  39 2.44 100 2.44  80 2.44
                            43 2.44  42 2.44 104 2.44  66 2.44
  78  0.333  0.167  0.833-  76 2.44  89 2.44  87 2.44  77 2.44  80 2.44  75 2.44  91 2.44  17 2.44
                             4 2.44  79 2.44   8 2.44   5 2.44
  79  0.500  0.000  0.833-  77 2.44  80 2.44  81 2.44 104 2.44  78 2.44 102 2.44  82 2.44   8 2.44
                             5 2.44 106 2.44   9 2.44  32 2.44
  80  0.500  0.167  0.667-  91 2.44  79 2.44  78 2.44  82 2.44  89 2.44  55 2.44  93 2.44  77 2.44
                            43 2.44  81 2.44  42 2.44  46 2.44
  81  0.667  0.000  0.667-  83 2.44  82 2.44  84 2.44  79 2.44  47 2.44 106 2.44 108 2.44  80 2.44
                            46 2.44 104 2.44  70 2.44  43 2.44
  82  0.667  0.167  0.833-  84 2.44  93 2.44  95 2.44  83 2.44  81 2.44  80 2.44  12 2.44  21 2.44
                            91 2.44  79 2.44   9 2.44   8 2.44
  83  0.833  0.000  0.833-  81 2.44  82 2.44  84 2.44  73 2.44   9 2.44 106 2.44 108 2.44  74 2.44
                            12 2.44  98 2.44  36 2.44   1 2.44
  84  0.833  0.167  0.667-  82 2.44  93 2.44  95 2.44  81 2.44  83 2.44  74 2.44  46 2.44  59 2.44
                            85 2.44  73 2.44  47 2.44  38 2.44
  85  0.000  0.333  0.667-  74 2.44  86 2.44  87 2.44  95 2.44  76 2.44  38 2.44  84 2.44  88 2.44
                            51 2.44  50 2.44  96 2.44  59 2.44
  86  0.000  0.500  0.833-  85 2.44  88 2.44  96 2.44  97 2.44  87 2.44  95 2.44  99 2.44  16 2.44
                            13 2.44 107 2.44  24 2.44  25 2.44
  87  0.167  0.333  0.833-  76 2.44  89 2.44  78 2.44  88 2.44  85 2.44  74 2.44  90 2.44  17 2.44
                             4 2.44  86 2.44  16 2.44  13 2.44
  88  0.167  0.500  0.667-  90 2.44  86 2.44  87 2.44  99 2.44  89 2.44  54 2.44 101 2.44  85 2.44
                            97 2.44  50 2.44  51 2.44  63 2.44
  89  0.333  0.333  0.667-  78 2.44  87 2.44  76 2.44  90 2.44  91 2.44  80 2.44  88 2.44  51 2.44
                            42 2.44  92 2.44  54 2.44  55 2.44
  90  0.333  0.500  0.833-  88 2.44  92 2.44  89 2.44 101 2.44  87 2.44  16 2.44  99 2.44  91 2.44
                            20 2.44  17 2.44 103 2.44  29 2.44
  91  0.500  0.333  0.833-  80 2.44  92 2.44  89 2.44  93 2.44  78 2.44   8 2.44  82 2.44  90 2.44
                            20 2.44  17 2.44  94 2.44  21 2.44
  92  0.500  0.500  0.667-  90 2.44  91 2.44  94 2.44 103 2.44  89 2.44 101 2.44  93 2.44  55 2.44
                            54 2.44 105 2.44  58 2.44  67 2.44
  93  0.667  0.333  0.667-  95 2.44  84 2.44  82 2.44  94 2.44  96 2.44  91 2.44  59 2.44  46 2.44
                            80 2.44  92 2.44  58 2.44  55 2.44
  94  0.667  0.500  0.833-  96 2.44  95 2.44  93 2.44  92 2.44  24 2.44 105 2.44 107 2.44  21 2.44
                            91 2.44 103 2.44  33 2.44  20 2.44
  95  0.833  0.333  0.833-  93 2.44  84 2.44  82 2.44  94 2.44  96 2.44  85 2.44  21 2.44  12 2.44
                            74 2.44  86 2.44  24 2.44  13 2.44
  96  0.833  0.500  0.667-  94 2.44  93 2.44  95 2.44  86 2.44  58 2.44 105 2.44 107 2.44  59 2.44
                            85 2.44  97 2.44  71 2.44  50 2.44
  97  0.000  0.667  0.667-  98 2.44  99 2.44 100 2.44  86 2.44  62 2.44 107 2.44 108 2.44  88 2.44
                            63 2.44  96 2.44  50 2.44  71 2.44
  98  0.000  0.833  0.833-  97 2.44  99 2.44 100 2.44  73 2.44  25 2.44 107 2.44 108 2.44  75 2.44
                            28 2.44  83 2.44   1 2.44  36 2.44
  99  0.167  0.667  0.833- 100 2.44 101 2.44 102 2.44  98 2.44  97 2.44  88 2.44  28 2.44  90 2.44
                            29 2.44  86 2.44  25 2.44  16 2.44
 100  0.167  0.833  0.667-  99 2.44 101 2.44 102 2.44  98 2.44  97 2.44  75 2.44  63 2.44  77 2.44
                            66 2.44  73 2.44  62 2.44  39 2.44
 101  0.333  0.667  0.667- 102 2.44 100 2.44  99 2.44 103 2.44 104 2.44  90 2.44  66 2.44  63 2.44
                            88 2.44  92 2.44  67 2.44  54 2.44
 102  0.333  0.833  0.833- 101 2.44 100 2.44  99 2.44 103 2.44 104 2.44  77 2.44  29 2.44  28 2.44
                            75 2.44  79 2.44  32 2.44   5 2.44
 103  0.500  0.667  0.833- 104 2.44 102 2.44 101 2.44  92 2.44  32 2.44 105 2.44 106 2.44  29 2.44
                            90 2.44  94 2.44  20 2.44  33 2.44
 104  0.500  0.833  0.667- 103 2.44 102 2.44 101 2.44  79 2.44  67 2.44 105 2.44 106 2.44  66 2.44
                            77 2.44  81 2.44  43 2.44  70 2.44
 105  0.667  0.667  0.667- 106 2.44 107 2.44 108 2.44  96 2.44 103 2.44 104 2.44  70 2.44  71 2.44
                            94 2.44  67 2.44  92 2.44  58 2.44
 106  0.667  0.833  0.833- 105 2.44 107 2.44 108 2.44  83 2.44 103 2.44 104 2.44  33 2.44  36 2.44
                            81 2.44  32 2.44  79 2.44   9 2.44
 107  0.833  0.667  0.833- 105 2.44 106 2.44 108 2.44  96 2.44  97 2.44  98 2.44  33 2.44  36 2.44
                            94 2.44  25 2.44  86 2.44  24 2.44
 108  0.833  0.833  0.667- 105 2.44 106 2.44 107 2.44  83 2.44  97 2.44  98 2.44  70 2.44  71 2.44
                            81 2.44  62 2.44  73 2.44  47 2.44
 
  LATTYP: Found a simple cubic cell.
 ALAT       =    10.3348470474
  
  Lattice vectors:
  
 A1 = (  10.3348470474,   0.0000000000,   0.0000000000)
 A2 = (   0.0000000000,  10.3348470474,   0.0000000000)
 A3 = (   0.0000000000,   0.0000000000,  10.3348470474)


Analysis of symmetry for initial positions (statically):
=====================================================================
 Subroutine PRICEL returns following result:
 
  LATTYP: Found a simple cubic cell.
 ALAT       =     3.4449252899
  
  Lattice vectors:
  
 A1 = (   3.4449252899,   0.0000000000,   0.0000000000)
 A2 = (   0.0000000000,   3.4449252899,   0.0000000000)
 A3 = (   0.0000000000,   0.0000000000,   3.4449252443)
 
  27 primitive cells build up your supercell.
 

 Routine SETGRP: Setting up the symmetry group for a 
 simple cubic supercell.


 Subroutine GETGRP returns: Found 48 space group operations
 (whereof 48 operations were pure point group operations)
 out of a pool of 48 trial point group operations.


The static configuration has the point symmetry O_h .


Analysis of symmetry for dynamics (positions and initial velocities):
=====================================================================
 Subroutine PRICEL returns following result:
 
  LATTYP: Found a simple cubic cell.
 ALAT       =     3.4449252899
  
  Lattice vectors:
  
 A1 = (   3.4449252899,   0.0000000000,   0.0000000000)
 A2 = (   0.0000000000,   3.4449252899,   0.0000000000)
 A3 = (   0.0000000000,   0.0000000000,   3.4449252443)
 
  27 primitive cells build up your supercell.
 

 Routine SETGRP: Setting up the symmetry group for a 
 simple cubic supercell.


 Subroutine GETGRP returns: Found 48 space group operations
 (whereof 48 operations were pure point group operations)
 out of a pool of 48 trial point group operations.


The dynamic configuration has the point symmetry O_h .


 Subroutine INISYM returns: Found 48 space group operations
 (whereof 48 operations are pure point group operations),
 and found    27 'primitive' translations

 
 
 KPOINTS: pymatgen generated KPOINTS with grid den

Automatic generation of k-mesh.
Space group operators:
 irot       det(A)        alpha          n_x          n_y          n_z        tau_x        tau_y        tau_z
    1     1.000000     0.000000     1.000000     0.000000     0.000000     0.000000     0.000000     0.000000
    2    -1.000000     0.000000     1.000000     0.000000     0.000000     0.000000     0.000000     0.000000
    3     1.000000   120.000000    -0.577350    -0.577350    -0.577350     0.000000     0.000000     0.000000
    4    -1.000000   120.000000    -0.577350    -0.577350    -0.577350     0.000000     0.000000     0.000000
    5     1.000000   120.000000     0.577350     0.577350     0.577350     0.000000     0.000000     0.000000
    6    -1.000000   120.000000     0.577350     0.577350     0.577350     0.000000     0.000000     0.000000
    7     1.000000    90.000000     0.000000     0.000000    -1.000000     0.000000     0.000000     0.000000
    8    -1.000000    90.000000     0.000000     0.000000    -1.000000     0.000000     0.000000     0.000000
    9     1.000000   180.000000     0.000000     0.707107     0.707107     0.000000     0.000000     0.000000
   10    -1.000000   180.000000     0.000000     0.707107     0.707107     0.000000     0.000000     0.000000
   11     1.000000    90.000000     0.000000     1.000000     0.000000     0.000000     0.000000     0.000000
   12    -1.000000    90.000000     0.000000     1.000000     0.000000     0.000000     0.000000     0.000000
   13     1.000000   180.000000     0.000000     0.000000     1.000000     0.000000     0.000000     0.000000
   14    -1.000000   180.000000     0.000000     0.000000     1.000000     0.000000     0.000000     0.000000
   15     1.000000   120.000000    -0.577350     0.577350     0.577350     0.000000     0.000000     0.000000
   16    -1.000000   120.000000    -0.577350     0.577350     0.577350     0.000000     0.000000     0.000000
   17     1.000000   120.000000    -0.577350     0.577350    -0.577350     0.000000     0.000000     0.000000
   18    -1.000000   120.000000    -0.577350     0.577350    -0.577350     0.000000     0.000000     0.000000
   19     1.000000    90.000000     0.000000     0.000000     1.000000     0.000000     0.000000     0.000000
   20    -1.000000    90.000000     0.000000     0.000000     1.000000     0.000000     0.000000     0.000000
   21     1.000000    90.000000    -1.000000     0.000000     0.000000     0.000000     0.000000     0.000000
   22    -1.000000    90.000000    -1.000000     0.000000     0.000000     0.000000     0.000000     0.000000
   23     1.000000   180.000000     0.707107     0.000000     0.707107     0.000000     0.000000     0.000000
   24    -1.000000   180.000000     0.707107     0.000000     0.707107     0.000000     0.000000     0.000000
   25     1.000000   120.000000     0.577350    -0.577350     0.577350     0.000000     0.000000     0.000000
   26    -1.000000   120.000000     0.577350    -0.577350     0.577350     0.000000     0.000000     0.000000
   27     1.000000   120.000000    -0.577350    -0.577350     0.577350     0.000000     0.000000     0.000000
   28    -1.000000   120.000000    -0.577350    -0.577350     0.577350     0.000000     0.000000     0.000000
   29     1.000000   180.000000     1.000000     0.000000     0.000000     0.000000     0.000000     0.000000
   30    -1.000000   180.000000     1.000000     0.000000     0.000000     0.000000     0.000000     0.000000
   31     1.000000    90.000000     0.000000    -1.000000     0.000000     0.000000     0.000000     0.000000
   32    -1.000000    90.000000     0.000000    -1.000000     0.000000     0.000000     0.000000     0.000000
   33     1.000000   180.000000     0.707107     0.707107     0.000000     0.000000     0.000000     0.000000
   34    -1.000000   180.000000     0.707107     0.707107     0.000000     0.000000     0.000000     0.000000
   35     1.000000    90.000000     1.000000     0.000000     0.000000     0.000000     0.000000     0.000000
   36    -1.000000    90.000000     1.000000     0.000000     0.000000     0.000000     0.000000     0.000000
   37     1.000000   120.000000     0.577350    -0.577350    -0.577350     0.000000     0.000000     0.000000
   38    -1.000000   120.000000     0.577350    -0.577350    -0.577350     0.000000     0.000000     0.000000
   39     1.000000   180.000000     0.000000     1.000000     0.000000     0.000000     0.000000     0.000000
   40    -1.000000   180.000000     0.000000     1.000000     0.000000     0.000000     0.000000     0.000000
   41     1.000000   120.000000     0.577350     0.577350    -0.577350     0.000000     0.000000     0.000000
   42    -1.000000   120.000000     0.577350     0.577350    -0.577350     0.000000     0.000000     0.000000
   43     1.000000   180.000000     0.000000    -0.707107     0.707107     0.000000     0.000000     0.000000
   44    -1.000000   180.000000     0.000000    -0.707107     0.707107     0.000000     0.000000     0.000000
   45     1.000000   180.000000     0.707107    -0.707107     0.000000     0.000000     0.000000     0.000000
   46    -1.000000   180.000000     0.707107    -0.707107     0.000000     0.000000     0.000000     0.000000
   47     1.000000   180.000000     0.707107     0.000000    -0.707107     0.000000     0.000000     0.000000
   48    -1.000000   180.000000     0.707107     0.000000    -0.707107     0.000000     0.000000     0.000000
 
 Subroutine IBZKPT returns following result:
 ===========================================
 
 Found      4 irreducible k-points:
 
 Following reciprocal coordinates:
            Coordinates               Weight
  0.125000  0.125000  0.125000      8.000000
  0.375000  0.125000  0.125000     24.000000
  0.375000  0.375000  0.125000     24.000000
  0.375000  0.375000  0.375000      8.000000
 
 Following cartesian coordinates:
            Coordinates               Weight
  0.012095  0.012095  0.012095      8.000000
  0.036285  0.012095  0.012095     24.000000
  0.036285  0.036285  0.012095     24.000000
  0.036285  0.036285  0.036285      8.000000
 


--------------------------------------------------------------------------------------------------------




 Dimension of arrays:
   k-points           NKPTS =      4   k-points in BZ     NKDIM =      4   number of bands    NBANDS=    518
   number of dos      NEDOS =    301   number of ions     NIONS =    108
   non local maximal  LDIM  =      6   non local SUM 2l+1 LMDIM =     18
   total plane-waves  NPLWV = 373248
   max r-space proj   IRMAX =   3707   max aug-charges    IRDMAX=  12243
   dimension x,y,z NGX =    72 NGY =   72 NGZ =   72
   dimension x,y,z NGXF=   144 NGYF=  144 NGZF=  144
   support grid    NGXF=   144 NGYF=  144 NGZF=  144
   ions per type =             108
   NGX,Y,Z   is equivalent  to a cutoff of  11.58, 11.58, 11.58 a.u.
   NGXF,Y,Z  is equivalent  to a cutoff of  23.16, 23.16, 23.16 a.u.

 Based on PREC, I would recommend the following setting:
   dimension x,y,z NGX =    64 NGY =   64 NGZ =   64

 SYSTEM =  Opt                                     
 POSCAR =  fcc_Fe_CON_333                          

 Startparameter for this run:
   NWRITE =      2    write-flag & timer
   PREC   = normal    normal or accurate (medium, high low for compatibility)
   ISTART =      0    job   : 0-new  1-cont  2-samecut
   ICHARG =      2    charge: 1-file 2-atom 10-const
   ISPIN  =      1    spin polarized calculation?
   LNONCOLLINEAR =      F non collinear calculations
   LSORBIT =      F    spin-orbit coupling
   INIWAV =      1    electr: 0-lowe 1-rand  2-diag
   LASPH  =      F    aspherical Exc in radial PAW
   METAGGA=      F    non-selfconsistent MetaGGA calc.

 Electronic Relaxation 1
   ENCUT  =  650.0 eV  47.77 Ry    6.91 a.u.  21.48 21.48 21.48*2*pi/ulx,y,z
   ENINI  =  650.0     initial cutoff
   ENAUG  =  511.4 eV  augmentation charge cutoff
   NELM   =    400;   NELMIN=  2; NELMDL= -5     # of ELM steps 
   EDIFF  = 0.1E-05   stopping-criterion for ELM
   LREAL  =      T    real-space projection
   NLSPLINE    = F    spline interpolate recip. space projectors
   LCOMPAT=      F    compatible to vasp.4.4
   GGA_COMPAT  = T    GGA compatible to vasp.4.4-vasp.4.6
   LMAXPAW     = -100 max onsite density
   LMAXMIX     =    2 max onsite mixed and CHGCAR
   VOSKOWN=      0    Vosko Wilk Nusair interpolation
   ROPT   =   -0.00050
 Ionic relaxation
   EDIFFG = -.1E-01   stopping-criterion for IOM
   NSW    =    100    number of steps for IOM
   NBLOCK =      1;   KBLOCK =    100    inner block; outer block 
   IBRION =      2    ionic relax: 0-MD 1-quasi-New 2-CG
   NFREE  =      1    steps in history (QN), initial steepest desc. (CG)
   ISIF   =      3    stress and relaxation
   IWAVPR =     11    prediction:  0-non 1-charg 2-wave 3-comb
   ISYM   =      2    0-nonsym 1-usesym 2-fastsym
   LCORR  =      T    Harris-Foulkes like correction to forces

   POTIM  = 0.5000    time-step for ionic-motion
   TEIN   =    0.0    initial temperature
   TEBEG  =    0.0;   TEEND  =   0.0 temperature during run
   SMASS  =  -3.00    Nose mass-parameter (am)
   estimated Nose-frequenzy (Omega)   =  0.10E-29 period in steps =****** mass=  -0.244E-26a.u.
   SCALEE = 1.0000    scale energy and forces
   NPACO  =    256;   APACO  = 16.0  distance and # of slots for P.C.
   PSTRESS=    0.0 pullay stress

  Mass of Ions in am
   POMASS =  55.85
  Ionic Valenz
   ZVAL   =   8.00
  Atomic Wigner-Seitz radii
   RWIGS  =  -1.00
  virtual crystal weights 
   VCA    =   1.00
   NELECT =     864.0000    total number of electrons
   NUPDOWN=      -1.0000    fix difference up-down

 DOS related values:
   EMIN   =  10.00;   EMAX   =-10.00  energy-range for DOS
   EFERMI =   0.00
   ISMEAR =     1;   SIGMA  =   0.20  broadening in eV -4-tet -1-fermi 0-gaus

 Electronic relaxation 2 (details)
   IALGO  =     68    algorithm
   LDIAG  =      T    sub-space diagonalisation (order eigenvalues)
   LSUBROT=      F    optimize rotation matrix (better conditioning)
   TURBO    =      0    0=normal 1=particle mesh
   IRESTART =      0    0=no restart 2=restart with 2 vectors
   NREBOOT  =      0    no. of reboots
   NMIN     =      0    reboot dimension
   EREF     =   0.00    reference energy to select bands
   IMIX   =      4    mixing-type and parameters
     AMIX     =   0.40;   BMIX     =  1.00
     AMIX_MAG =   1.60;   BMIX_MAG =  1.00
     AMIN     =   0.10
     WC   =   100.;   INIMIX=   1;  MIXPRE=   1;  MAXMIX= -45

 Intra band minimization:
   WEIMIN = 0.0010     energy-eigenvalue tresh-hold
   EBREAK =  0.48E-09  absolut break condition
   DEPER  =   0.30     relativ break condition  

   TIME   =   0.40     timestep for ELM

  volume/ion in A,a.u.               =      10.22        68.97
  Fermi-wavevector in a.u.,A,eV,Ry     =   1.508720  2.851068 30.970078  2.276236
  Thomas-Fermi vector in A             =   2.619137
 
 Write flags
   LWAVE        =      F    write WAVECAR
   LDOWNSAMPLE  =      F    k-point downsampling of WAVECAR
   LCHARG       =      F    write CHGCAR
   LVTOT        =      F    write LOCPOT, total local potential
   LVHAR        =      F    write LOCPOT, Hartree potential only
   LELF         =      F    write electronic localiz. function (ELF)
   LORBIT       =      0    0 simple, 1 ext, 2 COOP (PROOUT), +10 PAW based schemes


 Dipole corrections
   LMONO  =      F    monopole corrections only (constant potential shift)
   LDIPOL =      F    correct potential (dipole corrections)
   IDIPOL =      0    1-x, 2-y, 3-z, 4-all directions 
   EPSILON=  1.0000000 bulk dielectric constant

 Exchange correlation treatment:
   GGA     =    --    GGA type
   LEXCH   =     8    internal setting for exchange type
   VOSKOWN=      0    Vosko Wilk Nusair interpolation
   LHFCALC =     F    Hartree Fock is set to
   LHFONE  =     F    Hartree Fock one center treatment
   AEXX    =    0.0000 exact exchange contribution

 Linear response parameters
   LEPSILON=     F    determine dielectric tensor
   LRPA    =     F    only Hartree local field effects (RPA)
   LNABLA  =     F    use nabla operator in PAW spheres
   LVEL    =     F    velocity operator in full k-point grid
   LINTERFAST=   F  fast interpolation
   KINTER  =     0    interpolate to denser k-point grid
   CSHIFT  =0.1000    complex shift for real part using Kramers Kronig
   OMEGAMAX=  -1.0    maximum frequency
   DEG_THRESHOLD= 0.2000000E-02 threshold for treating states as degnerate
   RTIME   =   -0.100 relaxation time in fs
  (WPLASMAI=    0.000 imaginary part of plasma frequency in eV, 0.658/RTIME)
   DFIELD  = 0.0000000 0.0000000 0.0000000 field for delta impulse in time
 
 Orbital magnetization related:
   ORBITALMAG=     F  switch on orbital magnetization
   LCHIMAG   =     F  perturbation theory with respect to B field
   DQ        =  0.001000  dq finite difference perturbation B field
   LLRAUG    =     F  two centre corrections for induced B field



--------------------------------------------------------------------------------------------------------


 conjugate gradient relaxation of ions
 charge density and potential will be updated during run
 non-spin polarized calculation
 RMM-DIIS sequential band-by-band and
  variant of blocked Davidson during initial phase
 perform sub-space diagonalisation
    before iterative eigenvector-optimisation
 modified Broyden-mixing scheme, WC =      100.0
 initial mixing is a Kerker type mixing with AMIX =  0.4000 and BMIX =      1.0000
 Hartree-type preconditioning will be used
 using additional bands           86
 real space projection scheme for non local part
 use partial core corrections
 calculate Harris-corrections to forces 
   (improved forces if not selfconsistent)
 use gradient corrections 
 use of overlap-Matrix (Vanderbilt PP)
 Methfessel and Paxton  Order N= 1 SIGMA  =   0.20


--------------------------------------------------------------------------------------------------------


  energy-cutoff  :      650.00
  volume of cell :     1103.86
      direct lattice vectors                 reciprocal lattice vectors
    10.334847047  0.000000000  0.000000000     0.096760019  0.000000000  0.000000000
     0.000000000 10.334847047  0.000000000     0.000000000  0.096760019  0.000000000
     0.000000000  0.000000000 10.334847047     0.000000000  0.000000000  0.096760019

  length of vectors
    10.334847047 10.334847047 10.334847047     0.096760019  0.096760019  0.096760019


 
 k-points in units of 2pi/SCALE and weight: pymatgen generated KPOINTS with grid den
   0.01209500  0.01209500  0.01209500       0.125
   0.03628501  0.01209500  0.01209500       0.375
   0.03628501  0.03628501  0.01209500       0.375
   0.03628501  0.03628501  0.03628501       0.125
 
 k-points in reciprocal lattice and weights: pymatgen generated KPOINTS with grid den
   0.12500000  0.12500000  0.12500000       0.125
   0.37500000  0.12500000  0.12500000       0.375
   0.37500000  0.37500000  0.12500000       0.375
   0.37500000  0.37500000  0.37500000       0.125
 
 position of ions in fractional coordinates (direct lattice) 
   0.00000000  0.00000000  0.00000000
   0.00000000  0.16666893  0.16666893
   0.16666893  0.00000000  0.16666893
   0.16666893  0.16666893  0.00000000
   0.33333106  0.00000000  0.00000000
   0.33333107  0.16666893  0.16666893
   0.50000000  0.00000000  0.16666894
   0.50000000  0.16666894  0.00000000
   0.66666897  0.00000000  0.00000000
   0.66666896  0.16666893  0.16666893
   0.83333104  0.00000000  0.16666893
   0.83333104  0.16666893  0.00000000
   0.00000000  0.33333106  0.00000000
   0.00000000  0.50000000  0.16666894
   0.16666893  0.33333107  0.16666893
   0.16666894  0.50000000  0.00000000
   0.33333107  0.33333107  0.00000000
   0.33333107  0.50000000  0.16666893
   0.50000000  0.33333107  0.16666893
   0.50000000  0.50000000  0.00000000
   0.66666896  0.33333107  0.00000000
   0.66666896  0.50000000  0.16666893
   0.83333104  0.33333107  0.16666893
   0.83333103  0.50000000  0.00000000
   0.00000000  0.66666897  0.00000000
   0.00000000  0.83333104  0.16666893
   0.16666893  0.66666896  0.16666893
   0.16666893  0.83333104  0.00000000
   0.33333107  0.66666896  0.00000000
   0.33333107  0.83333104  0.16666893
   0.50000000  0.66666896  0.16666893
   0.50000000  0.83333103  0.00000000
   0.66666896  0.66666896  0.00000000
   0.66666896  0.83333104  0.16666893
   0.83333104  0.66666896  0.16666893
   0.83333104  0.83333104  0.00000000
   0.00000000  0.00000000  0.33333106
   0.00000000  0.16666894  0.50000000
   0.16666894  0.00000000  0.50000000
   0.16666893  0.16666893  0.33333107
   0.33333107  0.00000000  0.33333107
   0.33333107  0.16666893  0.50000000
   0.50000000  0.00000000  0.50000000
   0.50000000  0.16666893  0.33333107
   0.66666896  0.00000000  0.33333107
   0.66666896  0.16666893  0.50000000
   0.83333103  0.00000000  0.50000000
   0.83333104  0.16666893  0.33333107
   0.00000000  0.33333107  0.33333107
   0.00000000  0.50000000  0.50000000
   0.16666893  0.33333107  0.50000000
   0.16666893  0.50000000  0.33333107
   0.33333107  0.33333107  0.33333107
   0.33333106  0.50000000  0.50000000
   0.50000000  0.33333106  0.50000000
   0.50000000  0.50000000  0.33333106
   0.66666896  0.33333107  0.33333107
   0.66666897  0.50000000  0.50000000
   0.83333104  0.33333107  0.50000000
   0.83333104  0.50000000  0.33333107
   0.00000000  0.66666896  0.33333107
   0.00000000  0.83333103  0.50000000
   0.16666893  0.66666896  0.50000000
   0.16666893  0.83333104  0.33333107
   0.33333107  0.66666896  0.33333107
   0.33333107  0.83333104  0.50000000
   0.50000000  0.66666897  0.50000000
   0.50000000  0.83333104  0.33333107
   0.66666896  0.66666896  0.33333107
   0.66666896  0.83333104  0.50000000
   0.83333104  0.66666896  0.50000000
   0.83333104  0.83333104  0.33333107
   0.00000000  0.00000000  0.66666897
   0.00000000  0.16666893  0.83333104
   0.16666893  0.00000000  0.83333104
   0.16666893  0.16666893  0.66666896
   0.33333107  0.00000000  0.66666896
   0.33333107  0.16666893  0.83333104
   0.50000000  0.00000000  0.83333103
   0.50000000  0.16666893  0.66666896
   0.66666896  0.00000000  0.66666896
   0.66666896  0.16666893  0.83333104
   0.83333104  0.00000000  0.83333104
   0.83333104  0.16666893  0.66666896
   0.00000000  0.33333107  0.66666896
   0.00000000  0.50000000  0.83333103
   0.16666893  0.33333107  0.83333104
   0.16666893  0.50000000  0.66666896
   0.33333107  0.33333107  0.66666896
   0.33333107  0.50000000  0.83333104
   0.50000000  0.33333107  0.83333104
   0.50000000  0.50000000  0.66666897
   0.66666896  0.33333107  0.66666896
   0.66666896  0.50000000  0.83333104
   0.83333104  0.33333107  0.83333104
   0.83333104  0.50000000  0.66666896
   0.00000000  0.66666896  0.66666896
   0.00000000  0.83333104  0.83333104
   0.16666893  0.66666896  0.83333104
   0.16666893  0.83333104  0.66666896
   0.33333107  0.66666896  0.66666896
   0.33333107  0.83333104  0.83333104
   0.50000000  0.66666896  0.83333104
   0.50000000  0.83333104  0.66666896
   0.66666896  0.66666896  0.66666896
   0.66666896  0.83333104  0.83333104
   0.83333104  0.66666896  0.83333104
   0.83333104  0.83333104  0.66666896
 
 position of ions in cartesian coordinates  (Angst):
   0.00000000  0.00000000  0.00000000
   0.00000000  1.72249793  1.72249793
   1.72249793  0.00000000  1.72249793
   1.72249793  1.72249793  0.00000000
   3.44492554  0.00000000  0.00000000
   3.44492559  1.72249794  1.72249794
   5.16742352  0.00000000  1.72249798
   5.16742352  1.72249798  0.00000000
   6.88992180  0.00000000  0.00000000
   6.88992176  1.72249794  1.72249794
   8.61234881  0.00000000  1.72249793
   8.61234881  1.72249793  0.00000000
   0.00000000  3.44492554  0.00000000
   0.00000000  5.16742352  1.72249798
   1.72249794  3.44492559  1.72249794
   1.72249798  5.16742352  0.00000000
   3.44492559  3.44492559  0.00000000
   3.44492559  5.16742352  1.72249793
   5.16742352  3.44492559  1.72249793
   5.16742352  5.16742352  0.00000000
   6.88992176  3.44492559  0.00000000
   6.88992176  5.16742352  1.72249793
   8.61234881  3.44492559  1.72249794
   8.61234877  5.16742352  0.00000000
   0.00000000  6.88992180  0.00000000
   0.00000000  8.61234881  1.72249793
   1.72249794  6.88992176  1.72249794
   1.72249793  8.61234881  0.00000000
   3.44492559  6.88992176  0.00000000
   3.44492559  8.61234881  1.72249794
   5.16742352  6.88992176  1.72249793
   5.16742352  8.61234877  0.00000000
   6.88992176  6.88992176  0.00000000
   6.88992176  8.61234881  1.72249794
   8.61234881  6.88992176  1.72249794
   8.61234881  8.61234881  0.00000000
   0.00000000  0.00000000  3.44492554
   0.00000000  1.72249798  5.16742352
   1.72249798  0.00000000  5.16742352
   1.72249794  1.72249794  3.44492559
   3.44492559  0.00000000  3.44492559
   3.44492559  1.72249793  5.16742352
   5.16742352  0.00000000  5.16742352
   5.16742352  1.72249793  3.44492559
   6.88992176  0.00000000  3.44492559
   6.88992176  1.72249793  5.16742352
   8.61234877  0.00000000  5.16742352
   8.61234881  1.72249794  3.44492559
   0.00000000  3.44492559  3.44492559
   0.00000000  5.16742352  5.16742352
   1.72249793  3.44492559  5.16742352
   1.72249793  5.16742352  3.44492559
   3.44492559  3.44492559  3.44492559
   3.44492554  5.16742352  5.16742352
   5.16742352  3.44492554  5.16742352
   5.16742352  5.16742352  3.44492554
   6.88992176  3.44492559  3.44492559
   6.88992180  5.16742352  5.16742352
   8.61234881  3.44492559  5.16742352
   8.61234881  5.16742352  3.44492559
   0.00000000  6.88992176  3.44492559
   0.00000000  8.61234877  5.16742352
   1.72249793  6.88992176  5.16742352
   1.72249794  8.61234881  3.44492559
   3.44492559  6.88992176  3.44492559
   3.44492559  8.61234881  5.16742352
   5.16742352  6.88992180  5.16742352
   5.16742352  8.61234881  3.44492559
   6.88992176  6.88992176  3.44492559
   6.88992176  8.61234881  5.16742352
   8.61234881  6.88992176  5.16742352
   8.61234881  8.61234881  3.44492559
   0.00000000  0.00000000  6.88992180
   0.00000000  1.72249793  8.61234881
   1.72249793  0.00000000  8.61234881
   1.72249794  1.72249794  6.88992176
   3.44492559  0.00000000  6.88992176
   3.44492559  1.72249794  8.61234881
   5.16742352  0.00000000  8.61234877
   5.16742352  1.72249793  6.88992176
   6.88992176  0.00000000  6.88992176
   6.88992176  1.72249794  8.61234881
   8.61234881  0.00000000  8.61234881
   8.61234881  1.72249794  6.88992176
   0.00000000  3.44492559  6.88992176
   0.00000000  5.16742352  8.61234877
   1.72249794  3.44492559  8.61234881
   1.72249793  5.16742352  6.88992176
   3.44492559  3.44492559  6.88992176
   3.44492559  5.16742352  8.61234881
   5.16742352  3.44492559  8.61234881
   5.16742352  5.16742352  6.88992180
   6.88992176  3.44492559  6.88992176
   6.88992176  5.16742352  8.61234881
   8.61234881  3.44492559  8.61234881
   8.61234881  5.16742352  6.88992176
   0.00000000  6.88992176  6.88992176
   0.00000000  8.61234881  8.61234881
   1.72249794  6.88992176  8.61234881
   1.72249794  8.61234881  6.88992176
   3.44492559  6.88992176  6.88992176
   3.44492559  8.61234881  8.61234881
   5.16742352  6.88992176  8.61234881
   5.16742352  8.61234881  6.88992176
   6.88992176  6.88992176  6.88992176
   6.88992176  8.61234881  8.61234881
   8.61234881  6.88992176  8.61234881
   8.61234881  8.61234881  6.88992176
 


--------------------------------------------------------------------------------------------------------


 k-point  1 :   0.1250 0.1250 0.1250  plane waves:   41611
 k-point  2 :   0.3750 0.1250 0.1250  plane waves:   41556
 k-point  3 :   0.3750 0.3750 0.1250  plane waves:   41537
 k-point  4 :   0.3750 0.3750 0.3750  plane waves:   41548

 maximum and minimum number of plane-waves per node :     10448    10329

 maximum number of plane-waves:     41611
 maximum index in each direction: 
   IXMAX=   21   IYMAX=   21   IZMAX=   21
   IXMIN=  -21   IYMIN=  -21   IZMIN=  -21


 real space projection operators:
  total allocation   :      54295.31 KBytes
  max/ min on nodes  :      13866.19      13319.44


 parallel 3D FFT for wavefunctions:
    minimum data exchange during FFTs selected (reduces bandwidth)
 parallel 3D FFT for charge:
    minimum data exchange during FFTs selected (reduces bandwidth)


 total amount of memory used by VASP MPI-rank0   271779. kBytes
=======================================================================

   base      :      30000. kBytes
   nonlr-proj:      23832. kBytes
   fftplans  :      15512. kBytes
   grid      :      21835. kBytes
   one-center:        419. kBytes
   wavefun   :     180181. kBytes
 
     INWAV:  cpu time    0.0000: real time    0.0000
 Broyden mixing: mesh for mixing (old mesh)
   NGX = 43   NGY = 43   NGZ = 43
  (NGX  =144   NGY  =144   NGZ  =144)
  gives a total of  79507 points

 initial charge density was supplied:
 charge density of overlapping atoms calculated
 number of electron     864.0000000 magnetization 
 keeping initial charge density in first step


--------------------------------------------------------------------------------------------------------


 Maximum index for non-local projection operator          913
 Maximum index for augmentation-charges         1463 (set IRDMAX)


--------------------------------------------------------------------------------------------------------


 First call to EWALD:  gamma=   0.172
 Maximum number of real-space cells 3x 3x 3
 Maximum number of reciprocal cells 3x 3x 3

    FEWALD:  cpu time    0.0103: real time    0.0103


--------------------------------------- Iteration      1(   1)  ---------------------------------------


    POTLOK:  cpu time    0.2705: real time    0.2712
    SETDIJ:  cpu time    0.0481: real time    0.0481
     EDDAV:  cpu time   39.5415: real time   39.5406
       DOS:  cpu time    0.0033: real time    0.0033
    --------------------------------------------
      LOOP:  cpu time   39.8634: real time   39.8632

 eigenvalue-minimisations  :  4144
 total energy-change (2. order) : 0.9478489E+04  (-0.3985154E+05)
 number of electron     864.0000000 magnetization 
 augmentation part      864.0000000 magnetization 

 Free energy of the ion-electron system (eV)
  ---------------------------------------------------
  alpha Z        PSCENC =      7300.31925852
  Ewald energy   TEWEN  =    -66232.83996889
  -Hartree energ DENC   =    -11197.02572337
  -exchange      EXHF   =         0.00000000
  -V(xc)+E(xc)   XCENC  =       446.63038354
  PAW double counting   =     51723.88885462   -52548.28121372
  entropy T*S    EENTRO =         0.03477011
  eigenvalues    EBANDS =     15783.24353277
  atomic energy  EATOM  =     64202.51952832
  Solvation  Ediel_sol  =         0.00000000
  ---------------------------------------------------
  free energy    TOTEN  =      9478.48942191 eV

  energy without entropy =     9478.45465180  energy(sigma->0) =     9478.47783187


--------------------------------------------------------------------------------------------------------




--------------------------------------- Iteration      1(   2)  ---------------------------------------


     EDDAV:  cpu time   39.5207: real time   39.5214
       DOS:  cpu time    0.0054: real time    0.0054
    --------------------------------------------
      LOOP:  cpu time   39.5261: real time   39.5268

 eigenvalue-minimisations  :  4144
 total energy-change (2. order) :-0.9156829E+04  (-0.9007235E+04)
 number of electron     864.0000000 magnetization 
 augmentation part      864.0000000 magnetization 

 Free energy of the ion-electron system (eV)
  ---------------------------------------------------
  alpha Z        PSCENC =      7300.31925852
  Ewald energy   TEWEN  =    -66232.83996889
  -Hartree energ DENC   =    -11197.02572337
  -exchange      EXHF   =         0.00000000
  -V(xc)+E(xc)   XCENC  =       446.63038354
  PAW double counting   =     51723.88885462   -52548.28121372
  entropy T*S    EENTRO =        -0.00734695
  eigenvalues    EBANDS =      6626.45661194
  atomic energy  EATOM  =     64202.51952832
  Solvation  Ediel_sol  =         0.00000000
  ---------------------------------------------------
  free energy    TOTEN  =       321.66038402 eV

  energy without entropy =      321.66773097  energy(sigma->0) =      321.66283300


--------------------------------------------------------------------------------------------------------




--------------------------------------- Iteration      1(   3)  ---------------------------------------


     EDDAV:  cpu time   39.5355: real time   39.5356
       DOS:  cpu time    0.0064: real time    0.0064
    --------------------------------------------
      LOOP:  cpu time   39.5419: real time   39.5420

 eigenvalue-minimisations  :  4144
 total energy-change (2. order) :-0.1136891E+04  (-0.9739428E+03)
 number of electron     864.0000000 magnetization 
 augmentation part      864.0000000 magnetization 

 Free energy of the ion-electron system (eV)
  ---------------------------------------------------
  alpha Z        PSCENC =      7300.31925852
  Ewald energy   TEWEN  =    -66232.83996889
  -Hartree energ DENC   =    -11197.02572337
  -exchange      EXHF   =         0.00000000
  -V(xc)+E(xc)   XCENC  =       446.63038354
  PAW double counting   =     51723.88885462   -52548.28121372
  entropy T*S    EENTRO =         0.01667995
  eigenvalues    EBANDS =      5489.54203664
  atomic energy  EATOM  =     64202.51952832
  Solvation  Ediel_sol  =         0.00000000
  ---------------------------------------------------
  free energy    TOTEN  =      -815.23016438 eV

  energy without entropy =     -815.24684433  energy(sigma->0) =     -815.23572436


--------------------------------------------------------------------------------------------------------




--------------------------------------- Iteration      1(   4)  ---------------------------------------


     EDDAV:  cpu time   64.7598: real time   64.7588
       DOS:  cpu time    0.0065: real time    0.0065
    --------------------------------------------
      LOOP:  cpu time   64.7664: real time   64.7654

 eigenvalue-minimisations  :  7536
 total energy-change (2. order) :-0.2109418E+03  (-0.1981029E+03)
 number of electron     864.0000000 magnetization 
 augmentation part      864.0000000 magnetization 

 Free energy of the ion-electron system (eV)
  ---------------------------------------------------
  alpha Z        PSCENC =      7300.31925852
  Ewald energy   TEWEN  =    -66232.83996889
  -Hartree energ DENC   =    -11197.02572337
  -exchange      EXHF   =         0.00000000
  -V(xc)+E(xc)   XCENC  =       446.63038354
  PAW double counting   =     51723.88885462   -52548.28121372
  entropy T*S    EENTRO =        -0.06115908
  eigenvalues    EBANDS =      5278.67812377
  atomic energy  EATOM  =     64202.51952832
  Solvation  Ediel_sol  =         0.00000000
  ---------------------------------------------------
  free energy    TOTEN  =     -1026.17191628 eV

  energy without entropy =    -1026.11075720  energy(sigma->0) =    -1026.15152992


--------------------------------------------------------------------------------------------------------




--------------------------------------- Iteration      1(   5)  ---------------------------------------


     EDDAV:  cpu time   58.3523: real time   58.3524
       DOS:  cpu time    0.0067: real time    0.0067
    CHARGE:  cpu time    1.9999: real time    1.9998
    MIXING:  cpu time    0.0064: real time    0.0064
    --------------------------------------------
      LOOP:  cpu time   60.3653: real time   60.3654

 eigenvalue-minimisations  :  6680
 total energy-change (2. order) :-0.1890049E+02  (-0.1788933E+02)
 number of electron     864.0000691 magnetization 
 augmentation part      382.7965246 magnetization 

 Broyden mixing:
  rms(total) = 0.93450E+01    rms(broyden)= 0.93450E+01
  rms(prec ) = 0.11650E+02
  weight for this iteration     100.00

 Free energy of the ion-electron system (eV)
  ---------------------------------------------------
  alpha Z        PSCENC =      7300.31925852
  Ewald energy   TEWEN  =    -66232.83996889
  -Hartree energ DENC   =    -11197.02572337
  -exchange      EXHF   =         0.00000000
  -V(xc)+E(xc)   XCENC  =       446.63038354
  PAW double counting   =     51723.88885462   -52548.28121372
  entropy T*S    EENTRO =        -0.10755640
  eigenvalues    EBANDS =      5259.82402650
  atomic energy  EATOM  =     64202.51952832
  Solvation  Ediel_sol  =         0.00000000
  ---------------------------------------------------
  free energy    TOTEN  =     -1045.07241087 eV

  energy without entropy =    -1044.96485447  energy(sigma->0) =    -1045.03655874


--------------------------------------------------------------------------------------------------------




--------------------------------------- Iteration      1(   6)  ---------------------------------------


    POTLOK:  cpu time    0.2192: real time    0.2205
    SETDIJ:  cpu time    0.0495: real time    0.0495
    EDDIAG:  cpu time    5.4397: real time    5.4396
  RMM-DIIS:  cpu time   18.3028: real time   18.3022
    ORTHCH:  cpu time    1.6838: real time    1.6837
       DOS:  cpu time    0.0074: real time    0.0074
    CHARGE:  cpu time    2.0050: real time    2.0050
    MIXING:  cpu time    0.0067: real time    0.0067
    --------------------------------------------
      LOOP:  cpu time   27.7141: real time   27.7147

 eigenvalue-minimisations  :  4144
 total energy-change (2. order) : 0.1679952E+03  (-0.1352534E+03)
 number of electron     864.0000778 magnetization 
 augmentation part      447.6130205 magnetization 

 Broyden mixing:
  rms(total) = 0.88414E+00    rms(broyden)= 0.88409E+00
  rms(prec ) = 0.95563E+00
  weight for this iteration     100.00

 eigenvalues of (default mixing * dielectric matrix)
  average eigenvalue GAMMA=   0.9506
  0.9506

 Free energy of the ion-electron system (eV)
  ---------------------------------------------------
  alpha Z        PSCENC =      7300.31925852
  Ewald energy   TEWEN  =    -66232.83996889
  -Hartree energ DENC   =     -9342.82782864
  -exchange      EXHF   =         0.00000000
  -V(xc)+E(xc)   XCENC  =       355.81723102
  PAW double counting   =     52458.04693384   -53038.25121382
  entropy T*S    EENTRO =        -0.06586316
  eigenvalues    EBANDS =      3420.20471938
  atomic energy  EATOM  =     64202.51952832
  Solvation  Ediel_sol  =         0.00000000
  ---------------------------------------------------
  free energy    TOTEN  =      -877.07720343 eV

  energy without entropy =     -877.01134027  energy(sigma->0) =     -877.05524904


--------------------------------------------------------------------------------------------------------




--------------------------------------- Iteration      1(   7)  ---------------------------------------


    POTLOK:  cpu time    0.2152: real time    0.2152
    SETDIJ:  cpu time    0.0478: real time    0.0478
    EDDIAG:  cpu time    5.4393: real time    5.4392
  RMM-DIIS:  cpu time   20.0457: real time   20.0451
    ORTHCH:  cpu time    1.6847: real time    1.6847
       DOS:  cpu time    0.0077: real time    0.0077
    CHARGE:  cpu time    2.0128: real time    2.0128
    MIXING:  cpu time    0.0068: real time    0.0068
    --------------------------------------------
      LOOP:  cpu time   29.4600: real time   29.4592

 eigenvalue-minimisations  :  4559
 total energy-change (2. order) :-0.3126157E+01  (-0.1119062E+02)
 number of electron     864.0000753 magnetization 
 augmentation part      447.0511929 magnetization 

 Broyden mixing:
  rms(total) = 0.35246E+00    rms(broyden)= 0.35246E+00
  rms(prec ) = 0.40016E+00
  weight for this iteration     100.00

 eigenvalues of (default mixing * dielectric matrix)
  average eigenvalue GAMMA=   1.0853
  1.0853  1.0853

 Free energy of the ion-electron system (eV)
  ---------------------------------------------------
  alpha Z        PSCENC =      7300.31925852
  Ewald energy   TEWEN  =    -66232.83996889
  -Hartree energ DENC   =     -9380.14548252
  -exchange      EXHF   =         0.00000000
  -V(xc)+E(xc)   XCENC  =       360.02745108
  PAW double counting   =     54338.36317413   -55114.63155745
  entropy T*S    EENTRO =        -0.13351102
  eigenvalues    EBANDS =      3646.31774770
  atomic energy  EATOM  =     64202.51952832
  Solvation  Ediel_sol  =         0.00000000
  ---------------------------------------------------
  free energy    TOTEN  =      -880.20336012 eV

  energy without entropy =     -880.06984910  energy(sigma->0) =     -880.15885645


--------------------------------------------------------------------------------------------------------




--------------------------------------- Iteration      1(   8)  ---------------------------------------


    POTLOK:  cpu time    0.2181: real time    0.2190
    SETDIJ:  cpu time    0.0487: real time    0.0487
    EDDIAG:  cpu time    5.4441: real time    5.4440
  RMM-DIIS:  cpu time   19.4908: real time   19.4902
    ORTHCH:  cpu time    1.6841: real time    1.6841
       DOS:  cpu time    0.0078: real time    0.0078
    CHARGE:  cpu time    2.0052: real time    2.0051
    MIXING:  cpu time    0.0070: real time    0.0070
    --------------------------------------------
      LOOP:  cpu time   28.9057: real time   28.9058

 eigenvalue-minimisations  :  4428
 total energy-change (2. order) : 0.5221085E+00  (-0.1385025E+01)
 number of electron     864.0000748 magnetization 
 augmentation part      443.2237219 magnetization 

 Broyden mixing:
  rms(total) = 0.94730E+00    rms(broyden)= 0.94730E+00
  rms(prec ) = 0.13160E+01
  weight for this iteration     100.00

 eigenvalues of (default mixing * dielectric matrix)
  average eigenvalue GAMMA=   0.7797
  1.1044  1.1044  0.1303

 Free energy of the ion-electron system (eV)
  ---------------------------------------------------
  alpha Z        PSCENC =      7300.31925852
  Ewald energy   TEWEN  =    -66232.83996889
  -Hartree energ DENC   =     -9417.02457420
  -exchange      EXHF   =         0.00000000
  -V(xc)+E(xc)   XCENC  =       362.86924607
  PAW double counting   =     56074.79454318   -56955.73626781
  entropy T*S    EENTRO =        -0.09136168
  eigenvalues    EBANDS =      3785.50834481
  atomic energy  EATOM  =     64202.51952832
  Solvation  Ediel_sol  =         0.00000000
  ---------------------------------------------------
  free energy    TOTEN  =      -879.68125166 eV

  energy without entropy =     -879.58988998  energy(sigma->0) =     -879.65079777


--------------------------------------------------------------------------------------------------------




--------------------------------------- Iteration      1(   9)  ---------------------------------------


    POTLOK:  cpu time    0.2186: real time    0.2192
    SETDIJ:  cpu time    0.0485: real time    0.0485
    EDDIAG:  cpu time    5.4364: real time    5.4363
  RMM-DIIS:  cpu time   23.1817: real time   23.1810
    ORTHCH:  cpu time    1.6830: real time    1.6830
       DOS:  cpu time    0.0074: real time    0.0074
    CHARGE:  cpu time    2.0029: real time    2.0029
    MIXING:  cpu time    0.0074: real time    0.0074
    --------------------------------------------
      LOOP:  cpu time   32.5860: real time   32.5858

 eigenvalue-minimisations  :  5313
 total energy-change (2. order) : 0.3399906E-01  (-0.4851081E+00)
 number of electron     864.0000750 magnetization 
 augmentation part      443.6505309 magnetization 

 Broyden mixing:
  rms(total) = 0.25578E+00    rms(broyden)= 0.25577E+00
  rms(prec ) = 0.31434E+00
  weight for this iteration     100.00

 eigenvalues of (default mixing * dielectric matrix)
  average eigenvalue GAMMA=   1.1381
  2.3780  1.0317  1.0317  0.1108

 Free energy of the ion-electron system (eV)
  ---------------------------------------------------
  alpha Z        PSCENC =      7300.31925852
  Ewald energy   TEWEN  =    -66232.83996889
  -Hartree energ DENC   =     -9412.72708405
  -exchange      EXHF   =         0.00000000
  -V(xc)+E(xc)   XCENC  =       362.75910849
  PAW double counting   =     56262.42380742   -57152.03807693
  entropy T*S    EENTRO =        -0.07247739
  eigenvalues    EBANDS =      3790.00865191
  atomic energy  EATOM  =     64202.51952832
  Solvation  Ediel_sol  =         0.00000000
  ---------------------------------------------------
  free energy    TOTEN  =      -879.64725260 eV

  energy without entropy =     -879.57477521  energy(sigma->0) =     -879.62309347


--------------------------------------------------------------------------------------------------------




--------------------------------------- Iteration      1(  10)  ---------------------------------------


    POTLOK:  cpu time    0.2177: real time    0.2188
    SETDIJ:  cpu time    0.0489: real time    0.0489
    EDDIAG:  cpu time    5.4390: real time    5.4388
  RMM-DIIS:  cpu time   24.4474: real time   24.4467
    ORTHCH:  cpu time    1.6829: real time    1.6829
       DOS:  cpu time    0.0077: real time    0.0077
    CHARGE:  cpu time    2.0162: real time    2.0161
    MIXING:  cpu time    0.0081: real time    0.0081
    --------------------------------------------
      LOOP:  cpu time   33.8678: real time   33.8679

 eigenvalue-minimisations  :  5612
 total energy-change (2. order) : 0.1547887E+00  (-0.1354894E+00)
 number of electron     864.0000752 magnetization 
 augmentation part      444.8164731 magnetization 

 Broyden mixing:
  rms(total) = 0.59259E-01    rms(broyden)= 0.59259E-01
  rms(prec ) = 0.74532E-01
  weight for this iteration     100.00

 eigenvalues of (default mixing * dielectric matrix)
  average eigenvalue GAMMA=   1.1649
  2.5928  1.2288  0.9458  0.9458  0.1111

 Free energy of the ion-electron system (eV)
  ---------------------------------------------------
  alpha Z        PSCENC =      7300.31925852
  Ewald energy   TEWEN  =    -66232.83996889
  -Hartree energ DENC   =     -9334.86127783
  -exchange      EXHF   =         0.00000000
  -V(xc)+E(xc)   XCENC  =       359.64122723
  PAW double counting   =     57807.30652198   -58745.42485445
  entropy T*S    EENTRO =        -0.08206991
  eigenvalues    EBANDS =      3763.92917114
  atomic energy  EATOM  =     64202.51952832
  Solvation  Ediel_sol  =         0.00000000
  ---------------------------------------------------
  free energy    TOTEN  =      -879.49246388 eV

  energy without entropy =     -879.41039396  energy(sigma->0) =     -879.46510724


--------------------------------------------------------------------------------------------------------




--------------------------------------- Iteration      1(  11)  ---------------------------------------


    POTLOK:  cpu time    0.2223: real time    0.2238
    SETDIJ:  cpu time    0.0496: real time    0.0496
    EDDIAG:  cpu time    5.4199: real time    5.4198
  RMM-DIIS:  cpu time   25.2595: real time   25.2588
    ORTHCH:  cpu time    1.6835: real time    1.6834
       DOS:  cpu time    0.0075: real time    0.0075
    CHARGE:  cpu time    1.9946: real time    1.9946
    MIXING:  cpu time    0.0095: real time    0.0095
    --------------------------------------------
      LOOP:  cpu time   34.6464: real time   34.6470

 eigenvalue-minimisations  :  5801
 total energy-change (2. order) :-0.1370520E-01  (-0.1327211E-01)
 number of electron     864.0000752 magnetization 
 augmentation part      444.9476558 magnetization 

 Broyden mixing:
  rms(total) = 0.59018E-01    rms(broyden)= 0.59018E-01
  rms(prec ) = 0.74450E-01
  weight for this iteration     100.00

 eigenvalues of (default mixing * dielectric matrix)
  average eigenvalue GAMMA=   1.2798
  2.6507  2.0558  0.9772  0.9772  0.9068  0.1111

 Free energy of the ion-electron system (eV)
  ---------------------------------------------------
  alpha Z        PSCENC =      7300.31925852
  Ewald energy   TEWEN  =    -66232.83996889
  -Hartree energ DENC   =     -9335.45790648
  -exchange      EXHF   =         0.00000000
  -V(xc)+E(xc)   XCENC  =       359.70012398
  PAW double counting   =     58021.76236373   -58961.86943030
  entropy T*S    EENTRO =        -0.08021195
  eigenvalues    EBANDS =      3766.44007399
  atomic energy  EATOM  =     64202.51952832
  Solvation  Ediel_sol  =         0.00000000
  ---------------------------------------------------
  free energy    TOTEN  =      -879.50616907 eV

  energy without entropy =     -879.42595712  energy(sigma->0) =     -879.47943176


--------------------------------------------------------------------------------------------------------




--------------------------------------- Iteration      1(  12)  ---------------------------------------


    POTLOK:  cpu time    0.2167: real time    0.2174
    SETDIJ:  cpu time    0.0482: real time    0.0482
    EDDIAG:  cpu time    5.4177: real time    5.4176
  RMM-DIIS:  cpu time   19.8150: real time   19.8145
    ORTHCH:  cpu time    1.6835: real time    1.6835
       DOS:  cpu time    0.0072: real time    0.0072
    CHARGE:  cpu time    1.9930: real time    1.9930
    MIXING:  cpu time    0.0089: real time    0.0089
    --------------------------------------------
      LOOP:  cpu time   29.1902: real time   29.1903

 eigenvalue-minimisations  :  4508
 total energy-change (2. order) : 0.5738372E-02  (-0.3643254E-02)
 number of electron     864.0000752 magnetization 
 augmentation part      444.6364238 magnetization 

 Broyden mixing:
  rms(total) = 0.10557E-01    rms(broyden)= 0.10557E-01
  rms(prec ) = 0.14153E-01
  weight for this iteration     100.00

 eigenvalues of (default mixing * dielectric matrix)
  average eigenvalue GAMMA=   1.3129
  2.4557  2.4557  1.3105  0.9835  0.9835  0.8904  0.1111

 Free energy of the ion-electron system (eV)
  ---------------------------------------------------
  alpha Z        PSCENC =      7300.31925852
  Ewald energy   TEWEN  =    -66232.83996889
  -Hartree energ DENC   =     -9348.85369929
  -exchange      EXHF   =         0.00000000
  -V(xc)+E(xc)   XCENC  =       360.29475431
  PAW double counting   =     58056.17642899   -58992.69502937
  entropy T*S    EENTRO =        -0.07643258
  eigenvalues    EBANDS =      3775.65472928
  atomic energy  EATOM  =     64202.51952832
  Solvation  Ediel_sol  =         0.00000000
  ---------------------------------------------------
  free energy    TOTEN  =      -879.50043070 eV

  energy without entropy =     -879.42399812  energy(sigma->0) =     -879.47495317


--------------------------------------------------------------------------------------------------------




--------------------------------------- Iteration      1(  13)  ---------------------------------------


    POTLOK:  cpu time    0.2193: real time    0.2199
    SETDIJ:  cpu time    0.0483: real time    0.0483
    EDDIAG:  cpu time    5.4158: real time    5.4157
  RMM-DIIS:  cpu time   24.3399: real time   24.3392
    ORTHCH:  cpu time    1.6818: real time    1.6817
       DOS:  cpu time    0.0075: real time    0.0075
    CHARGE:  cpu time    1.9920: real time    1.9920
    MIXING:  cpu time    0.0093: real time    0.0093
    --------------------------------------------
      LOOP:  cpu time   33.7139: real time   33.7136

 eigenvalue-minimisations  :  5586
 total energy-change (2. order) :-0.8945879E-03  (-0.1254629E-02)
 number of electron     864.0000752 magnetization 
 augmentation part      444.5713808 magnetization 

 Broyden mixing:
  rms(total) = 0.51819E-02    rms(broyden)= 0.51818E-02
  rms(prec ) = 0.66155E-02
  weight for this iteration     100.00

 eigenvalues of (default mixing * dielectric matrix)
  average eigenvalue GAMMA=   1.3391
  2.5777  2.1180  2.1180  0.1111  0.9813  0.9813  0.9127  0.9127

 Free energy of the ion-electron system (eV)
  ---------------------------------------------------
  alpha Z        PSCENC =      7300.31925852
  Ewald energy   TEWEN  =    -66232.83996889
  -Hartree energ DENC   =     -9350.49468714
  -exchange      EXHF   =         0.00000000
  -V(xc)+E(xc)   XCENC  =       360.35792944
  PAW double counting   =     58044.12591017   -58979.08878471
  entropy T*S    EENTRO =        -0.07554041
  eigenvalues    EBANDS =      3775.67502940
  atomic energy  EATOM  =     64202.51952832
  Solvation  Ediel_sol  =         0.00000000
  ---------------------------------------------------
  free energy    TOTEN  =      -879.50132529 eV

  energy without entropy =     -879.42578488  energy(sigma->0) =     -879.47614515


--------------------------------------------------------------------------------------------------------




--------------------------------------- Iteration      1(  14)  ---------------------------------------


    POTLOK:  cpu time    0.2180: real time    0.2190
    SETDIJ:  cpu time    0.0498: real time    0.0498
    EDDIAG:  cpu time    5.4206: real time    5.4205
  RMM-DIIS:  cpu time   20.7976: real time   20.7970
    ORTHCH:  cpu time    1.6815: real time    1.6815
       DOS:  cpu time    0.0074: real time    0.0074
    CHARGE:  cpu time    1.9948: real time    1.9947
    MIXING:  cpu time    0.0094: real time    0.0094
    --------------------------------------------
      LOOP:  cpu time   30.1790: real time   30.1792

 eigenvalue-minimisations  :  4741
 total energy-change (2. order) :-0.9954936E-05  (-0.2705777E-04)
 number of electron     864.0000752 magnetization 
 augmentation part      444.6044921 magnetization 

 Broyden mixing:
  rms(total) = 0.18998E-02    rms(broyden)= 0.18998E-02
  rms(prec ) = 0.25209E-02
  weight for this iteration     100.00

 eigenvalues of (default mixing * dielectric matrix)
  average eigenvalue GAMMA=   1.2846
  2.5805  2.1690  2.1690  0.1111  0.9800  0.9800  0.9383  0.9383  0.6952

 Free energy of the ion-electron system (eV)
  ---------------------------------------------------
  alpha Z        PSCENC =      7300.31925852
  Ewald energy   TEWEN  =    -66232.83996889
  -Hartree energ DENC   =     -9349.09712334
  -exchange      EXHF   =         0.00000000
  -V(xc)+E(xc)   XCENC  =       360.29928633
  PAW double counting   =     58042.52038342   -58977.75969340
  entropy T*S    EENTRO =        -0.07515066
  eigenvalues    EBANDS =      3774.61214445
  atomic energy  EATOM  =     64202.51952832
  Solvation  Ediel_sol  =         0.00000000
  ---------------------------------------------------
  free energy    TOTEN  =      -879.50133524 eV

  energy without entropy =     -879.42618458  energy(sigma->0) =     -879.47628502


--------------------------------------------------------------------------------------------------------




--------------------------------------- Iteration      1(  15)  ---------------------------------------


    POTLOK:  cpu time    0.2199: real time    0.2213
    SETDIJ:  cpu time    0.0495: real time    0.0495
    EDDIAG:  cpu time    5.4156: real time    5.4155
  RMM-DIIS:  cpu time   24.9361: real time   24.9354
    ORTHCH:  cpu time    1.6821: real time    1.6820
       DOS:  cpu time    0.0077: real time    0.0077
    CHARGE:  cpu time    2.0029: real time    2.0029
    MIXING:  cpu time    0.0106: real time    0.0106
    --------------------------------------------
      LOOP:  cpu time   34.3245: real time   34.3249

 eigenvalue-minimisations  :  5723
 total energy-change (2. order) : 0.2720428E-04  ( 0.5535653E-05)
 number of electron     864.0000752 magnetization 
 augmentation part      444.5996153 magnetization 

 Broyden mixing:
  rms(total) = 0.51546E-03    rms(broyden)= 0.51545E-03
  rms(prec ) = 0.61619E-03
  weight for this iteration     100.00

 eigenvalues of (default mixing * dielectric matrix)
  average eigenvalue GAMMA=   1.4539
  3.1549  2.5733  2.5733  0.1111  1.0741  1.0741  0.9089  1.0276  1.0208  1.0208

 Free energy of the ion-electron system (eV)
  ---------------------------------------------------
  alpha Z        PSCENC =      7300.31925852
  Ewald energy   TEWEN  =    -66232.83996889
  -Hartree energ DENC   =     -9349.36560422
  -exchange      EXHF   =         0.00000000
  -V(xc)+E(xc)   XCENC  =       360.31224640
  PAW double counting   =     58042.32557778   -58977.52140327
  entropy T*S    EENTRO =        -0.07463953
  eigenvalues    EBANDS =      3774.82369685
  atomic energy  EATOM  =     64202.51952832
  Solvation  Ediel_sol  =         0.00000000
  ---------------------------------------------------
  free energy    TOTEN  =      -879.50130804 eV

  energy without entropy =     -879.42666851  energy(sigma->0) =     -879.47642820


--------------------------------------------------------------------------------------------------------




--------------------------------------- Iteration      1(  16)  ---------------------------------------


    POTLOK:  cpu time    0.2193: real time    0.2201
    SETDIJ:  cpu time    0.0500: real time    0.0500
    EDDIAG:  cpu time    5.4121: real time    5.4119
  RMM-DIIS:  cpu time   20.1857: real time   20.1851
    ORTHCH:  cpu time    1.6804: real time    1.6804
       DOS:  cpu time    0.0077: real time    0.0077
    CHARGE:  cpu time    2.0032: real time    2.0032
    MIXING:  cpu time    0.0111: real time    0.0111
    --------------------------------------------
      LOOP:  cpu time   29.5695: real time   29.5695

 eigenvalue-minimisations  :  4601
 total energy-change (2. order) : 0.2650977E-04  ( 0.3250578E-04)
 number of electron     864.0000752 magnetization 
 augmentation part      444.6082662 magnetization 

 Broyden mixing:
  rms(total) = 0.11939E-02    rms(broyden)= 0.11939E-02
  rms(prec ) = 0.15506E-02
  weight for this iteration     100.00

 eigenvalues of (default mixing * dielectric matrix)
  average eigenvalue GAMMA=   1.3592
  2.7162  2.3710  2.3710  0.1111  1.2923  1.2923  0.9951  0.9951  0.8605  0.9942
  0.9525

 Free energy of the ion-electron system (eV)
  ---------------------------------------------------
  alpha Z        PSCENC =      7300.31925852
  Ewald energy   TEWEN  =    -66232.83996889
  -Hartree energ DENC   =     -9349.08103518
  -exchange      EXHF   =         0.00000000
  -V(xc)+E(xc)   XCENC  =       360.30071559
  PAW double counting   =     58040.71727750   -58975.94100104
  entropy T*S    EENTRO =        -0.07427720
  eigenvalues    EBANDS =      3774.57822084
  atomic energy  EATOM  =     64202.51952832
  Solvation  Ediel_sol  =         0.00000000
  ---------------------------------------------------
  free energy    TOTEN  =      -879.50128153 eV

  energy without entropy =     -879.42700433  energy(sigma->0) =     -879.47652246


--------------------------------------------------------------------------------------------------------




--------------------------------------- Iteration      1(  17)  ---------------------------------------


    POTLOK:  cpu time    0.2189: real time    0.2196
    SETDIJ:  cpu time    0.0496: real time    0.0496
    EDDIAG:  cpu time    5.4095: real time    5.4094
  RMM-DIIS:  cpu time   20.1585: real time   20.1579
    ORTHCH:  cpu time    1.6785: real time    1.6785
       DOS:  cpu time    0.0078: real time    0.0078
    CHARGE:  cpu time    1.9974: real time    1.9973
    MIXING:  cpu time    0.0114: real time    0.0114
    --------------------------------------------
      LOOP:  cpu time   29.5325: real time   29.5314

 eigenvalue-minimisations  :  4591
[...]
   0.105E-01 0.103E-01 0.143E-04   -.205E-01 -.202E-01 -.277E-04   0.852E-21 0.135E-19 0.119E-19   -.108E-06 -.990E-07 -.400E-08
   -.105E-01 -.143E-04 0.142E-04   0.205E-01 0.277E-04 -.277E-04   -.171E-24 0.339E-20 -.805E-20   0.104E-06 0.407E-08 -.400E-08
   -.105E-01 0.103E-01 -.103E-01   0.205E-01 -.202E-01 0.202E-01   0.174E-24 -.300E-20 -.174E-19   0.103E-06 -.991E-07 0.104E-06
   -.143E-04 -.103E-01 -.103E-01   0.277E-04 0.202E-01 0.202E-01   -.127E-20 0.593E-20 0.233E-19   0.407E-08 0.103E-06 0.103E-06
   -.143E-04 0.143E-04 0.143E-04   0.277E-04 -.277E-04 -.277E-04   0.423E-21 -.250E-19 0.152E-19   0.407E-08 -.400E-08 -.400E-08
   0.103E-01 -.103E-01 0.143E-04   -.202E-01 0.202E-01 -.277E-04   -.391E-21 0.110E-19 -.212E-20   -.990E-07 0.104E-06 -.400E-08
   0.103E-01 0.143E-04 -.103E-01   -.202E-01 -.277E-04 0.202E-01   -.182E-21 -.466E-20 0.847E-21   -.990E-07 -.400E-08 0.104E-06
   -.103E-01 -.103E-01 -.103E-01   0.202E-01 0.202E-01 0.202E-01   0.173E-24 0.932E-20 0.127E-19   0.103E-06 0.103E-06 0.103E-06
   -.103E-01 0.143E-04 0.142E-04   0.202E-01 -.277E-04 -.277E-04   -.171E-24 -.424E-20 -.148E-19   0.104E-06 -.400E-08 -.400E-08
   0.143E-04 -.103E-01 0.142E-04   -.277E-04 0.202E-01 -.277E-04   -.847E-21 -.127E-19 0.178E-19   -.400E-08 0.104E-06 -.400E-08
   0.143E-04 0.143E-04 -.103E-01   -.277E-04 -.277E-04 0.202E-01   0.424E-21 -.114E-19 0.106E-19   -.400E-08 -.400E-08 0.104E-06
   0.105E-01 -.103E-01 -.103E-01   -.205E-01 0.202E-01 0.202E-01   0.682E-21 -.593E-20 0.233E-19   -.108E-06 0.103E-06 0.103E-06
   0.105E-01 0.143E-04 0.143E-04   -.205E-01 -.277E-04 -.277E-04   -.245E-21 0.805E-20 0.551E-20   -.108E-06 -.400E-08 -.400E-08
   -.105E-01 -.103E-01 0.142E-04   0.205E-01 0.202E-01 -.277E-04   -.173E-24 0.847E-21 -.123E-19   0.103E-06 0.104E-06 -.400E-08
   -.105E-01 0.143E-04 -.103E-01   0.205E-01 -.277E-04 0.202E-01   0.176E-24 -.932E-20 0.165E-19   0.103E-06 -.400E-08 0.104E-06
   -.143E-04 0.105E-01 -.103E-01   0.277E-04 -.205E-01 0.202E-01   -.127E-20 0.944E-20 0.309E-19   0.407E-08 -.107E-06 0.103E-06
   -.143E-04 -.105E-01 0.142E-04   0.277E-04 0.205E-01 -.277E-04   0.423E-21 0.440E-19 0.847E-20   0.407E-08 0.104E-06 -.400E-08
   0.103E-01 0.105E-01 0.143E-04   -.202E-01 -.205E-01 -.277E-04   -.157E-20 0.288E-20 -.229E-19   -.990E-07 -.108E-06 -.400E-08
   0.103E-01 -.105E-01 -.103E-01   -.202E-01 0.205E-01 0.202E-01   0.262E-21 -.593E-20 0.974E-20   -.991E-07 0.103E-06 0.104E-06
   -.103E-01 0.105E-01 -.103E-01   0.202E-01 -.205E-01 0.202E-01   0.175E-24 -.369E-20 0.216E-19   0.103E-06 -.108E-06 0.103E-06
   -.103E-01 -.105E-01 0.142E-04   0.202E-01 0.205E-01 -.277E-04   -.174E-24 0.165E-19 0.191E-19   0.104E-06 0.103E-06 -.400E-08
   0.143E-04 0.105E-01 0.143E-04   -.277E-04 -.205E-01 -.277E-04   0.423E-21 0.105E-19 -.889E-20   -.400E-08 -.108E-06 -.400E-08
   0.143E-04 -.105E-01 -.103E-01   -.277E-04 0.205E-01 0.202E-01   0.847E-21 0.114E-19 -.805E-20   -.400E-08 0.103E-06 0.104E-06
   0.105E-01 0.105E-01 -.103E-01   -.205E-01 -.205E-01 0.202E-01   0.682E-21 -.919E-20 0.339E-20   -.108E-06 -.108E-06 0.103E-06
   0.105E-01 -.105E-01 0.143E-04   -.205E-01 0.205E-01 -.277E-04   -.219E-20 -.720E-20 -.466E-20   -.108E-06 0.103E-06 -.400E-08
   -.105E-01 0.105E-01 0.143E-04   0.205E-01 -.205E-01 -.277E-04   -.172E-24 -.644E-20 -.212E-20   0.103E-06 -.108E-06 -.400E-08
   -.105E-01 -.105E-01 -.103E-01   0.205E-01 0.205E-01 0.202E-01   0.174E-24 -.466E-20 -.424E-20   0.103E-06 0.103E-06 0.104E-06
   -.143E-04 -.143E-04 0.105E-01   0.277E-04 0.277E-04 -.205E-01   -.424E-21 0.847E-20 -.791E-20   0.407E-08 0.407E-08 -.108E-06
   -.143E-04 0.103E-01 -.105E-01   0.277E-04 -.202E-01 0.205E-01   0.847E-21 -.170E-19 -.246E-19   0.407E-08 -.990E-07 0.103E-06
   0.103E-01 -.143E-04 -.105E-01   -.202E-01 0.277E-04 0.205E-01   0.121E-20 -.169E-19 -.551E-20   -.990E-07 0.407E-08 0.103E-06
   0.103E-01 0.103E-01 0.105E-01   -.202E-01 -.202E-01 -.205E-01   0.377E-21 0.566E-20 0.370E-19   -.991E-07 -.991E-07 -.108E-06
   -.103E-01 -.143E-04 0.105E-01   0.202E-01 0.277E-04 -.205E-01   0.138E-26 0.123E-19 -.384E-19   0.103E-06 0.407E-08 -.107E-06
   -.103E-01 0.103E-01 -.105E-01   0.202E-01 -.202E-01 0.205E-01   0.172E-24 0.186E-19 -.847E-21   0.104E-06 -.991E-07 0.103E-06
   0.143E-04 -.143E-04 -.105E-01   -.277E-04 0.277E-04 0.205E-01   -.847E-21 -.169E-20 -.254E-19   -.400E-08 0.407E-08 0.104E-06
   0.143E-04 0.103E-01 0.105E-01   -.277E-04 -.202E-01 -.205E-01   -.127E-20 -.147E-19 0.651E-20   -.400E-08 -.990E-07 -.108E-06
   0.105E-01 -.143E-04 0.105E-01   -.205E-01 0.277E-04 -.205E-01   -.306E-20 -.212E-20 0.391E-19   -.107E-06 0.407E-08 -.107E-06
   0.105E-01 0.103E-01 -.105E-01   -.205E-01 -.202E-01 0.205E-01   0.735E-21 0.194E-19 0.847E-21   -.108E-06 -.991E-07 0.103E-06
   -.105E-01 -.143E-04 -.105E-01   0.205E-01 0.277E-04 0.205E-01   0.173E-24 0.102E-19 -.131E-19   0.103E-06 0.407E-08 0.103E-06
   -.105E-01 0.103E-01 0.105E-01   0.205E-01 -.202E-01 -.205E-01   0.252E-27 0.129E-19 0.948E-20   0.103E-06 -.991E-07 -.108E-06
   -.143E-04 -.103E-01 0.105E-01   0.277E-04 0.202E-01 -.205E-01   -.127E-20 0.847E-21 -.578E-20   0.407E-08 0.103E-06 -.107E-06
   -.143E-04 0.143E-04 -.105E-01   0.277E-04 -.277E-04 0.205E-01   0.127E-20 -.220E-19 0.123E-19   0.407E-08 -.400E-08 0.104E-06
   0.103E-01 -.103E-01 -.105E-01   -.202E-01 0.202E-01 0.205E-01   -.777E-21 -.212E-20 -.762E-20   -.991E-07 0.104E-06 0.103E-06
   0.103E-01 0.143E-04 0.105E-01   -.202E-01 -.277E-04 -.205E-01   0.993E-22 0.424E-21 -.168E-19   -.990E-07 -.400E-08 -.108E-06
   -.103E-01 -.103E-01 0.105E-01   0.202E-01 0.202E-01 -.205E-01   -.908E-27 0.114E-19 -.126E-19   0.103E-06 0.103E-06 -.108E-06
   -.103E-01 0.143E-04 -.105E-01   0.202E-01 -.277E-04 0.205E-01   0.173E-24 0.678E-20 0.178E-19   0.104E-06 -.400E-08 0.103E-06
   0.143E-04 -.103E-01 -.105E-01   -.277E-04 0.202E-01 0.205E-01   0.424E-21 -.106E-19 0.127E-20   -.400E-08 0.104E-06 0.103E-06
   0.143E-04 0.143E-04 0.105E-01   -.277E-04 -.277E-04 -.205E-01   -.847E-21 -.974E-20 -.159E-19   -.400E-08 -.400E-08 -.108E-06
   0.105E-01 -.103E-01 0.105E-01   -.205E-01 0.202E-01 -.205E-01   0.926E-22 0.140E-19 -.227E-19   -.108E-06 0.103E-06 -.108E-06
   0.105E-01 0.143E-04 -.105E-01   -.205E-01 -.277E-04 0.205E-01   0.127E-20 0.254E-20 0.296E-20   -.108E-06 -.400E-08 0.103E-06
   -.105E-01 -.103E-01 -.105E-01   0.205E-01 0.202E-01 0.205E-01   0.171E-24 -.508E-20 -.551E-20   0.103E-06 0.104E-06 0.103E-06
   -.105E-01 0.143E-04 0.105E-01   0.205E-01 -.277E-04 -.205E-01   0.130E-26 -.847E-21 -.134E-19   0.103E-06 -.400E-08 -.108E-06
   -.143E-04 0.105E-01 0.105E-01   0.277E-04 -.205E-01 -.205E-01   -.127E-20 -.695E-21 -.227E-19   0.407E-08 -.107E-06 -.107E-06
   -.143E-04 -.105E-01 -.105E-01   0.277E-04 0.205E-01 0.205E-01   -.127E-20 0.224E-19 0.148E-19   0.407E-08 0.103E-06 0.103E-06
   0.103E-01 0.105E-01 -.105E-01   -.202E-01 -.205E-01 0.205E-01   -.298E-21 -.717E-20 -.199E-19   -.991E-07 -.108E-06 0.103E-06
   0.103E-01 -.105E-01 0.105E-01   -.202E-01 0.205E-01 -.205E-01   0.260E-20 -.762E-20 0.159E-21   -.991E-07 0.103E-06 -.108E-06
   -.103E-01 0.105E-01 0.105E-01   0.202E-01 -.205E-01 -.205E-01   0.255E-27 -.104E-19 -.917E-20   0.103E-06 -.108E-06 -.108E-06
   -.103E-01 -.105E-01 -.105E-01   0.202E-01 0.205E-01 0.205E-01   0.171E-24 0.169E-20 -.720E-20   0.104E-06 0.103E-06 0.103E-06
   0.143E-04 0.105E-01 -.105E-01   -.277E-04 -.205E-01 0.205E-01   0.169E-20 0.299E-20 -.635E-20   -.400E-08 -.108E-06 0.103E-06
   0.143E-04 -.105E-01 0.105E-01   -.277E-04 0.205E-01 -.205E-01   -.292E-26 0.216E-19 0.201E-19   -.400E-08 0.103E-06 -.108E-06
   0.105E-01 0.105E-01 0.105E-01   -.205E-01 -.205E-01 -.205E-01   0.203E-21 0.227E-20 -.159E-19   -.108E-06 -.108E-06 -.108E-06
   0.105E-01 -.105E-01 -.105E-01   -.205E-01 0.205E-01 0.205E-01   0.200E-20 -.889E-20 -.932E-20   -.108E-06 0.103E-06 0.103E-06
   -.105E-01 0.105E-01 -.105E-01   0.205E-01 -.205E-01 0.205E-01   0.172E-24 -.887E-20 -.339E-20   0.103E-06 -.108E-06 0.103E-06
   -.105E-01 -.105E-01 0.105E-01   0.205E-01 0.205E-01 -.205E-01   -.830E-27 -.123E-19 0.235E-19   0.103E-06 0.103E-06 -.108E-06
 -----------------------------------------------------------------------------------------------
   -.477E-08 -.474E-08 -.482E-08   0.796E-12 0.107E-11 0.103E-11   -.151E-20 0.839E-20 -.120E-18   0.362E-08 0.362E-08 0.362E-08
 
 
 POSITION                                       TOTAL-FORCE (eV/Angst)
 -----------------------------------------------------------------------------------
      0.00000     -0.00000      0.00000        -0.000000     -0.000000      0.000000
      0.00000      1.72380      1.72380        -0.000000     -0.000000      0.000000
      1.72380      0.00000      1.72380        -0.000000     -0.000000      0.000000
      1.72380      1.72380     -0.00000         0.000000     -0.000000      0.000000
      3.44753      0.00000     -0.00000         0.000000     -0.000000      0.000000
      3.44753      1.72380      1.72380        -0.000000     -0.000000      0.000000
      5.17133      0.00000      1.72380        -0.000000      0.000000      0.000000
      5.17133      1.72380     -0.00000        -0.000000     -0.000000     -0.000000
      6.89513      0.00000     -0.00000         0.000000      0.000000     -0.000000
      6.89513      1.72380      1.72380        -0.000000      0.000000     -0.000000
      8.61886      0.00000      1.72380        -0.000000     -0.000000     -0.000000
      8.61886      1.72380     -0.00000         0.000000     -0.000000      0.000000
     -0.00000      3.44753     -0.00000        -0.000000      0.000000      0.000000
      0.00000      5.17133      1.72380        -0.000000     -0.000000      0.000000
      1.72380      3.44753      1.72380        -0.000000      0.000000     -0.000000
      1.72380      5.17133     -0.00000         0.000000      0.000000      0.000000
      3.44753      3.44753     -0.00000        -0.000000     -0.000000     -0.000000
      3.44753      5.17133      1.72380         0.000000     -0.000000     -0.000000
      5.17133      3.44753      1.72380        -0.000000      0.000000     -0.000000
      5.17133      5.17133     -0.00000        -0.000000      0.000000      0.000000
      6.89513      3.44753     -0.00000         0.000000     -0.000000     -0.000000
      6.89513      5.17133      1.72380         0.000000      0.000000     -0.000000
      8.61886      3.44753      1.72380         0.000000     -0.000000     -0.000000
      8.61886      5.17133     -0.00000        -0.000000     -0.000000      0.000000
      0.00000      6.89513     -0.00000         0.000000     -0.000000      0.000000
      0.00000      8.61886      1.72380         0.000000      0.000000      0.000000
      1.72380      6.89513      1.72380        -0.000000     -0.000000     -0.000000
      1.72380      8.61886     -0.00000        -0.000000      0.000000      0.000000
      3.44753      6.89513     -0.00000        -0.000000      0.000000     -0.000000
      3.44753      8.61886      1.72380        -0.000000      0.000000     -0.000000
      5.17133      6.89513      1.72380         0.000000      0.000000     -0.000000
      5.17133      8.61886     -0.00000         0.000000     -0.000000      0.000000
      6.89513      6.89513     -0.00000         0.000000     -0.000000     -0.000000
      6.89513      8.61886      1.72380        -0.000000     -0.000000     -0.000000
      8.61886      6.89513      1.72380         0.000000     -0.000000     -0.000000
      8.61886      8.61886     -0.00000        -0.000000      0.000000     -0.000000
      0.00000      0.00000      3.44753         0.000000     -0.000000     -0.000000
      0.00000      1.72380      5.17133        -0.000000      0.000000      0.000000
      1.72380      0.00000      5.17133        -0.000000      0.000000      0.000000
      1.72380      1.72380      3.44753         0.000000     -0.000000     -0.000000
      3.44753      0.00000      3.44753        -0.000000      0.000000      0.000000
      3.44753      1.72380      5.17133         0.000000      0.000000     -0.000000
      5.17133      0.00000      5.17133         0.000000      0.000000     -0.000000
      5.17133      1.72380      3.44753         0.000000     -0.000000     -0.000000
      6.89513      0.00000      3.44753        -0.000000     -0.000000      0.000000
      6.89513      1.72380      5.17133        -0.000000      0.000000     -0.000000
      8.61886      0.00000      5.17133        -0.000000      0.000000      0.000000
      8.61886      1.72380      3.44753        -0.000000     -0.000000      0.000000
      0.00000      3.44753      3.44753        -0.000000      0.000000     -0.000000
      0.00000      5.17133      5.17133         0.000000     -0.000000      0.000000
      1.72380      3.44753      5.17133         0.000000      0.000000     -0.000000
      1.72380      5.17133      3.44753         0.000000      0.000000     -0.000000
      3.44753      3.44753      3.44753        -0.000000      0.000000      0.000000
      3.44753      5.17133      5.17133        -0.000000     -0.000000     -0.000000
      5.17133      3.44753      5.17133        -0.000000      0.000000     -0.000000
      5.17133      5.17133      3.44753        -0.000000      0.000000     -0.000000
      6.89513      3.44753      3.44753         0.000000     -0.000000      0.000000
      6.89513      5.17133      5.17133         0.000000     -0.000000     -0.000000
      8.61886      3.44753      5.17133         0.000000     -0.000000     -0.000000
      8.61886      5.17133      3.44753        -0.000000      0.000000     -0.000000
      0.00000      6.89513      3.44753         0.000000      0.000000     -0.000000
      0.00000      8.61886      5.17133        -0.000000      0.000000      0.000000
      1.72380      6.89513      5.17133         0.000000     -0.000000     -0.000000
      1.72380      8.61886      3.44753         0.000000     -0.000000     -0.000000
      3.44753      6.89513      3.44753         0.000000     -0.000000      0.000000
      3.44753      8.61886      5.17133         0.000000      0.000000      0.000000
      5.17133      6.89513      5.17133         0.000000      0.000000     -0.000000
      5.17133      8.61886      3.44753        -0.000000     -0.000000     -0.000000
      6.89513      6.89513      3.44753        -0.000000     -0.000000      0.000000
      6.89513      8.61886      5.17133        -0.000000     -0.000000     -0.000000
      8.61886      6.89513      5.17133        -0.000000      0.000000     -0.000000
      8.61886      8.61886      3.44753        -0.000000      0.000000     -0.000000
      0.00000      0.00000      6.89513         0.000000     -0.000000      0.000000
      0.00000      1.72380      8.61886        -0.000000     -0.000000     -0.000000
      1.72380      0.00000      8.61886        -0.000000      0.000000     -0.000000
      1.72380      1.72380      6.89513         0.000000     -0.000000      0.000000
      3.44753      0.00000      6.89513         0.000000      0.000000     -0.000000
      3.44753      1.72380      8.61886        -0.000000      0.000000     -0.000000
      5.17133      0.00000      8.61886         0.000000      0.000000     -0.000000
      5.17133      1.72380      6.89513        -0.000000     -0.000000      0.000000
      6.89513      0.00000      6.89513        -0.000000      0.000000     -0.000000
      6.89513      1.72380      8.61886        -0.000000      0.000000      0.000000
      8.61886      0.00000      8.61886        -0.000000      0.000000     -0.000000
      8.61886      1.72380      6.89513         0.000000     -0.000000     -0.000000
      0.00000      3.44753      6.89513         0.000000      0.000000      0.000000
      0.00000      5.17133      8.61886        -0.000000     -0.000000      0.000000
      1.72380      3.44753      8.61886        -0.000000     -0.000000     -0.000000
      1.72380      5.17133      6.89513        -0.000000      0.000000      0.000000
      3.44753      3.44753      6.89513        -0.000000      0.000000      0.000000
      3.44753      5.17133      8.61886        -0.000000     -0.000000      0.000000
      5.17133      3.44753      8.61886         0.000000     -0.000000      0.000000
      5.17133      5.17133      6.89513         0.000000     -0.000000     -0.000000
      6.89513      3.44753      6.89513         0.000000     -0.000000     -0.000000
      6.89513      5.17133      8.61886         0.000000      0.000000      0.000000
      8.61886      3.44753      8.61886        -0.000000      0.000000      0.000000
      8.61886      5.17133      6.89513         0.000000     -0.000000      0.000000
      0.00000      6.89513      6.89513         0.000000     -0.000000      0.000000
      0.00000      8.61886      8.61886         0.000000      0.000000      0.000000
      1.72380      6.89513      8.61886        -0.000000      0.000000      0.000000
      1.72380      8.61886      6.89513         0.000000      0.000000      0.000000
      3.44753      6.89513      6.89513        -0.000000      0.000000     -0.000000
      3.44753      8.61886      8.61886         0.000000      0.000000     -0.000000
      5.17133      6.89513      8.61886        -0.000000      0.000000      0.000000
      5.17133      8.61886      6.89513         0.000000     -0.000000      0.000000
      6.89513      6.89513      6.89513        -0.000000      0.000000     -0.000000
      6.89513      8.61886      8.61886        -0.000000     -0.000000      0.000000
      8.61886      6.89513      8.61886        -0.000000      0.000000      0.000000
      8.61886      8.61886      6.89513         0.000000     -0.000000      0.000000
 -----------------------------------------------------------------------------------
    total drift:                               -0.000000     -0.000000     -0.000000


--------------------------------------------------------------------------------------------------------



  FREE ENERGIE OF THE ION-ELECTRON SYSTEM (eV)
  ---------------------------------------------------
  free  energy   TOTEN  =      -879.50590095 eV

  energy  without entropy=     -879.43592854  energy(sigma->0) =     -879.48257681
 
 d Force = 0.0000000E+00[ 0.000E+00, 0.000E+00]  d Energy = 0.1132118E-01-0.113E-01
 d Force = 0.0000000E+00[ 0.000E+00, 0.000E+00]  d Ewald  = 0.7591846E+02-0.759E+02


--------------------------------------------------------------------------------------------------------


    POTLOK:  cpu time    0.2686: real time    0.2686


--------------------------------------------------------------------------------------------------------




--------------------------------------------------------------------------------------------------------


  
 reached required accuracy - stopping structural energy minimisation
     LOOP+:  cpu time  352.5499: real time  352.5620
    4ORBIT:  cpu time    0.0000: real time    0.0000

 total amount of memory used by VASP MPI-rank0   271779. kBytes
=======================================================================

   base      :      30000. kBytes
   nonlr-proj:      23832. kBytes
   fftplans  :      15512. kBytes
   grid      :      21835. kBytes
   one-center:        419. kBytes
   wavefun   :     180181. kBytes
 
  
  
 General timing and accounting informations for this job:
 ========================================================
  
                  Total CPU time used (sec):     1986.153
                            User time (sec):     1984.450
                          System time (sec):        1.703
                         Elapsed time (sec):     1986.183
  
                   Maximum memory used (kb):      330228.
                   Average memory used (kb):           0.
  
                          Minor page faults:       237792
                          Major page faults:            0
                 Voluntary context switches:          990
