<?xml version="1.0" encoding="ISO-8859-1"?>
<modeling>
 <generator>
  <i name="program" type="string">vasp </i>
  <i name="version" type="string">5.4.4.18Apr17-6-g9f103f2a35  </i>
  <i name="subversion" type="string">(build Aug 17 2017 06:00:38) complex            parallel </i>
  <i name="platform" type="string">LinuxIFC </i>
  <i name="date" type="string">2019 07 12 </i>
  <i name="time" type="string">14:57:58 </i>
 </generator>
 <incar>
  <i type="string" name="SYSTEM">Opt</i>
  <i type="int" name="ISTART">     0</i>
  <i type="string" name="PREC">normal</i>
  <i type="string" name="ALGO"> Fast</i>
  <i type="int" name="ISPIN">     1</i>
  <i type="int" name="ICHARG">     2</i>
  <i type="int" name="NELM">   400</i>
  <i type="int" name="IBRION">     2</i>
  <i name="EDIFF">      0.00000100</i>
  <i name="EDIFFG">     -0.01000000</i>
  <i type="int" name="NSW">   100</i>
  <i type="int" name="ISIF">     3</i>
  <i name="ENCUT">    650.00000000</i>
  <i type="int" name="NGX">    72</i>
  <i type="int" name="NGY">    72</i>
  <i type="int" name="NGZ">    72</i>
  <i name="POTIM">      0.50000000</i>
  <i type="string" name="LREAL">Auto</i>
  <i type="logical" name="LWAVE"> F  </i>
  <i type="logical" name="LCHARG"> F  </i>
  <v type="int" name="KPOINT_BSE">    -1     0     0     0</v>
  <i type="int" name="NELM">   400</i>
 </incar>
 <structure name="primitive_cell" >
  <crystal>
   <varray name="basis" >
    <v>       3.44492529       0.00000000       0.00000000 </v>
    <v>       0.00000000       3.44492529       0.00000000 </v>
    <v>       0.00000000       0.00000000       3.44492524 </v>
   </varray>
   <i name="volume">     40.88268566 </i>
   <varray name="rec_basis" >
    <v>       0.29028206       0.00000000       0.00000000 </v>
    <v>       0.00000000       0.29028206       0.00000000 </v>
    <v>       0.00000000       0.00000000       0.29028206 </v>
   </varray>
  </crystal>
  <varray name="positions" >
   <v>       0.00000000       0.00000000       0.00000000 </v>
   <v>       0.00000000      -0.49998976      -0.49998975 </v>
   <v>      -0.49998976       0.00000000      -0.49998975 </v>
   <v>      -0.49998976      -0.49998976       0.00000000 </v>
  </varray>
 </structure>
 <varray name="primitive_index" >
  <v type="int" >        1 </v>
  <v type="int" >        2 </v>
  <v type="int" >        3 </v>
  <v type="int" >        4 </v>
 </varray>
 <kpoints>
  <generation param="Monkhorst-Pack">
   <v type="int" name="divisions">       4        4        4 </v>
   <v name="usershift">      0.00000000       0.00000000       0.00000000 </v>
   <v name="genvec1">      0.25000000       0.00000000       0.00000000 </v>
   <v name="genvec2">      0.00000000       0.25000000       0.00000000 </v>
   <v name="genvec3">      0.00000000       0.00000000       0.25000000 </v>
   <v name="shift">      0.50000000       0.50000000       0.50000000 </v>
  </generation>
  <varray name="kpointlist" >
   <v>       0.12500000       0.12500000       0.12500000 </v>
   <v>       0.37500000       0.12500000       0.12500000 </v>
   <v>       0.37500000       0.37500000       0.12500000 </v>
   <v>       0.37500000       0.37500000       0.37500000 </v>
  </varray>
  <varray name="weights" >
   <v>       0.12500000 </v>
   <v>       0.37500000 </v>
   <v>       0.37500000 </v>
   <v>       0.12500000 </v>
  </varray>
 </kpoints>
 <parameters>
  <separator name="general" >
   <i type="string" name="SYSTEM">Opt</i>
   <i type="logical" name="LCOMPAT"> F  </i>
  </separator>
  <separator name="electronic" >
   <i type="string" name="PREC">normal</i>
   <i name="ENMAX">    650.00000000</i>
   <i name="ENAUG">    511.36800000</i>
   <i name="EDIFF">      0.00000100</i>
   <i type="int" name="IALGO">    68</i>
   <i type="int" name="IWAVPR">    11</i>
   <i type="int" name="NBANDS">   518</i>
   <i name="NELECT">    864.00000000</i>
   <i type="int" name="TURBO">     0</i>
   <i type="int" name="IRESTART">     0</i>
   <i type="int" name="NREBOOT">     0</i>
   <i type="int" name="NMIN">     0</i>
   <i name="EREF">      0.00000000</i>
   <separator name="electronic smearing" >
    <i type="int" name="ISMEAR">     1</i>
    <i name="SIGMA">      0.20000000</i>
    <i name="KSPACING">      0.50000000</i>
    <i type="logical" name="KGAMMA"> T  </i>
   </separator>
   <separator name="electronic projectors" >
    <i type="logical" name="LREAL"> T  </i>
    <v name="ROPT">     -0.00050000</v>
    <i type="int" name="LMAXPAW">  -100</i>
    <i type="int" name="LMAXMIX">     2</i>
    <i type="logical" name="NLSPLINE"> F  </i>
   </separator>
   <separator name="electronic startup" >
    <i type="int" name="ISTART">     0</i>
    <i type="int" name="ICHARG">     2</i>
    <i type="int" name="INIWAV">     1</i>
   </separator>
   <separator name="electronic spin" >
    <i type="int" name="ISPIN">     1</i>
    <i type="logical" name="LNONCOLLINEAR"> F  </i>
    <v name="MAGMOM">      1.00000000      1.00000000      1.00000000      1.00000000      1.00000000      1.00000000      1.00000000      1.00000000      1.00000000      1.00000000      1.00000000      1.00000000      1.00000000      1.00000000      1.00000000      1.00000000      1.00000000      1.00000000      1.00000000      1.00000000
      1.00000000      1.00000000      1.00000000      1.00000000      1.00000000      1.00000000      1.00000000      1.00000000      1.00000000      1.00000000      1.00000000      1.00000000      1.00000000      1.00000000      1.00000000      1.00000000      1.00000000      1.00000000      1.00000000      1.00000000
      1.00000000      1.00000000      1.00000000      1.00000000      1.00000000      1.00000000      1.00000000      1.00000000      1.00000000      1.00000000      1.00000000      1.00000000      1.00000000      1.00000000      1.00000000      1.00000000      1.00000000      1.00000000      1.00000000      1.00000000
      1.00000000      1.00000000      1.00000000      1.00000000      1.00000000      1.00000000      1.00000000      1.00000000      1.00000000      1.00000000      1.00000000      1.00000000      1.00000000      1.00000000      1.00000000      1.00000000      1.00000000      1.00000000      1.00000000      1.00000000
      1.00000000      1.00000000      1.00000000      1.00000000      1.00000000      1.00000000      1.00000000      1.00000000      1.00000000      1.00000000      1.00000000      1.00000000      1.00000000      1.00000000      1.00000000      1.00000000      1.00000000      1.00000000      1.00000000      1.00000000
      1.00000000      1.00000000      1.00000000      1.00000000      1.00000000      1.00000000      1.00000000      1.00000000</v>
    <i name="NUPDOWN">     -1.00000000</i>
    <i type="logical" name="LSORBIT"> F  </i>
    <v name="SAXIS">      0.00000000      0.00000000      1.00000000</v>
    <i type="logical" name="LSPIRAL"> F  </i>
    <v name="QSPIRAL">      0.00000000      0.00000000      0.00000000</v>
    <i type="logical" name="LZEROZ"> F  </i>
   </separator>
   <separator name="electronic exchange-correlation" >
    <i type="logical" name="LASPH"> F  </i>
    <i type="logical" name="LMETAGGA"> F  </i>
   </separator>
   <separator name="electronic convergence" >
    <i type="int" name="NELM">   400</i>
    <i type="int" name="NELMDL">    -5</i>
    <i type="int" name="NELMIN">     2</i>
    <i name="ENINI">    650.00000000</i>
    <separator name="electronic convergence detail" >
     <i type="logical" name="LDIAG"> T  </i>
     <i type="logical" name="LSUBROT"> F  </i>
     <i name="WEIMIN">      0.00100000</i>
     <i name="EBREAK">      0.00000000</i>
     <i name="DEPER">      0.30000000</i>
     <i type="int" name="NRMM">     4</i>
     <i name="TIME">      0.40000000</i>
    </separator>
   </separator>
   <separator name="electronic mixer" >
    <i name="AMIX">      0.40000000</i>
    <i name="BMIX">      1.00000000</i>
    <i name="AMIN">      0.10000000</i>
    <i name="AMIX_MAG">      1.60000000</i>
    <i name="BMIX_MAG">      1.00000000</i>
    <separator name="electronic mixer details" >
     <i type="int" name="IMIX">     4</i>
     <i type="logical" name="MIXFIRST"> F  </i>
     <i type="int" name="MAXMIX">   -45</i>
     <i name="WC">    100.00000000</i>
     <i type="int" name="INIMIX">     1</i>
     <i type="int" name="MIXPRE">     1</i>
     <i type="int" name="MREMOVE">     5</i>
    </separator>
   </separator>
   <separator name="electronic dipolcorrection" >
    <i type="logical" name="LDIPOL"> F  </i>
    <i type="logical" name="LMONO"> F  </i>
    <i type="int" name="IDIPOL">     0</i>
    <i name="EPSILON">      1.00000000</i>
    <v name="DIPOL">   -100.00000000   -100.00000000   -100.00000000</v>
    <i name="EFIELD">      0.00000000</i>
   </separator>
  </separator>
  <separator name="grids" >
   <i type="int" name="NGX">    72</i>
   <i type="int" name="NGY">    72</i>
   <i type="int" name="NGZ">    72</i>
   <i type="int" name="NGXF">   144</i>
   <i type="int" name="NGYF">   144</i>
   <i type="int" name="NGZF">   144</i>
   <i type="logical" name="ADDGRID"> F  </i>
  </separator>
  <separator name="ionic" >
   <i type="int" name="NSW">   100</i>
   <i type="int" name="IBRION">     2</i>
   <i type="int" name="MDALGO">     0</i>
   <i type="int" name="ISIF">     3</i>
   <i name="PSTRESS">      0.00000000</i>
   <i name="EDIFFG">     -0.01000000</i>
   <i type="int" name="NFREE">     1</i>
   <i name="POTIM">      0.50000000</i>
   <i name="SMASS">     -3.00000000</i>
   <i name="SCALEE">      1.00000000</i>
  </separator>
  <separator name="ionic md" >
   <i name="TEBEG">      0.00010000</i>
   <i name="TEEND">      0.00010000</i>
   <i type="int" name="NBLOCK">     1</i>
   <i type="int" name="KBLOCK">   100</i>
   <i type="int" name="NPACO">   256</i>
   <i name="APACO">     16.00000000</i>
  </separator>
  <separator name="symmetry" >
   <i type="int" name="ISYM">     2</i>
   <i name="SYMPREC">      0.00001000</i>
  </separator>
  <separator name="dos" >
   <i type="int" name="LORBIT">     0</i>
   <v name="RWIGS">     -1.00000000</v>
   <i type="int" name="NEDOS">   301</i>
   <i name="EMIN">     10.00000000</i>
   <i name="EMAX">    -10.00000000</i>
   <i name="EFERMI">      0.00000000</i>
  </separator>
  <separator name="writing" >
   <i type="int" name="NWRITE">     2</i>
   <i type="logical" name="LWAVE"> F  </i>
   <i type="logical" name="LDOWNSAMPLE"> F  </i>
   <i type="logical" name="LCHARG"> F  </i>
   <i type="logical" name="LPARD"> F  </i>
   <i type="logical" name="LVTOT"> F  </i>
   <i type="logical" name="LVHAR"> F  </i>
   <i type="logical" name="LELF"> F  </i>
   <i type="logical" name="LOPTICS"> F  </i>
   <v name="STM">      0.00000000      0.00000000      0.00000000      0.00000000      0.00000000      0.00000000      0.00000000</v>
  </separator>
  <separator name="performance" >
   <i type="int" name="NPAR">     2</i>
   <i type="int" name="NSIM">     4</i>
   <i type="int" name="NBLK">    -1</i>
   <i type="logical" name="LPLANE"> T  </i>
   <i type="logical" name="LSCALAPACK"> T  </i>
   <i type="logical" name="LSCAAWARE"> F  </i>
   <i type="logical" name="LSCALU"> F  </i>
   <i type="logical" name="LASYNC"> F  </i>
   <i type="logical" name="LORBITALREAL"> F  </i>
  </separator>
  <separator name="miscellaneous" >
   <i type="int" name="IDIOT">     3</i>
   <i type="int" name="ISPECIAL">     0</i>
   <i type="logical" name="LMUSIC"> F  </i>
   <v name="POMASS">     55.84700000</v>
   <v name="DARWINR">      0.00000000</v>
   <v name="DARWINV">      1.00000000</v>
   <i type="logical" name="LCORR"> T  </i>
  </separator>
  <i type="logical" name="GGA_COMPAT"> T  </i>
  <i type="logical" name="LBERRY"> F  </i>
  <i type="int" name="ICORELEVEL">     0</i>
  <i type="logical" name="LDAU"> F  </i>
  <i type="int" name="I_CONSTRAINED_M">     0</i>
  <separator name="electronic exchange-correlation" >
   <i type="string" name="GGA">--</i>
   <i type="int" name="VOSKOWN">     0</i>
   <i type="logical" name="LHFCALC"> F  </i>
   <i type="string" name="PRECFOCK"></i>
   <i type="logical" name="LSYMGRAD"> F  </i>
   <i type="logical" name="LHFONE"> F  </i>
   <i type="logical" name="LRHFCALC"> F  </i>
   <i type="logical" name="LTHOMAS"> F  </i>
   <i type="logical" name="LMODELHF"> F  </i>
   <i name="ENCUT4O">     -1.00000000</i>
   <i type="int" name="EXXOEP">     0</i>
   <i type="int" name="FOURORBIT">     0</i>
   <i name="AEXX">      0.00000000</i>
   <i name="HFALPHA">      0.00000000</i>
   <i name="MCALPHA">      0.00000000</i>
   <i name="ALDAX">      1.00000000</i>
   <i name="AGGAX">      1.00000000</i>
   <i name="ALDAC">      1.00000000</i>
   <i name="AGGAC">      1.00000000</i>
   <i type="int" name="NKREDX">     1</i>
   <i type="int" name="NKREDY">     1</i>
   <i type="int" name="NKREDZ">     1</i>
   <i type="logical" name="SHIFTRED"> F  </i>
   <i type="logical" name="ODDONLY"> F  </i>
   <i type="logical" name="EVENONLY"> F  </i>
   <i type="int" name="LMAXFOCK">     0</i>
   <i type="int" name="NMAXFOCKAE">     0</i>
   <i type="logical" name="LFOCKAEDFT"> F  </i>
   <i name="HFSCREEN">      0.00000000</i>
   <i name="HFSCREENC">      0.00000000</i>
   <i type="int" name="NBANDSGWLOW">     0</i>
  </separator>
  <separator name="vdW DFT" >
   <i type="logical" name="LUSE_VDW"> F  </i>
   <i name="Zab_VDW">     -0.84910000</i>
   <i name="PARAM1">      0.12340000</i>
   <i name="PARAM2">      1.00000000</i>
   <i name="PARAM3">      0.00000000</i>
  </separator>
  <separator name="model GW" >
   <i type="int" name="MODEL_GW">     0</i>
   <i name="MODEL_EPS0">      6.13252964</i>
   <i name="MODEL_ALPHA">      1.00000000</i>
  </separator>
  <separator name="linear response parameters" >
   <i type="logical" name="LEPSILON"> F  </i>
   <i type="logical" name="LRPA"> F  </i>
   <i type="logical" name="LNABLA"> F  </i>
   <i type="logical" name="LVEL"> F  </i>
   <i type="int" name="KINTER">     0</i>
   <i name="CSHIFT">      0.10000000</i>
   <i name="OMEGAMAX">     -1.00000000</i>
   <i name="DEG_THRESHOLD">      0.00200000</i>
   <i name="RTIME">     -0.10000000</i>
   <i name="WPLASMAI">      0.00000000</i>
   <v name="DFIELD">      0.00000000      0.00000000      0.00000000</v>
   <v name="WPLASMA">      0.00000000      0.00000000      0.00000000      0.00000000      0.00000000      0.00000000      0.00000000      0.00000000      0.00000000</v>
  </separator>
  <separator name="orbital magnetization" >
   <i type="logical" name="NUCIND"> F  </i>
   <v name="MAGPOS">      0.00000000      0.00000000      0.00000000</v>
   <i type="logical" name="LNICSALL"> T  </i>
   <i type="logical" name="ORBITALMAG"> F  </i>
   <i type="logical" name="LMAGBLOCH"> F  </i>
   <i type="logical" name="LCHIMAG"> F  </i>
   <i type="logical" name="LGAUGE"> T  </i>
   <i type="int" name="MAGATOM">     0</i>
   <v name="MAGDIPOL">      0.00000000      0.00000000      0.00000000</v>
   <v name="AVECCONST">      0.00000000      0.00000000      0.00000000</v>
  </separator>
  <separator name="response functions" >
   <i type="logical" name="LADDER"> F  </i>
   <i type="logical" name="LRPAFORCE"> F  </i>
   <i type="logical" name="LFXC"> F  </i>
   <i type="logical" name="LHARTREE"> T  </i>
   <i type="int" name="IBSE">     0</i>
   <v type="int" name="KPOINT">    -1     0     0     0</v>
   <i type="logical" name="LTCTE"> F  </i>
   <i type="logical" name="LTETE"> F  </i>
   <i type="logical" name="LTRIPLET"> F  </i>
   <i type="logical" name="LFXCEPS"> F  </i>
   <i type="logical" name="LFXHEG"> F  </i>
   <i type="int" name="NATURALO">     2</i>
   <i type="logical" name="L2ORDER"> F  </i>
   <i type="logical" name="LMP2LT"> F  </i>
   <i type="logical" name="LUSEW"> F  </i>
   <i name="ENCUTGW">     -2.00000000</i>
   <i name="ENCUTGWSOFT">     -2.00000000</i>
   <i name="ENCUTLF">     -1.00000000</i>
   <i type="int" name="LMAXMP2">    -1</i>
   <i name="SCISSOR">      0.00000000</i>
   <i type="int" name="NOMEGA">     0</i>
   <i type="int" name="NOMEGAR">     0</i>
   <i type="int" name="NBANDSGW">    -1</i>
   <i type="int" name="NBANDSO">    -1</i>
   <i type="int" name="NBANDSV">    -1</i>
   <i type="int" name="NELM">   400</i>
   <i type="int" name="NELMHF">     1</i>
   <i type="int" name="DIM">     3</i>
   <i type="int" name="ANTIRES">     0</i>
   <i name="OMEGAMAX">    -30.00000000</i>
   <i name="OMEGAMIN">    -30.00000000</i>
   <i name="OMEGATL">   -200.00000000</i>
   <i type="int" name="OMEGAGRID">   140</i>
   <i name="CSHIFT">     -0.10000000</i>
   <i type="logical" name="SELFENERGY"> F  </i>
   <i type="logical" name="LSPECTRAL"> F  </i>
   <i type="logical" name="LSPECTRALGW"> F  </i>
   <i type="logical" name="LSINGLES"> F  </i>
   <i type="logical" name="LFERMIGW"> F  </i>
   <i type="logical" name="ODDONLYGW"> F  </i>
   <i type="logical" name="EVENONLYGW"> F  </i>
   <i type="int" name="NKREDLFX">     1</i>
   <i type="int" name="NKREDLFY">     1</i>
   <i type="int" name="NKREDLFZ">     1</i>
   <i type="int" name="MAXMEM">  2800</i>
   <i type="int" name="TELESCOPE">     0</i>
   <i type="int" name="TAUPAR">     1</i>
   <i type="int" name="OMEGAPAR">    -1</i>
   <i name="LAMBDA">      1.00000000</i>
  </separator>
  <separator name="External order field" >
   <i name="OFIELD_KAPPA">      0.00000000</i>
   <v name="OFIELD_K">      0.00000000      0.00000000      0.00000000</v>
   <i name="OFIELD_Q6_NEAR">      0.00000000</i>
   <i name="OFIELD_Q6_FAR">      0.00000000</i>
   <i name="OFIELD_A">      0.00000000</i>
  </separator>
 </parameters>
 <atominfo>
  <atoms>     108 </atoms>
  <types>       1 </types>
  <array name="atoms" >
   <dimension dim="1">ion</dimension>
   <field type="string">element</field>
   <field type="int">atomtype</field>
   <set>
    <rc><c>Fe</c><c>   1</c></rc>
    <rc><c>Fe</c><c>   1</c></rc>
    <rc><c>Fe</c><c>   1</c></rc>
    <rc><c>Fe</c><c>   1</c></rc>
    <rc><c>Fe</c><c>   1</c></rc>
    <rc><c>Fe</c><c>   1</c></rc>
    <rc><c>Fe</c><c>   1</c></rc>
    <rc><c>Fe</c><c>   1</c></rc>
    <rc><c>Fe</c><c>   1</c></rc>
    <rc><c>Fe</c><c>   1</c></rc>
    <rc><c>Fe</c><c>   1</c></rc>
    <rc><c>Fe</c><c>   1</c></rc>
    <rc><c>Fe</c><c>   1</c></rc>
    <rc><c>Fe</c><c>   1</c></rc>
    <rc><c>Fe</c><c>   1</c></rc>
    <rc><c>Fe</c><c>   1</c></rc>
    <rc><c>Fe</c><c>   1</c></rc>
    <rc><c>Fe</c><c>   1</c></rc>
    <rc><c>Fe</c><c>   1</c></rc>
    <rc><c>Fe</c><c>   1</c></rc>
    <rc><c>Fe</c><c>   1</c></rc>
    <rc><c>Fe</c><c>   1</c></rc>
    <rc><c>Fe</c><c>   1</c></rc>
    <rc><c>Fe</c><c>   1</c></rc>
    <rc><c>Fe</c><c>   1</c></rc>
    <rc><c>Fe</c><c>   1</c></rc>
    <rc><c>Fe</c><c>   1</c></rc>
    <rc><c>Fe</c><c>   1</c></rc>
    <rc><c>Fe</c><c>   1</c></rc>
    <rc><c>Fe</c><c>   1</c></rc>
    <rc><c>Fe</c><c>   1</c></rc>
    <rc><c>Fe</c><c>   1</c></rc>
    <rc><c>Fe</c><c>   1</c></rc>
    <rc><c>Fe</c><c>   1</c></rc>
    <rc><c>Fe</c><c>   1</c></rc>
    <rc><c>Fe</c><c>   1</c></rc>
    <rc><c>Fe</c><c>   1</c></rc>
    <rc><c>Fe</c><c>   1</c></rc>
    <rc><c>Fe</c><c>   1</c></rc>
    <rc><c>Fe</c><c>   1</c></rc>
    <rc><c>Fe</c><c>   1</c></rc>
    <rc><c>Fe</c><c>   1</c></rc>
    <rc><c>Fe</c><c>   1</c></rc>
    <rc><c>Fe</c><c>   1</c></rc>
    <rc><c>Fe</c><c>   1</c></rc>
    <rc><c>Fe</c><c>   1</c></rc>
    <rc><c>Fe</c><c>   1</c></rc>
    <rc><c>Fe</c><c>   1</c></rc>
    <rc><c>Fe</c><c>   1</c></rc>
    <rc><c>Fe</c><c>   1</c></rc>
    <rc><c>Fe</c><c>   1</c></rc>
    <rc><c>Fe</c><c>   1</c></rc>
    <rc><c>Fe</c><c>   1</c></rc>
    <rc><c>Fe</c><c>   1</c></rc>
    <rc><c>Fe</c><c>   1</c></rc>
    <rc><c>Fe</c><c>   1</c></rc>
    <rc><c>Fe</c><c>   1</c></rc>
    <rc><c>Fe</c><c>   1</c></rc>
    <rc><c>Fe</c><c>   1</c></rc>
    <rc><c>Fe</c><c>   1</c></rc>
    <rc><c>Fe</c><c>   1</c></rc>
    <rc><c>Fe</c><c>   1</c></rc>
    <rc><c>Fe</c><c>   1</c></rc>
    <rc><c>Fe</c><c>   1</c></rc>
    <rc><c>Fe</c><c>   1</c></rc>
    <rc><c>Fe</c><c>   1</c></rc>
    <rc><c>Fe</c><c>   1</c></rc>
    <rc><c>Fe</c><c>   1</c></rc>
    <rc><c>Fe</c><c>   1</c></rc>
    <rc><c>Fe</c><c>   1</c></rc>
    <rc><c>Fe</c><c>   1</c></rc>
    <rc><c>Fe</c><c>   1</c></rc>
    <rc><c>Fe</c><c>   1</c></rc>
    <rc><c>Fe</c><c>   1</c></rc>
    <rc><c>Fe</c><c>   1</c></rc>
    <rc><c>Fe</c><c>   1</c></rc>
    <rc><c>Fe</c><c>   1</c></rc>
    <rc><c>Fe</c><c>   1</c></rc>
    <rc><c>Fe</c><c>   1</c></rc>
    <rc><c>Fe</c><c>   1</c></rc>
    <rc><c>Fe</c><c>   1</c></rc>
    <rc><c>Fe</c><c>   1</c></rc>
    <rc><c>Fe</c><c>   1</c></rc>
    <rc><c>Fe</c><c>   1</c></rc>
    <rc><c>Fe</c><c>   1</c></rc>
    <rc><c>Fe</c><c>   1</c></rc>
    <rc><c>Fe</c><c>   1</c></rc>
    <rc><c>Fe</c><c>   1</c></rc>
    <rc><c>Fe</c><c>   1</c></rc>
    <rc><c>Fe</c><c>   1</c></rc>
    <rc><c>Fe</c><c>   1</c></rc>
    <rc><c>Fe</c><c>   1</c></rc>
    <rc><c>Fe</c><c>   1</c></rc>
    <rc><c>Fe</c><c>   1</c></rc>
    <rc><c>Fe</c><c>   1</c></rc>
    <rc><c>Fe</c><c>   1</c></rc>
    <rc><c>Fe</c><c>   1</c></rc>
    <rc><c>Fe</c><c>   1</c></rc>
    <rc><c>Fe</c><c>   1</c></rc>
    <rc><c>Fe</c><c>   1</c></rc>
    <rc><c>Fe</c><c>   1</c></rc>
    <rc><c>Fe</c><c>   1</c></rc>
    <rc><c>Fe</c><c>   1</c></rc>
    <rc><c>Fe</c><c>   1</c></rc>
    <rc><c>Fe</c><c>   1</c></rc>
    <rc><c>Fe</c><c>   1</c></rc>
    <rc><c>Fe</c><c>   1</c></rc>
    <rc><c>Fe</c><c>   1</c></rc>
   </set>
  </array>
  <array name="atomtypes" >
   <dimension dim="1">type</dimension>
   <field type="int">atomspertype</field>
   <field type="string">element</field>
   <field>mass</field>
   <field>valence</field>
   <field type="string">pseudopotential</field>
   <set>
    <rc><c> 108</c><c>Fe</c><c>     55.84700000</c><c>      8.00000000</c><c> PAW_PBE Fe 06Sep2000                   </c></rc>
   </set>
  </array>
 </atominfo>
 <structure name="initialpos" >
  <crystal>
   <varray name="basis" >
    <v>      10.33484705       0.00000000       0.00000000 </v>
    <v>       0.00000000      10.33484705       0.00000000 </v>
    <v>       0.00000000       0.00000000      10.33484705 </v>
   </varray>
   <i name="volume">   1103.85533447 </i>
   <varray name="rec_basis" >
    <v>       0.09676002       0.00000000       0.00000000 </v>
    <v>       0.00000000       0.09676002       0.00000000 </v>
    <v>       0.00000000       0.00000000       0.09676002 </v>
   </varray>
  </crystal>
  <varray name="positions" >
   <v>       0.00000000       0.00000000       0.00000000 </v>
   <v>       0.00000000       0.16666893       0.16666893 </v>
   <v>       0.16666893       0.00000000       0.16666893 </v>
   <v>       0.16666893       0.16666893       0.00000000 </v>
   <v>       0.33333106       0.00000000       0.00000000 </v>
   <v>       0.33333107       0.16666893       0.16666893 </v>
   <v>       0.50000000       0.00000000       0.16666894 </v>
   <v>       0.50000000       0.16666894       0.00000000 </v>
   <v>       0.66666897       0.00000000       0.00000000 </v>
   <v>       0.66666896       0.16666893       0.16666893 </v>
   <v>       0.83333104       0.00000000       0.16666893 </v>
   <v>       0.83333104       0.16666893       0.00000000 </v>
   <v>       0.00000000       0.33333106       0.00000000 </v>
   <v>       0.00000000       0.50000000       0.16666894 </v>
   <v>       0.16666893       0.33333107       0.16666893 </v>
   <v>       0.16666894       0.50000000       0.00000000 </v>
   <v>       0.33333107       0.33333107       0.00000000 </v>
   <v>       0.33333107       0.50000000       0.16666893 </v>
   <v>       0.50000000       0.33333107       0.16666893 </v>
   <v>       0.50000000       0.50000000       0.00000000 </v>
   <v>       0.66666896       0.33333107       0.00000000 </v>
   <v>       0.66666896       0.50000000       0.16666893 </v>
   <v>       0.83333104       0.33333107       0.16666893 </v>
   <v>       0.83333103       0.50000000       0.00000000 </v>
   <v>       0.00000000       0.66666897       0.00000000 </v>
   <v>       0.00000000       0.83333104       0.16666893 </v>
   <v>       0.16666893       0.66666896       0.16666893 </v>
   <v>       0.16666893       0.83333104       0.00000000 </v>
   <v>       0.33333107       0.66666896       0.00000000 </v>
   <v>       0.33333107       0.83333104       0.16666893 </v>
   <v>       0.50000000       0.66666896       0.16666893 </v>
   <v>       0.50000000       0.83333103       0.00000000 </v>
   <v>       0.66666896       0.66666896       0.00000000 </v>
   <v>       0.66666896       0.83333104       0.16666893 </v>
   <v>       0.83333104       0.66666896       0.16666893 </v>
   <v>       0.83333104       0.83333104       0.00000000 </v>
   <v>       0.00000000       0.00000000       0.33333106 </v>
   <v>       0.00000000       0.16666894       0.50000000 </v>
   <v>       0.16666894       0.00000000       0.50000000 </v>
   <v>       0.16666893       0.16666893       0.33333107 </v>
   <v>       0.33333107       0.00000000       0.33333107 </v>
   <v>       0.33333107       0.16666893       0.50000000 </v>
   <v>       0.50000000       0.00000000       0.50000000 </v>
   <v>       0.50000000       0.16666893       0.33333107 </v>
   <v>       0.66666896       0.00000000       0.33333107 </v>
   <v>       0.66666896       0.16666893       0.50000000 </v>
   <v>       0.83333103       0.00000000       0.50000000 </v>
   <v>       0.83333104       0.16666893       0.33333107 </v>
   <v>       0.00000000       0.33333107       0.33333107 </v>
   <v>       0.00000000       0.50000000       0.50000000 </v>
   <v>       0.16666893       0.33333107       0.50000000 </v>
   <v>       0.16666893       0.50000000       0.33333107 </v>
   <v>       0.33333107       0.33333107       0.33333107 </v>
   <v>       0.33333106       0.50000000       0.50000000 </v>
   <v>       0.50000000       0.33333106       0.50000000 </v>
   <v>       0.50000000       0.50000000       0.33333106 </v>
   <v>       0.66666896       0.33333107       0.33333107 </v>
   <v>       0.66666897       0.50000000       0.50000000 </v>
   <v>       0.83333104       0.33333107       0.50000000 </v>
   <v>       0.83333104       0.50000000       0.33333107 </v>
   <v>       0.00000000       0.66666896       0.33333107 </v>
   <v>       0.00000000       0.83333103       0.50000000 </v>
   <v>       0.16666893       0.66666896       0.50000000 </v>
   <v>       0.16666893       0.83333104       0.33333107 </v>
   <v>       0.33333107       0.66666896       0.33333107 </v>
   <v>       0.33333107       0.83333104       0.50000000 </v>
   <v>       0.50000000       0.66666897       0.50000000 </v>
   <v>       0.50000000       0.83333104       0.33333107 </v>
   <v>       0.66666896       0.66666896       0.33333107 </v>
   <v>       0.66666896       0.83333104       0.50000000 </v>
   <v>       0.83333104       0.66666896       0.50000000 </v>
   <v>       0.83333104       0.83333104       0.33333107 </v>
   <v>       0.00000000       0.00000000       0.66666897 </v>
   <v>       0.00000000       0.16666893       0.83333104 </v>
   <v>       0.16666893       0.00000000       0.83333104 </v>
   <v>       0.16666893       0.16666893       0.66666896 </v>
   <v>       0.33333107       0.00000000       0.66666896 </v>
   <v>       0.33333107       0.16666893       0.83333104 </v>
   <v>       0.50000000       0.00000000       0.83333103 </v>
   <v>       0.50000000       0.16666893       0.66666896 </v>
   <v>       0.66666896       0.00000000       0.66666896 </v>
   <v>       0.66666896       0.16666893       0.83333104 </v>
   <v>       0.83333104       0.00000000       0.83333104 </v>
   <v>       0.83333104       0.16666893       0.66666896 </v>
   <v>       0.00000000       0.33333107       0.66666896 </v>
   <v>       0.00000000       0.50000000       0.83333103 </v>
   <v>       0.16666893       0.33333107       0.83333104 </v>
   <v>       0.16666893       0.50000000       0.66666896 </v>
   <v>       0.33333107       0.33333107       0.66666896 </v>
   <v>       0.33333107       0.50000000       0.83333104 </v>
   <v>       0.50000000       0.33333107       0.83333104 </v>
   <v>       0.50000000       0.50000000       0.66666897 </v>
   <v>       0.66666896       0.33333107       0.66666896 </v>
   <v>       0.66666896       0.50000000       0.83333104 </v>
   <v>       0.83333104       0.33333107       0.83333104 </v>
   <v>       0.83333104       0.50000000       0.66666896 </v>
   <v>       0.00000000       0.66666896       0.66666896 </v>
   <v>       0.00000000       0.83333104       0.83333104 </v>
   <v>       0.16666893       0.66666896       0.83333104 </v>
   <v>       0.16666893       0.83333104       0.66666896 </v>
   <v>       0.33333107       0.66666896       0.66666896 </v>
   <v>       0.33333107       0.83333104       0.83333104 </v>
   <v>       0.50000000       0.66666896       0.83333104 </v>
   <v>       0.50000000       0.83333104       0.66666896 </v>
   <v>       0.66666896       0.66666896       0.66666896 </v>
   <v>       0.66666896       0.83333104       0.83333104 </v>
   <v>       0.83333104       0.66666896       0.83333104 </v>
   <v>       0.83333104       0.83333104       0.66666896 </v>
  </varray>
 </structure>
 <calculation>
  <scstep>
   <time name="dav">   39.54   39.54</time>
   <time name="total">   39.86   39.86</time>
   <energy>
    <i name="alphaZ">   7300.31925852 </i>
    <i name="ewald"> -66232.83996889 </i>
    <i name="hartreedc"> -11197.02572337 </i>
    <i name="XCdc">    446.63038354 </i>
    <i name="pawpsdc">  51723.88885462 </i>
    <i name="pawaedc"> -52548.28121372 </i>
    <i name="eentropy">      0.03477011 </i>
    <i name="bandstr">  15783.24353277 </i>
    <i name="atom">  64202.51952832 </i>
    <i name="e_fr_energy">   9478.48942191 </i>
    <i name="e_wo_entrp">   9478.45465180 </i>
    <i name="e_0_energy">   9478.47783187 </i>
   </energy>
  </scstep>
  <scstep>
   <time name="dav">   39.52   39.52</time>
   <time name="total">   39.53   39.53</time>
   <energy>
    <i name="e_fr_energy">    321.66038402 </i>
    <i name="e_wo_entrp">    321.66773097 </i>
    <i name="e_0_energy">    321.66283300 </i>
   </energy>
  </scstep>
  <scstep>
   <time name="dav">   39.54   39.54</time>
   <time name="total">   39.54   39.54</time>
   <energy>
    <i name="e_fr_energy">   -815.23016438 </i>
    <i name="e_wo_entrp">   -815.24684433 </i>
    <i name="e_0_energy">   -815.23572436 </i>
   </energy>
  </scstep>
  <scstep>
   <time name="dav">   64.76   64.76</time>
   <time name="total">   64.77   64.77</time>
   <energy>
    <i name="e_fr_energy">  -1026.17191628 </i>
    <i name="e_wo_entrp">  -1026.11075720 </i>
    <i name="e_0_energy">  -1026.15152992 </i>
   </energy>
  </scstep>
  <scstep>
   <time name="dav">   58.35   58.35</time>
   <time name="total">   60.37   60.37</time>
   <energy>
    <i name="e_fr_energy">  -1045.07241087 </i>
    <i name="e_wo_entrp">  -1044.96485447 </i>
    <i name="e_0_energy">  -1045.03655874 </i>
   </energy>
  </scstep>
  <scstep>
   <time name="diag">    5.44    5.44</time>
   <time name="diis">   18.30   18.30</time>
   <time name="orth">    1.68    1.68</time>
   <time name="total">   27.71   27.71</time>
   <energy>
    <i name="e_fr_energy">   -877.07720343 </i>
    <i name="e_wo_entrp">   -877.01134027 </i>
    <i name="e_0_energy">   -877.05524904 </i>
   </energy>
  </scstep>
  <scstep>
   <time name="diag">    5.44    5.44</time>
   <time name="diis">   20.05   20.05</time>
   <time name="orth">    1.68    1.68</time>
   <time name="total">   29.46   29.46</time>
   <energy>
    <i name="e_fr_energy">   -880.20336012 </i>
    <i name="e_wo_entrp">   -880.06984910 </i>
    <i name="e_0_energy">   -880.15885645 </i>
   </energy>
  </scstep>
  <scstep>
   <time name="diag">    5.44    5.44</time>
   <time name="diis">   19.49   19.49</time>
   <time name="orth">    1.68    1.68</time>
   <time name="total">   28.91   28.91</time>
   <energy>
    <i name="e_fr_energy">   -879.68125166 </i>
    <i name="e_wo_entrp">   -879.58988998 </i>
    <i name="e_0_energy">   -879.65079777 </i>
   </energy>
  </scstep>
  <scstep>
   <time name="diag">    5.44    5.44</time>
   <time name="diis">   23.18   23.18</time>
   <time name="orth">    1.68    1.68</time>
   <time name="total">   32.59   32.59</time>
   <energy>
    <i name="e_fr_energy">   -879.64725260 </i>
    <i name="e_wo_entrp">   -879.57477521 </i>
    <i name="e_0_energy">   -879.62309347 </i>
   </energy>
  </scstep>
  <scstep>
   <time name="diag">    5.44    5.44</time>
   <time name="diis">   24.45   24.45</time>
   <time name="orth">    1.68    1.68</time>
   <time name="total">   33.87   33.87</time>
   <energy>
    <i name="e_fr_energy">   -879.49246388 </i>
    <i name="e_wo_entrp">   -879.41039396 </i>
    <i name="e_0_energy">   -879.46510724 </i>
   </energy>
  </scstep>
  <scstep>
   <time name="diag">    5.42    5.42</time>
   <time name="diis">   25.26   25.26</time>
   <time name="orth">    1.68    1.68</time>
   <time name="total">   34.65   34.65</time>
   <energy>
    <i name="e_fr_energy">   -879.50616907 </i>
    <i name="e_wo_entrp">   -879.42595712 </i>
    <i name="e_0_energy">   -879.47943176 </i>
   </energy>
  </scstep>
  <scstep>
   <time name="diag">    5.42    5.42</time>
   <time name="diis">   19.82   19.81</time>
   <time name="orth">    1.68    1.68</time>
   <time name="total">   29.19   29.19</time>
   <energy>
    <i name="e_fr_energy">   -879.50043070 </i>
    <i name="e_wo_entrp">   -879.42399812 </i>
    <i name="e_0_energy">   -879.47495317 </i>
   </energy>
  </scstep>
  <scstep>
   <time name="diag">    5.42    5.42</time>
   <time name="diis">   24.34   24.34</time>
   <time name="orth">    1.68    1.68</time>
   <time name="total">   33.71   33.71</time>
   <energy>
    <i name="e_fr_energy">   -879.50132529 </i>
    <i name="e_wo_entrp">   -879.42578488 </i>
    <i name="e_0_energy">   -879.47614515 </i>
   </energy>
  </scstep>
  <scstep>
   <time name="diag">    5.42    5.42</time>
   <time name="diis">   20.80   20.80</time>
   <time name="orth">    1.68    1.68</time>
   <time name="total">   30.18   30.18</time>
   <energy>
    <i name="e_fr_energy">   -879.50133524 </i>
    <i name="e_wo_entrp">   -879.42618458 </i>
    <i name="e_0_energy">   -879.47628502 </i>
   </energy>
  </scstep>
  <scstep>
   <time name="diag">    5.42    5.42</time>
   <time name="diis">   24.94   24.94</time>
   <time name="orth">    1.68    1.68</time>
   <time name="total">   34.32   34.32</time>
   <energy>
    <i name="e_fr_energy">   -879.50130804 </i>
    <i name="e_wo_entrp">   -879.42666851 </i>
    <i name="e_0_energy">   -879.47642820 </i>
   </energy>
  </scstep>
  <scstep>
   <time name="diag">    5.41    5.41</time>
   <time name="diis">   20.19   20.19</time>
   <time name="orth">    1.68    1.68</time>
   <time name="total">   29.57   29.57</time>
   <energy>
    <i name="e_fr_energy">   -879.50128153 </i>
    <i name="e_wo_entrp">   -879.42700433 </i>
    <i name="e_0_energy">   -879.47652246 </i>
   </energy>
  </scstep>
  <scstep>
   <time name="diag">    5.41    5.41</time>
   <time name="diis">   20.16   20.16</time>
   <time name="orth">    1.68    1.68</time>
   <time name="total">   29.53   29.53</time>
   <energy>
    <i name="e_fr_energy">   -879.50123582 </i>
    <i name="e_wo_entrp">   -879.42738019 </i>
    <i name="e_0_energy">   -879.47661728 </i>
   </energy>
  </scstep>
  <scstep>
   <time name="diag">    5.41    5.41</time>
   <time name="diis">   15.81   15.81</time>
   <time name="orth">    1.68    1.68</time>
   <time name="total">   25.17   25.17</time>
   <energy>
    <i name="e_fr_energy">   -879.50120709 </i>
    <i name="e_wo_entrp">   -879.42768775 </i>
    <i name="e_0_energy">   -879.47670065 </i>
   </energy>
  </scstep>
  <scstep>
   <time name="diag">    5.41    5.41</time>
   <time name="diis">   12.62   12.62</time>
   <time name="orth">    1.68    1.68</time>
   <time name="total">   22.01   22.02</time>
   <energy>
    <i name="e_fr_energy">   -879.50119171 </i>
    <i name="e_wo_entrp">   -879.42787043 </i>
    <i name="e_0_energy">   -879.47675128 </i>
   </energy>
  </scstep>
  <scstep>
   <time name="diag">    5.42    5.42</time>
   <time name="diis">   12.37   12.37</time>
   <time name="orth">    1.68    1.68</time>
   <time name="total">   21.76   21.76</time>
   <energy>
    <i name="e_fr_energy">   -879.50117101 </i>
    <i name="e_wo_entrp">   -879.42811109 </i>
    <i name="e_0_energy">   -879.47681770 </i>
   </energy>
  </scstep>
  <scstep>
   <time name="diag">    5.41    5.41</time>
   <time name="diis">   12.18   12.18</time>
   <time name="orth">    1.68    1.68</time>
   <time name="total">   21.55   21.55</time>
   <energy>
    <i name="e_fr_energy">   -879.50115998 </i>
    <i name="e_wo_entrp">   -879.42824071 </i>
    <i name="e_0_energy">   -879.47685355 </i>
   </energy>
  </scstep>
  <scstep>
   <time name="diag">    5.41    5.41</time>
   <time name="diis">   11.80   11.79</time>
   <time name="orth">    1.69    1.69</time>
   <time name="total">   21.24   21.24</time>
   <energy>
    <i name="e_fr_energy">   -879.50114910 </i>
    <i name="e_wo_entrp">   -879.42837407 </i>
    <i name="e_0_energy">   -879.47689076 </i>
   </energy>
  </scstep>
  <scstep>
   <time name="diag">    5.41    5.41</time>
   <time name="diis">   11.66   11.66</time>
   <time name="orth">    1.68    1.68</time>
   <time name="total">   21.04   21.04</time>
   <energy>
    <i name="e_fr_energy">   -879.50114130 </i>
    <i name="e_wo_entrp">   -879.42847301 </i>
    <i name="e_0_energy">   -879.47691853 </i>
   </energy>
  </scstep>
  <scstep>
   <time name="diag">    5.41    5.41</time>
   <time name="diis">   10.97   10.97</time>
   <time name="orth">    1.68    1.68</time>
   <time name="total">   20.35   20.35</time>
   <energy>
    <i name="e_fr_energy">   -879.50113461 </i>
    <i name="e_wo_entrp">   -879.42856098 </i>
    <i name="e_0_energy">   -879.47694340 </i>
   </energy>
  </scstep>
  <scstep>
   <time name="diag">    5.41    5.41</time>
   <time name="diis">   10.86   10.86</time>
   <time name="orth">    1.68    1.68</time>
   <time name="total">   20.25   20.25</time>
   <energy>
    <i name="e_fr_energy">   -879.50112864 </i>
    <i name="e_wo_entrp">   -879.42863995 </i>
    <i name="e_0_energy">   -879.47696575 </i>
   </energy>
  </scstep>
  <scstep>
   <time name="diag">    5.41    5.41</time>
   <time name="diis">   10.08   10.08</time>
   <time name="orth">    1.68    1.68</time>
   <time name="total">   19.47   19.47</time>
   <energy>
    <i name="e_fr_energy">   -879.50112327 </i>
    <i name="e_wo_entrp">   -879.42871194 </i>
    <i name="e_0_energy">   -879.47698616 </i>
   </energy>
  </scstep>
  <scstep>
   <time name="diag">    5.41    5.41</time>
   <time name="diis">   10.18   10.18</time>
   <time name="orth">    1.68    1.68</time>
   <time name="total">   19.56   19.56</time>
   <energy>
    <i name="e_fr_energy">   -879.50111831 </i>
    <i name="e_wo_entrp">   -879.42877881 </i>
    <i name="e_0_energy">   -879.47700514 </i>
   </energy>
  </scstep>
  <scstep>
   <time name="diag">    5.41    5.41</time>
   <time name="diis">    9.67    9.67</time>
   <time name="orth">    1.68    1.68</time>
   <time name="total">   19.07   19.07</time>
   <energy>
    <i name="e_fr_energy">   -879.50111370 </i>
    <i name="e_wo_entrp">   -879.42884020 </i>
    <i name="e_0_energy">   -879.47702254 </i>
   </energy>
  </scstep>
  <scstep>
   <time name="diag">    5.41    5.41</time>
   <time name="diis">    9.95    9.95</time>
   <time name="orth">    1.68    1.68</time>
   <time name="total">   19.34   19.34</time>
   <energy>
    <i name="e_fr_energy">   -879.50110944 </i>
    <i name="e_wo_entrp">   -879.42889704 </i>
    <i name="e_0_energy">   -879.47703864 </i>
   </energy>
  </scstep>
  <scstep>
   <time name="diag">    5.41    5.41</time>
   <time name="diis">    9.15    9.15</time>
   <time name="orth">    1.68    1.68</time>
   <time name="total">   18.54   18.54</time>
   <energy>
    <i name="e_fr_energy">   -879.50110547 </i>
    <i name="e_wo_entrp">   -879.42895013 </i>
    <i name="e_0_energy">   -879.47705369 </i>
   </energy>
  </scstep>
  <scstep>
   <time name="diag">    5.43    5.43</time>
   <time name="diis">    9.06    9.06</time>
   <time name="orth">    1.68    1.68</time>
   <time name="total">   18.45   18.45</time>
   <energy>
    <i name="e_fr_energy">   -879.50110179 </i>
    <i name="e_wo_entrp">   -879.42899943 </i>
    <i name="e_0_energy">   -879.47706767 </i>
   </energy>
  </scstep>
  <scstep>
   <time name="diag">    5.42    5.42</time>
   <time name="diis">    8.99    8.99</time>
   <time name="orth">    1.68    1.68</time>
   <time name="total">   18.39   18.39</time>
   <energy>
    <i name="e_fr_energy">   -879.50109838 </i>
    <i name="e_wo_entrp">   -879.42904501 </i>
    <i name="e_0_energy">   -879.47708059 </i>
   </energy>
  </scstep>
  <scstep>
   <time name="diag">    5.42    5.42</time>
   <time name="diis">    8.93    8.93</time>
   <time name="orth">    1.68    1.68</time>
   <time name="total">   18.33   18.33</time>
   <energy>
    <i name="e_fr_energy">   -879.50109523 </i>
    <i name="e_wo_entrp">   -879.42908705 </i>
    <i name="e_0_energy">   -879.47709250 </i>
   </energy>
  </scstep>
  <scstep>
   <time name="diag">    5.42    5.42</time>
   <time name="diis">    8.73    8.73</time>
   <time name="orth">    1.68    1.68</time>
   <time name="total">   18.13   18.13</time>
   <energy>
    <i name="e_fr_energy">   -879.50109230 </i>
    <i name="e_wo_entrp">   -879.42912595 </i>
    <i name="e_0_energy">   -879.47710352 </i>
   </energy>
  </scstep>
  <scstep>
   <time name="diag">    5.42    5.42</time>
   <time name="diis">    8.73    8.73</time>
   <time name="orth">    1.68    1.68</time>
   <time name="total">   18.12   18.12</time>
   <energy>
    <i name="e_fr_energy">   -879.50108961 </i>
    <i name="e_wo_entrp">   -879.42916197 </i>
    <i name="e_0_energy">   -879.47711373 </i>
   </energy>
  </scstep>
  <scstep>
   <time name="diag">    5.39    5.39</time>
   <time name="diis">    8.60    8.60</time>
   <time name="orth">    1.68    1.68</time>
   <time name="total">   17.97   17.97</time>
   <energy>
    <i name="e_fr_energy">   -879.50108712 </i>
    <i name="e_wo_entrp">   -879.42919530 </i>
    <i name="e_0_energy">   -879.47712318 </i>
   </energy>
  </scstep>
  <scstep>
   <time name="diag">    5.39    5.39</time>
   <time name="diis">    8.60    8.60</time>
   <time name="orth">    1.68    1.68</time>
   <time name="total">   17.95   17.95</time>
   <energy>
    <i name="e_fr_energy">   -879.50108484 </i>
    <i name="e_wo_entrp">   -879.42922587 </i>
    <i name="e_0_energy">   -879.47713185 </i>
   </energy>
  </scstep>
  <scstep>
   <time name="diag">    5.40    5.40</time>
   <time name="diis">    8.48    8.48</time>
   <time name="orth">    1.68    1.68</time>
   <time name="total">   17.85   17.85</time>
   <energy>
    <i name="e_fr_energy">   -879.50108273 </i>
    <i name="e_wo_entrp">   -879.42925413 </i>
    <i name="e_0_energy">   -879.47713987 </i>
   </energy>
  </scstep>
  <scstep>
   <time name="diag">    5.39    5.39</time>
   <time name="diis">    8.45    8.45</time>
   <time name="orth">    1.69    1.69</time>
   <time name="total">   17.84   17.84</time>
   <energy>
    <i name="e_fr_energy">   -879.50108080 </i>
    <i name="e_wo_entrp">   -879.42928005 </i>
    <i name="e_0_energy">   -879.47714722 </i>
   </energy>
  </scstep>
  <scstep>
   <time name="diag">    5.39    5.39</time>
   <time name="diis">    8.42    8.42</time>
   <time name="orth">    1.68    1.68</time>
   <time name="total">   17.79   17.79</time>
   <energy>
    <i name="e_fr_energy">   -879.50107903 </i>
    <i name="e_wo_entrp">   -879.42930400 </i>
    <i name="e_0_energy">   -879.47715402 </i>
   </energy>
  </scstep>
  <scstep>
   <time name="diag">    5.42    5.42</time>
   <time name="diis">    8.37    8.37</time>
   <time name="orth">    1.68    1.68</time>
   <time name="total">   17.78   17.78</time>
   <energy>
    <i name="e_fr_energy">   -879.50107740 </i>
    <i name="e_wo_entrp">   -879.42932590 </i>
    <i name="e_0_energy">   -879.47716023 </i>
   </energy>
  </scstep>
  <scstep>
   <time name="diag">    5.42    5.42</time>
   <time name="diis">    8.34    8.34</time>
   <time name="orth">    1.68    1.68</time>
   <time name="total">   17.75   17.75</time>
   <energy>
    <i name="e_fr_energy">   -879.50107591 </i>
    <i name="e_wo_entrp">   -879.42934610 </i>
    <i name="e_0_energy">   -879.47716597 </i>
   </energy>
  </scstep>
  <scstep>
   <time name="diag">    5.42    5.42</time>
   <time name="diis">    8.31    8.31</time>
   <time name="orth">    1.68    1.68</time>
   <time name="total">   17.71   17.71</time>
   <energy>
    <i name="e_fr_energy">   -879.50107454 </i>
    <i name="e_wo_entrp">   -879.42936459 </i>
    <i name="e_0_energy">   -879.47717122 </i>
   </energy>
  </scstep>
  <scstep>
   <time name="diag">    5.42    5.42</time>
   <time name="diis">    8.29    8.29</time>
   <time name="orth">    1.68    1.68</time>
   <time name="total">   17.71   17.71</time>
   <energy>
    <i name="e_fr_energy">   -879.50107329 </i>
    <i name="e_wo_entrp">   -879.42938159 </i>
    <i name="e_0_energy">   -879.47717606 </i>
   </energy>
  </scstep>
  <scstep>
   <time name="diag">    5.42    5.42</time>
   <time name="diis">    8.29    8.29</time>
   <time name="orth">    1.68    1.68</time>
   <time name="total">   17.71   17.71</time>
   <energy>
    <i name="e_fr_energy">   -879.50107214 </i>
    <i name="e_wo_entrp">   -879.42939714 </i>
    <i name="e_0_energy">   -879.47718048 </i>
   </energy>
  </scstep>
  <scstep>
   <time name="diag">    5.41    5.41</time>
   <time name="diis">    8.28    8.28</time>
   <time name="orth">    1.68    1.68</time>
   <time name="total">   17.69   17.69</time>
   <energy>
    <i name="e_fr_energy">   -879.50107110 </i>
    <i name="e_wo_entrp">   -879.42941144 </i>
    <i name="e_0_energy">   -879.47718454 </i>
   </energy>
  </scstep>
  <scstep>
   <time name="diag">    5.41    5.41</time>
   <time name="diis">    8.27    8.27</time>
   <time name="orth">    1.68    1.68</time>
   <time name="total">   15.63   15.63</time>
   <energy>
    <i name="alphaZ">   7300.31925852 </i>
    <i name="ewald"> -66232.83996889 </i>
    <i name="hartreedc">  -9349.30473404 </i>
    <i name="XCdc">    360.31060710 </i>
    <i name="pawpsdc">  58041.00126975 </i>
    <i name="pawaedc"> -58976.18511959 </i>
    <i name="eentropy">     -0.07164560 </i>
    <i name="bandstr">   3774.74973428 </i>
    <i name="atom">  64202.51952832 </i>
    <i name="e_fr_energy">   -879.50107014 </i>
    <i name="e_wo_entrp">   -879.42942454 </i>
    <i name="e_0_energy">   -879.47718827 </i>
   </energy>
  </scstep>
  <structure>
   <crystal>
    <varray name="basis" >
     <v>      10.33484705       0.00000000       0.00000000 </v>
     <v>       0.00000000      10.33484705       0.00000000 </v>
     <v>       0.00000000       0.00000000      10.33484705 </v>
    </varray>
    <i name="volume">   1103.85533447 </i>
    <varray name="rec_basis" >
     <v>       0.09676002       0.00000000       0.00000000 </v>
     <v>       0.00000000       0.09676002       0.00000000 </v>
     <v>       0.00000000       0.00000000       0.09676002 </v>
    </varray>
   </crystal>
   <varray name="positions" >
    <v>       0.00000000       0.00000000       0.00000000 </v>
    <v>       0.00000000       0.16666893       0.16666893 </v>
    <v>       0.16666893       0.00000000       0.16666893 </v>
    <v>       0.16666893       0.16666893       0.00000000 </v>
    <v>       0.33333106       0.00000000       0.00000000 </v>
    <v>       0.33333107       0.16666893       0.16666893 </v>
    <v>       0.50000000       0.00000000       0.16666894 </v>
    <v>       0.50000000       0.16666894       0.00000000 </v>
    <v>       0.66666897       0.00000000       0.00000000 </v>
    <v>       0.66666896       0.16666893       0.16666893 </v>
    <v>       0.83333104       0.00000000       0.16666893 </v>
    <v>       0.83333104       0.16666893       0.00000000 </v>
    <v>       0.00000000       0.33333106       0.00000000 </v>
    <v>       0.00000000       0.50000000       0.16666894 </v>
    <v>       0.16666893       0.33333107       0.16666893 </v>
    <v>       0.16666894       0.50000000       0.00000000 </v>
    <v>       0.33333107       0.33333107       0.00000000 </v>
    <v>       0.33333107       0.50000000       0.16666893 </v>
    <v>       0.50000000       0.33333107       0.16666893 </v>
    <v>       0.50000000       0.50000000       0.00000000 </v>
    <v>       0.66666896       0.33333107       0.00000000 </v>
    <v>       0.66666896       0.50000000       0.16666893 </v>
    <v>       0.83333104       0.33333107       0.16666893 </v>
    <v>       0.83333103       0.50000000       0.00000000 </v>
    <v>       0.00000000       0.66666897       0.00000000 </v>
    <v>       0.00000000       0.83333104       0.16666893 </v>
    <v>       0.16666893       0.66666896       0.16666893 </v>
    <v>       0.16666893       0.83333104       0.00000000 </v>
    <v>       0.33333107       0.66666896       0.00000000 </v>
    <v>       0.33333107       0.83333104       0.16666893 </v>
    <v>       0.50000000       0.66666896       0.16666893 </v>
    <v>       0.50000000       0.83333103       0.00000000 </v>
    <v>       0.66666896       0.66666896       0.00000000 </v>
    <v>       0.66666896       0.83333104       0.16666893 </v>
    <v>       0.83333104       0.66666896       0.16666893 </v>
    <v>       0.83333104       0.83333104       0.00000000 </v>
    <v>       0.00000000       0.00000000       0.33333106 </v>
    <v>       0.00000000       0.16666894       0.50000000 </v>
    <v>       0.16666894       0.00000000       0.50000000 </v>
    <v>       0.16666893       0.16666893       0.33333107 </v>
    <v>       0.33333107       0.00000000       0.33333107 </v>
    <v>       0.33333107       0.16666893       0.50000000 </v>
    <v>       0.50000000       0.00000000       0.50000000 </v>
    <v>       0.50000000       0.16666893       0.33333107 </v>
    <v>       0.66666896       0.00000000       0.33333107 </v>
    <v>       0.66666896       0.16666893       0.50000000 </v>
    <v>       0.83333103       0.00000000       0.50000000 </v>
    <v>       0.83333104       0.16666893       0.33333107 </v>
    <v>       0.00000000       0.33333107       0.33333107 </v>
    <v>       0.00000000       0.50000000       0.50000000 </v>
    <v>       0.16666893       0.33333107       0.50000000 </v>
    <v>       0.16666893       0.50000000       0.33333107 </v>
    <v>       0.33333107       0.33333107       0.33333107 </v>
    <v>       0.33333106       0.50000000       0.50000000 </v>
    <v>       0.50000000       0.33333106       0.50000000 </v>
    <v>       0.50000000       0.50000000       0.33333106 </v>
    <v>       0.66666896       0.33333107       0.33333107 </v>
    <v>       0.66666897       0.50000000       0.50000000 </v>
    <v>       0.83333104       0.33333107       0.50000000 </v>
    <v>       0.83333104       0.50000000       0.33333107 </v>
    <v>       0.00000000       0.66666896       0.33333107 </v>
    <v>       0.00000000       0.83333103       0.50000000 </v>
    <v>       0.16666893       0.66666896       0.50000000 </v>
    <v>       0.16666893       0.83333104       0.33333107 </v>
    <v>       0.33333107       0.66666896       0.33333107 </v>
    <v>       0.33333107       0.83333104       0.50000000 </v>
    <v>       0.50000000       0.66666897       0.50000000 </v>
    <v>       0.50000000       0.83333104       0.33333107 </v>
    <v>       0.66666896       0.66666896       0.33333107 </v>
    <v>       0.66666896       0.83333104       0.50000000 </v>
    <v>       0.83333104       0.66666896       0.50000000 </v>
    <v>       0.83333104       0.83333104       0.33333107 </v>
    <v>       0.00000000       0.00000000       0.66666897 </v>
    <v>       0.00000000       0.16666893       0.83333104 </v>
    <v>       0.16666893       0.00000000       0.83333104 </v>
    <v>       0.16666893       0.16666893       0.66666896 </v>
    <v>       0.33333107       0.00000000       0.66666896 </v>
    <v>       0.33333107       0.16666893       0.83333104 </v>
    <v>       0.50000000       0.00000000       0.83333103 </v>
    <v>       0.50000000       0.16666893       0.66666896 </v>
    <v>       0.66666896       0.00000000       0.66666896 </v>
    <v>       0.66666896       0.16666893       0.83333104 </v>
    <v>       0.83333104       0.00000000       0.83333104 </v>
    <v>       0.83333104       0.16666893       0.66666896 </v>
    <v>       0.00000000       0.33333107       0.66666896 </v>
    <v>       0.00000000       0.50000000       0.83333103 </v>
    <v>       0.16666893       0.33333107       0.83333104 </v>
    <v>       0.16666893       0.50000000       0.66666896 </v>
    <v>       0.33333107       0.33333107       0.66666896 </v>
    <v>       0.33333107       0.50000000       0.83333104 </v>
    <v>       0.50000000       0.33333107       0.83333104 </v>
    <v>       0.50000000       0.50000000       0.66666897 </v>
    <v>       0.66666896       0.33333107       0.66666896 </v>
    <v>       0.66666896       0.50000000       0.83333104 </v>
    <v>       0.83333104       0.33333107       0.83333104 </v>
    <v>       0.83333104       0.50000000       0.66666896 </v>
    <v>       0.00000000       0.66666896       0.66666896 </v>
    <v>       0.00000000       0.83333104       0.83333104 </v>
    <v>       0.16666893       0.66666896       0.83333104 </v>
    <v>       0.16666893       0.83333104       0.66666896 </v>
    <v>       0.33333107       0.66666896       0.66666896 </v>
    <v>       0.33333107       0.83333104       0.83333104 </v>
    <v>       0.50000000       0.66666896       0.83333104 </v>
    <v>       0.50000000       0.83333104       0.66666896 </v>
    <v>       0.66666896       0.66666896       0.66666896 </v>
    <v>       0.66666896       0.83333104       0.83333104 </v>
    <v>       0.83333104       0.66666896       0.83333104 </v>
    <v>       0.83333104       0.83333104       0.66666896 </v>
   </varray>
  </structure>
  <varray name="forces" >
   <v>       0.00000000      -0.00000000       0.00000000 </v>
   <v>      -0.00000000      -0.00000000       0.00000000 </v>
   <v>      -0.00000000      -0.00000000       0.00000000 </v>
   <v>      -0.00000000      -0.00000000       0.00000000 </v>
   <v>       0.00000000       0.00000000      -0.00000000 </v>
   <v>       0.00000000       0.00000000      -0.00000000 </v>
   <v>       0.00000000      -0.00000000       0.00000000 </v>
   <v>       0.00000000       0.00000000      -0.00000000 </v>
   <v>      -0.00000000       0.00000000      -0.00000000 </v>
   <v>      -0.00000000       0.00000000      -0.00000000 </v>
   <v>       0.00000000       0.00000000       0.00000000 </v>
   <v>      -0.00000000       0.00000000       0.00000000 </v>
   <v>      -0.00000000       0.00000000       0.00000000 </v>
   <v>      -0.00000000      -0.00000000      -0.00000000 </v>
   <v>       0.00000000       0.00000000      -0.00000000 </v>
   <v>      -0.00000000       0.00000000       0.00000000 </v>
   <v>       0.00000000      -0.00000000      -0.00000000 </v>
   <v>      -0.00000000      -0.00000000       0.00000000 </v>
   <v>       0.00000000      -0.00000000       0.00000000 </v>
   <v>       0.00000000       0.00000000      -0.00000000 </v>
   <v>      -0.00000000       0.00000000      -0.00000000 </v>
   <v>       0.00000000       0.00000000      -0.00000000 </v>
   <v>      -0.00000000      -0.00000000       0.00000000 </v>
   <v>      -0.00000000      -0.00000000      -0.00000000 </v>
   <v>       0.00000000      -0.00000000      -0.00000000 </v>
   <v>      -0.00000000       0.00000000       0.00000000 </v>
   <v>      -0.00000000      -0.00000000      -0.00000000 </v>
   <v>      -0.00000000       0.00000000       0.00000000 </v>
   <v>       0.00000000      -0.00000000      -0.00000000 </v>
   <v>      -0.00000000      -0.00000000       0.00000000 </v>
   <v>      -0.00000000       0.00000000       0.00000000 </v>
   <v>       0.00000000      -0.00000000       0.00000000 </v>
   <v>       0.00000000       0.00000000      -0.00000000 </v>
   <v>       0.00000000      -0.00000000       0.00000000 </v>
   <v>       0.00000000       0.00000000      -0.00000000 </v>
   <v>      -0.00000000      -0.00000000      -0.00000000 </v>
   <v>       0.00000000       0.00000000       0.00000000 </v>
   <v>      -0.00000000       0.00000000       0.00000000 </v>
   <v>      -0.00000000      -0.00000000       0.00000000 </v>
   <v>       0.00000000      -0.00000000       0.00000000 </v>
   <v>       0.00000000       0.00000000       0.00000000 </v>
   <v>      -0.00000000       0.00000000      -0.00000000 </v>
   <v>       0.00000000      -0.00000000       0.00000000 </v>
   <v>       0.00000000       0.00000000       0.00000000 </v>
   <v>      -0.00000000       0.00000000       0.00000000 </v>
   <v>       0.00000000       0.00000000      -0.00000000 </v>
   <v>       0.00000000      -0.00000000       0.00000000 </v>
   <v>      -0.00000000      -0.00000000      -0.00000000 </v>
   <v>       0.00000000      -0.00000000      -0.00000000 </v>
   <v>       0.00000000       0.00000000       0.00000000 </v>
   <v>      -0.00000000       0.00000000       0.00000000 </v>
   <v>       0.00000000       0.00000000       0.00000000 </v>
   <v>       0.00000000       0.00000000       0.00000000 </v>
   <v>      -0.00000000       0.00000000       0.00000000 </v>
   <v>       0.00000000      -0.00000000      -0.00000000 </v>
   <v>       0.00000000      -0.00000000       0.00000000 </v>
   <v>      -0.00000000      -0.00000000       0.00000000 </v>
   <v>      -0.00000000       0.00000000      -0.00000000 </v>
   <v>       0.00000000      -0.00000000       0.00000000 </v>
   <v>       0.00000000      -0.00000000       0.00000000 </v>
   <v>       0.00000000      -0.00000000      -0.00000000 </v>
   <v>      -0.00000000       0.00000000       0.00000000 </v>
   <v>      -0.00000000       0.00000000      -0.00000000 </v>
   <v>      -0.00000000      -0.00000000      -0.00000000 </v>
   <v>      -0.00000000      -0.00000000       0.00000000 </v>
   <v>       0.00000000      -0.00000000       0.00000000 </v>
   <v>       0.00000000      -0.00000000      -0.00000000 </v>
   <v>       0.00000000      -0.00000000      -0.00000000 </v>
   <v>       0.00000000       0.00000000       0.00000000 </v>
   <v>      -0.00000000       0.00000000       0.00000000 </v>
   <v>       0.00000000       0.00000000      -0.00000000 </v>
   <v>       0.00000000      -0.00000000       0.00000000 </v>
   <v>       0.00000000       0.00000000      -0.00000000 </v>
   <v>      -0.00000000      -0.00000000      -0.00000000 </v>
   <v>      -0.00000000      -0.00000000      -0.00000000 </v>
   <v>      -0.00000000      -0.00000000      -0.00000000 </v>
   <v>      -0.00000000      -0.00000000       0.00000000 </v>
   <v>      -0.00000000       0.00000000       0.00000000 </v>
   <v>      -0.00000000      -0.00000000      -0.00000000 </v>
   <v>       0.00000000       0.00000000      -0.00000000 </v>
   <v>      -0.00000000       0.00000000      -0.00000000 </v>
   <v>       0.00000000       0.00000000       0.00000000 </v>
   <v>      -0.00000000      -0.00000000      -0.00000000 </v>
   <v>       0.00000000       0.00000000       0.00000000 </v>
   <v>       0.00000000       0.00000000       0.00000000 </v>
   <v>      -0.00000000       0.00000000      -0.00000000 </v>
   <v>      -0.00000000      -0.00000000       0.00000000 </v>
   <v>      -0.00000000       0.00000000      -0.00000000 </v>
   <v>      -0.00000000       0.00000000      -0.00000000 </v>
   <v>       0.00000000       0.00000000       0.00000000 </v>
   <v>       0.00000000      -0.00000000       0.00000000 </v>
   <v>       0.00000000      -0.00000000      -0.00000000 </v>
   <v>      -0.00000000       0.00000000      -0.00000000 </v>
   <v>      -0.00000000       0.00000000       0.00000000 </v>
   <v>       0.00000000      -0.00000000      -0.00000000 </v>
   <v>      -0.00000000       0.00000000      -0.00000000 </v>
   <v>       0.00000000      -0.00000000      -0.00000000 </v>
   <v>      -0.00000000       0.00000000       0.00000000 </v>
   <v>       0.00000000       0.00000000       0.00000000 </v>
   <v>       0.00000000      -0.00000000      -0.00000000 </v>
   <v>       0.00000000      -0.00000000      -0.00000000 </v>
   <v>       0.00000000       0.00000000      -0.00000000 </v>
   <v>       0.00000000      -0.00000000       0.00000000 </v>
   <v>       0.00000000      -0.00000000      -0.00000000 </v>
   <v>       0.00000000      -0.00000000      -0.00000000 </v>
   <v>       0.00000000      -0.00000000       0.00000000 </v>
   <v>       0.00000000       0.00000000       0.00000000 </v>
   <v>      -0.00000000      -0.00000000      -0.00000000 </v>
  </varray>
  <varray name="stress" >
   <v>       6.19027772       0.00000000      -0.00000000 </v>
   <v>       0.00000000       6.19027772      -0.00000000 </v>
   <v>       0.00000000       0.00000000       6.19027772 </v>
  </varray>
  <energy>
   <i name="e_fr_energy">   -879.50107014 </i>
   <i name="e_wo_entrp">   -879.47718827 </i>
   <i name="e_0_energy">     -0.07164560 </i>
  </energy>
  <time name="totalsc"> 1235.79 1235.80</time>
 </calculation>
 <calculation>
  <scstep>
   <time name="dav">   44.00   44.00</time>
   <time name="total">   46.31   46.31</time>
   <energy>
    <i name="alphaZ">   7258.75408460 </i>
    <i name="ewald"> -66106.89931697 </i>
    <i name="hartreedc">  -9331.52718385 </i>
    <i name="XCdc">    354.66432251 </i>
    <i name="pawpsdc">  58041.00128642 </i>
    <i name="pawaedc"> -58976.18513926 </i>
    <i name="eentropy">     -0.08410523 </i>
    <i name="bandstr">   3677.99797196 </i>
    <i name="atom">  64202.51952832 </i>
    <i name="e_fr_energy">   -879.75855150 </i>
    <i name="e_wo_entrp">   -879.67444627 </i>
    <i name="e_0_energy">   -879.73051642 </i>
   </energy>
  </scstep>
  <scstep>
   <time name="diag">    5.41    5.41</time>
   <time name="diis">   18.28   18.28</time>
   <time name="orth">    1.68    1.68</time>
   <time name="total">   27.67   27.67</time>
   <energy>
    <i name="e_fr_energy">   -879.50163854 </i>
    <i name="e_wo_entrp">   -879.43635416 </i>
    <i name="e_0_energy">   -879.47987708 </i>
   </energy>
  </scstep>
  <scstep>
   <time name="diag">    5.41    5.41</time>
   <time name="diis">   20.16   20.16</time>
   <time name="orth">    1.68    1.68</time>
   <time name="total">   29.55   29.55</time>
   <energy>
    <i name="e_fr_energy">   -879.50024865 </i>
    <i name="e_wo_entrp">   -879.43356340 </i>
    <i name="e_0_energy">   -879.47802023 </i>
   </energy>
  </scstep>
  <scstep>
   <time name="diag">    5.41    5.41</time>
   <time name="diis">   18.22   18.22</time>
   <time name="orth">    1.68    1.68</time>
   <time name="total">   27.58   27.58</time>
   <energy>
    <i name="e_fr_energy">   -879.49650932 </i>
    <i name="e_wo_entrp">   -879.42685108 </i>
    <i name="e_0_energy">   -879.47328990 </i>
   </energy>
  </scstep>
  <scstep>
   <time name="diag">    5.40    5.40</time>
   <time name="diis">   18.31   18.31</time>
   <time name="orth">    1.68    1.68</time>
   <time name="total">   27.67   27.67</time>
   <energy>
    <i name="e_fr_energy">   -879.49841137 </i>
    <i name="e_wo_entrp">   -879.42998829 </i>
    <i name="e_0_energy">   -879.47560368 </i>
   </energy>
  </scstep>
  <scstep>
   <time name="diag">    5.40    5.40</time>
   <time name="diis">   18.32   18.32</time>
   <time name="orth">    1.68    1.68</time>
   <time name="total">   27.67   27.67</time>
   <energy>
    <i name="e_fr_energy">   -879.49461937 </i>
    <i name="e_wo_entrp">   -879.42738233 </i>
    <i name="e_0_energy">   -879.47220702 </i>
   </energy>
  </scstep>
  <scstep>
   <time name="diag">    5.39    5.39</time>
   <time name="diis">   23.06   23.05</time>
   <time name="orth">    1.68    1.68</time>
   <time name="total">   32.40   32.40</time>
   <energy>
    <i name="e_fr_energy">   -879.49460393 </i>
    <i name="e_wo_entrp">   -879.42720299 </i>
    <i name="e_0_energy">   -879.47213695 </i>
   </energy>
  </scstep>
  <scstep>
   <time name="diag">    5.39    5.39</time>
   <time name="diis">   18.43   18.43</time>
   <time name="orth">    1.68    1.68</time>
   <time name="total">   27.78   27.78</time>
   <energy>
    <i name="e_fr_energy">   -879.49456627 </i>
    <i name="e_wo_entrp">   -879.42700859 </i>
    <i name="e_0_energy">   -879.47204704 </i>
   </energy>
  </scstep>
  <scstep>
   <time name="diag">    5.39    5.39</time>
   <time name="diis">   18.42   18.42</time>
   <time name="orth">    1.68    1.68</time>
   <time name="total">   27.76   27.76</time>
   <energy>
    <i name="e_fr_energy">   -879.49457871 </i>
    <i name="e_wo_entrp">   -879.42684906 </i>
    <i name="e_0_energy">   -879.47200216 </i>
   </energy>
  </scstep>
  <scstep>
   <time name="diag">    5.39    5.39</time>
   <time name="diis">   20.02   20.02</time>
   <time name="orth">    1.68    1.68</time>
   <time name="total">   29.37   29.37</time>
   <energy>
    <i name="e_fr_energy">   -879.49458260 </i>
    <i name="e_wo_entrp">   -879.42685247 </i>
    <i name="e_0_energy">   -879.47200589 </i>
   </energy>
  </scstep>
  <scstep>
   <time name="diag">    5.39    5.39</time>
   <time name="diis">   10.85   10.85</time>
   <time name="orth">    1.68    1.68</time>
   <time name="total">   20.20   20.20</time>
   <energy>
    <i name="e_fr_energy">   -879.49457944 </i>
    <i name="e_wo_entrp">   -879.42686345 </i>
    <i name="e_0_energy">   -879.47200744 </i>
   </energy>
  </scstep>
  <scstep>
   <time name="diag">    5.40    5.40</time>
   <time name="diis">   10.66   10.66</time>
   <time name="orth">    1.68    1.68</time>
   <time name="total">   18.02   18.02</time>
   <energy>
    <i name="alphaZ">   7258.75408460 </i>
    <i name="ewald"> -66106.89931697 </i>
    <i name="hartreedc">  -9393.89867565 </i>
    <i name="XCdc">    358.34390130 </i>
    <i name="pawpsdc">  57889.68466780 </i>
    <i name="pawaedc"> -58822.00707745 </i>
    <i name="eentropy">     -0.06770938 </i>
    <i name="bandstr">   3734.07601767 </i>
    <i name="atom">  64202.51952832 </i>
    <i name="e_fr_energy">   -879.49457977 </i>
    <i name="e_wo_entrp">   -879.42687039 </i>
    <i name="e_0_energy">   -879.47200997 </i>
   </energy>
  </scstep>
  <structure>
   <crystal>
    <varray name="basis" >
     <v>      10.35453603       0.00000000      -0.00000000 </v>
     <v>       0.00000000      10.35453603      -0.00000000 </v>
     <v>       0.00000000       0.00000000      10.35453603 </v>
    </varray>
    <i name="volume">   1110.17624553 </i>
    <varray name="rec_basis" >
     <v>       0.09657603      -0.00000000      -0.00000000 </v>
     <v>      -0.00000000       0.09657603      -0.00000000 </v>
     <v>       0.00000000       0.00000000       0.09657603 </v>
    </varray>
   </crystal>
   <varray name="positions" >
    <v>       0.00000000      -0.00000000       0.00000000 </v>
    <v>      -0.00000000       0.16666893       0.16666893 </v>
    <v>       0.16666893      -0.00000000       0.16666893 </v>
    <v>       0.16666893       0.16666893       0.00000000 </v>
    <v>       0.33333106       0.00000000      -0.00000000 </v>
    <v>       0.33333107       0.16666893       0.16666893 </v>
    <v>       0.50000000      -0.00000000       0.16666894 </v>
    <v>       0.50000000       0.16666894      -0.00000000 </v>
    <v>       0.66666897       0.00000000      -0.00000000 </v>
    <v>       0.66666896       0.16666893       0.16666893 </v>
    <v>       0.83333104       0.00000000       0.16666893 </v>
    <v>       0.83333104       0.16666893       0.00000000 </v>
    <v>      -0.00000000       0.33333106       0.00000000 </v>
    <v>      -0.00000000       0.50000000       0.16666894 </v>
    <v>       0.16666893       0.33333107       0.16666893 </v>
    <v>       0.16666894       0.50000000       0.00000000 </v>
    <v>       0.33333107       0.33333107      -0.00000000 </v>
    <v>       0.33333107       0.50000000       0.16666893 </v>
    <v>       0.50000000       0.33333107       0.16666893 </v>
    <v>       0.50000000       0.50000000      -0.00000000 </v>
    <v>       0.66666896       0.33333107      -0.00000000 </v>
    <v>       0.66666896       0.50000000       0.16666893 </v>
    <v>       0.83333104       0.33333107       0.16666893 </v>
    <v>       0.83333103       0.50000000      -0.00000000 </v>
    <v>       0.00000000       0.66666897      -0.00000000 </v>
    <v>      -0.00000000       0.83333104       0.16666893 </v>
    <v>       0.16666893       0.66666896       0.16666893 </v>
    <v>       0.16666893       0.83333104       0.00000000 </v>
    <v>       0.33333107       0.66666896      -0.00000000 </v>
    <v>       0.33333107       0.83333104       0.16666893 </v>
    <v>       0.50000000       0.66666896       0.16666893 </v>
    <v>       0.50000000       0.83333103       0.00000000 </v>
    <v>       0.66666896       0.66666896      -0.00000000 </v>
    <v>       0.66666896       0.83333104       0.16666893 </v>
    <v>       0.83333104       0.66666896       0.16666893 </v>
    <v>       0.83333104       0.83333104      -0.00000000 </v>
    <v>       0.00000000       0.00000000       0.33333106 </v>
    <v>      -0.00000000       0.16666894       0.50000000 </v>
    <v>       0.16666894      -0.00000000       0.50000000 </v>
    <v>       0.16666893       0.16666893       0.33333107 </v>
    <v>       0.33333107       0.00000000       0.33333107 </v>
    <v>       0.33333107       0.16666893       0.50000000 </v>
    <v>       0.50000000      -0.00000000       0.50000000 </v>
    <v>       0.50000000       0.16666893       0.33333107 </v>
    <v>       0.66666896       0.00000000       0.33333107 </v>
    <v>       0.66666896       0.16666893       0.50000000 </v>
    <v>       0.83333103      -0.00000000       0.50000000 </v>
    <v>       0.83333104       0.16666893       0.33333107 </v>
    <v>       0.00000000       0.33333107       0.33333107 </v>
    <v>       0.00000000       0.50000000       0.50000000 </v>
    <v>       0.16666893       0.33333107       0.50000000 </v>
    <v>       0.16666893       0.50000000       0.33333107 </v>
    <v>       0.33333107       0.33333107       0.33333107 </v>
    <v>       0.33333106       0.50000000       0.50000000 </v>
    <v>       0.50000000       0.33333106       0.50000000 </v>
    <v>       0.50000000       0.50000000       0.33333106 </v>
    <v>       0.66666896       0.33333107       0.33333107 </v>
    <v>       0.66666897       0.50000000       0.50000000 </v>
    <v>       0.83333104       0.33333107       0.50000000 </v>
    <v>       0.83333104       0.50000000       0.33333107 </v>
    <v>       0.00000000       0.66666896       0.33333107 </v>
    <v>      -0.00000000       0.83333103       0.50000000 </v>
    <v>       0.16666893       0.66666896       0.50000000 </v>
    <v>       0.16666893       0.83333104       0.33333107 </v>
    <v>       0.33333107       0.66666896       0.33333107 </v>
    <v>       0.33333107       0.83333104       0.50000000 </v>
    <v>       0.50000000       0.66666897       0.50000000 </v>
    <v>       0.50000000       0.83333104       0.33333107 </v>
    <v>       0.66666896       0.66666896       0.33333107 </v>
    <v>       0.66666896       0.83333104       0.50000000 </v>
    <v>       0.83333104       0.66666896       0.50000000 </v>
    <v>       0.83333104       0.83333104       0.33333107 </v>
    <v>       0.00000000       0.00000000       0.66666897 </v>
    <v>      -0.00000000       0.16666893       0.83333104 </v>
    <v>       0.16666893      -0.00000000       0.83333104 </v>
    <v>       0.16666893       0.16666893       0.66666896 </v>
    <v>       0.33333107      -0.00000000       0.66666896 </v>
    <v>       0.33333107       0.16666893       0.83333104 </v>
    <v>       0.50000000      -0.00000000       0.83333103 </v>
    <v>       0.50000000       0.16666893       0.66666896 </v>
    <v>       0.66666896       0.00000000       0.66666896 </v>
    <v>       0.66666896       0.16666893       0.83333104 </v>
    <v>       0.83333104      -0.00000000       0.83333104 </v>
    <v>       0.83333104       0.16666893       0.66666896 </v>
    <v>       0.00000000       0.33333107       0.66666896 </v>
    <v>      -0.00000000       0.50000000       0.83333103 </v>
    <v>       0.16666893       0.33333107       0.83333104 </v>
    <v>       0.16666893       0.50000000       0.66666896 </v>
    <v>       0.33333107       0.33333107       0.66666896 </v>
    <v>       0.33333107       0.50000000       0.83333104 </v>
    <v>       0.50000000       0.33333107       0.83333104 </v>
    <v>       0.50000000       0.50000000       0.66666897 </v>
    <v>       0.66666896       0.33333107       0.66666896 </v>
    <v>       0.66666896       0.50000000       0.83333104 </v>
    <v>       0.83333104       0.33333107       0.83333104 </v>
    <v>       0.83333104       0.50000000       0.66666896 </v>
    <v>       0.00000000       0.66666896       0.66666896 </v>
    <v>      -0.00000000       0.83333104       0.83333104 </v>
    <v>       0.16666893       0.66666896       0.83333104 </v>
    <v>       0.16666893       0.83333104       0.66666896 </v>
    <v>       0.33333107       0.66666896       0.66666896 </v>
    <v>       0.33333107       0.83333104       0.83333104 </v>
    <v>       0.50000000       0.66666896       0.83333104 </v>
    <v>       0.50000000       0.83333104       0.66666896 </v>
    <v>       0.66666896       0.66666896       0.66666896 </v>
    <v>       0.66666896       0.83333104       0.83333104 </v>
    <v>       0.83333104       0.66666896       0.83333104 </v>
    <v>       0.83333104       0.83333104       0.66666896 </v>
   </varray>
  </structure>
  <varray name="forces" >
   <v>      -0.00000000      -0.00000000       0.00000000 </v>
   <v>      -0.00000000      -0.00000000      -0.00000000 </v>
   <v>      -0.00000000       0.00000000       0.00000000 </v>
   <v>       0.00000000       0.00000000       0.00000000 </v>
   <v>       0.00000000      -0.00000000      -0.00000000 </v>
   <v>       0.00000000       0.00000000       0.00000000 </v>
   <v>      -0.00000000       0.00000000      -0.00000000 </v>
   <v>      -0.00000000      -0.00000000       0.00000000 </v>
   <v>       0.00000000       0.00000000       0.00000000 </v>
   <v>       0.00000000       0.00000000       0.00000000 </v>
   <v>       0.00000000       0.00000000      -0.00000000 </v>
   <v>      -0.00000000       0.00000000       0.00000000 </v>
   <v>      -0.00000000       0.00000000      -0.00000000 </v>
   <v>       0.00000000       0.00000000      -0.00000000 </v>
   <v>       0.00000000       0.00000000       0.00000000 </v>
   <v>       0.00000000       0.00000000       0.00000000 </v>
   <v>       0.00000000       0.00000000      -0.00000000 </v>
   <v>      -0.00000000       0.00000000      -0.00000000 </v>
   <v>      -0.00000000      -0.00000000       0.00000000 </v>
   <v>      -0.00000000       0.00000000      -0.00000000 </v>
   <v>       0.00000000      -0.00000000       0.00000000 </v>
   <v>       0.00000000       0.00000000      -0.00000000 </v>
   <v>      -0.00000000       0.00000000       0.00000000 </v>
   <v>       0.00000000       0.00000000       0.00000000 </v>
   <v>      -0.00000000       0.00000000      -0.00000000 </v>
   <v>       0.00000000      -0.00000000       0.00000000 </v>
   <v>       0.00000000      -0.00000000       0.00000000 </v>
   <v>       0.00000000      -0.00000000       0.00000000 </v>
   <v>       0.00000000      -0.00000000      -0.00000000 </v>
   <v>       0.00000000      -0.00000000      -0.00000000 </v>
   <v>       0.00000000       0.00000000      -0.00000000 </v>
   <v>      -0.00000000       0.00000000       0.00000000 </v>
   <v>       0.00000000       0.00000000      -0.00000000 </v>
   <v>       0.00000000       0.00000000       0.00000000 </v>
   <v>      -0.00000000      -0.00000000      -0.00000000 </v>
   <v>      -0.00000000      -0.00000000       0.00000000 </v>
   <v>      -0.00000000       0.00000000      -0.00000000 </v>
   <v>      -0.00000000      -0.00000000       0.00000000 </v>
   <v>      -0.00000000       0.00000000       0.00000000 </v>
   <v>       0.00000000       0.00000000      -0.00000000 </v>
   <v>      -0.00000000       0.00000000       0.00000000 </v>
   <v>       0.00000000      -0.00000000       0.00000000 </v>
   <v>      -0.00000000      -0.00000000      -0.00000000 </v>
   <v>      -0.00000000       0.00000000      -0.00000000 </v>
   <v>       0.00000000       0.00000000       0.00000000 </v>
   <v>      -0.00000000      -0.00000000       0.00000000 </v>
   <v>       0.00000000      -0.00000000       0.00000000 </v>
   <v>       0.00000000       0.00000000      -0.00000000 </v>
   <v>       0.00000000       0.00000000       0.00000000 </v>
   <v>      -0.00000000       0.00000000      -0.00000000 </v>
   <v>       0.00000000       0.00000000       0.00000000 </v>
   <v>       0.00000000       0.00000000      -0.00000000 </v>
   <v>      -0.00000000      -0.00000000      -0.00000000 </v>
   <v>       0.00000000      -0.00000000      -0.00000000 </v>
   <v>      -0.00000000      -0.00000000       0.00000000 </v>
   <v>      -0.00000000      -0.00000000      -0.00000000 </v>
   <v>      -0.00000000      -0.00000000      -0.00000000 </v>
   <v>       0.00000000      -0.00000000      -0.00000000 </v>
   <v>      -0.00000000      -0.00000000      -0.00000000 </v>
   <v>      -0.00000000       0.00000000      -0.00000000 </v>
   <v>      -0.00000000      -0.00000000      -0.00000000 </v>
   <v>      -0.00000000      -0.00000000       0.00000000 </v>
   <v>       0.00000000      -0.00000000       0.00000000 </v>
   <v>       0.00000000      -0.00000000       0.00000000 </v>
   <v>       0.00000000       0.00000000       0.00000000 </v>
   <v>      -0.00000000       0.00000000      -0.00000000 </v>
   <v>       0.00000000       0.00000000      -0.00000000 </v>
   <v>      -0.00000000       0.00000000      -0.00000000 </v>
   <v>       0.00000000       0.00000000       0.00000000 </v>
   <v>      -0.00000000       0.00000000      -0.00000000 </v>
   <v>      -0.00000000      -0.00000000       0.00000000 </v>
   <v>      -0.00000000      -0.00000000      -0.00000000 </v>
   <v>      -0.00000000      -0.00000000       0.00000000 </v>
   <v>      -0.00000000       0.00000000       0.00000000 </v>
   <v>      -0.00000000       0.00000000       0.00000000 </v>
   <v>       0.00000000       0.00000000       0.00000000 </v>
   <v>      -0.00000000       0.00000000      -0.00000000 </v>
   <v>       0.00000000       0.00000000      -0.00000000 </v>
   <v>      -0.00000000       0.00000000       0.00000000 </v>
   <v>      -0.00000000       0.00000000       0.00000000 </v>
   <v>      -0.00000000       0.00000000      -0.00000000 </v>
   <v>      -0.00000000      -0.00000000      -0.00000000 </v>
   <v>      -0.00000000       0.00000000      -0.00000000 </v>
   <v>      -0.00000000      -0.00000000      -0.00000000 </v>
[...]
       <r>    -1.8064     2.7344     0.3871 </r>
       <r>    -1.7610     3.2625     0.5351 </r>
       <r>    -1.7157     3.6453     0.7004 </r>
       <r>    -1.6703     3.8536     0.8751 </r>
       <r>    -1.6250     3.9308     1.0533 </r>
       <r>    -1.5796     3.9610     1.2330 </r>
       <r>    -1.5343     4.0242     1.4154 </r>
       <r>    -1.4889     4.1744     1.6047 </r>
       <r>    -1.4436     4.4417     1.8061 </r>
       <r>    -1.3982     4.8390     2.0256 </r>
       <r>    -1.3529     5.3637     2.2688 </r>
       <r>    -1.3076     5.9864     2.5402 </r>
       <r>    -1.2622     6.6269     2.8407 </r>
       <r>    -1.2169     7.1363     3.1643 </r>
       <r>    -1.1715     7.3309     3.4967 </r>
       <r>    -1.1262     7.0916     3.8183 </r>
       <r>    -1.0808     6.4707     4.1117 </r>
       <r>    -1.0355     5.7111     4.3707 </r>
       <r>    -0.9901     5.1479     4.6041 </r>
       <r>    -0.9448     5.0565     4.8334 </r>
       <r>    -0.8995     5.5462     5.0849 </r>
       <r>    -0.8541     6.5492     5.3819 </r>
       <r>    -0.8088     7.8804     5.7392 </r>
       <r>    -0.7634     9.3015     6.1610 </r>
       <r>    -0.7181    10.5426     6.6390 </r>
       <r>    -0.6727    11.3062     7.1517 </r>
       <r>    -0.6274    11.3292     7.6654 </r>
       <r>    -0.5820    10.5243     8.1427 </r>
       <r>    -0.5367     9.1091     8.5557 </r>
       <r>    -0.4913     7.5858     8.8997 </r>
       <r>    -0.4460     6.5380     9.1962 </r>
       <r>    -0.4007     6.3635     9.4847 </r>
       <r>    -0.3553     7.1145     9.8073 </r>
       <r>    -0.3100     8.5209    10.1937 </r>
       <r>    -0.2646    10.1449    10.6537 </r>
       <r>    -0.2193    11.5536    11.1776 </r>
       <r>    -0.1739    12.4368    11.7416 </r>
       <r>    -0.1286    12.6722    12.3162 </r>
       <r>    -0.0832    12.3538    12.8764 </r>
       <r>    -0.0379    11.7682    13.4100 </r>
       <r>     0.0074    11.2852    13.9217 </r>
       <r>     0.0528    11.1894    14.4291 </r>
       <r>     0.0981    11.5513    14.9529 </r>
       <r>     0.1435    12.2254    15.5073 </r>
       <r>     0.1888    12.9702    16.0954 </r>
       <r>     0.2342    13.5877    16.7116 </r>
       <r>     0.2795    13.9875    17.3458 </r>
       <r>     0.3249    14.1564    17.9877 </r>
       <r>     0.3702    14.0980    18.6270 </r>
       <r>     0.4156    13.8083    19.2531 </r>
       <r>     0.4609    13.3045    19.8564 </r>
       <r>     0.5062    12.6794    20.4314 </r>
       <r>     0.5516    12.1487    20.9823 </r>
       <r>     0.5969    12.0483    21.5286 </r>
       <r>     0.6423    12.7327    22.1060 </r>
       <r>     0.6876    14.3676    22.7575 </r>
       <r>     0.7330    16.7281    23.5160 </r>
       <r>     0.7783    19.1873    24.3861 </r>
       <r>     0.8237    20.9878    25.3377 </r>
       <r>     0.8690    21.6582    26.3198 </r>
       <r>     0.9143    21.2756    27.2846 </r>
       <r>     0.9597    20.3555    28.2076 </r>
       <r>     1.0050    19.4428    29.0892 </r>
       <r>     1.0504    18.7348    29.9388 </r>
       <r>     1.0957    18.0562    30.7575 </r>
       <r>     1.1411    17.2070    31.5378 </r>
       <r>     1.1864    16.3673    32.2800 </r>
       <r>     1.2318    16.1778    33.0135 </r>
       <r>     1.2771    17.3890    33.8020 </r>
       <r>     1.3225    20.3304    34.7239 </r>
       <r>     1.3678    24.5807    35.8385 </r>
       <r>     1.4131    29.0488    37.1558 </r>
       <r>     1.4585    32.4078    38.6253 </r>
       <r>     1.5038    33.6535    40.1513 </r>
       <r>     1.5492    32.5492    41.6273 </r>
       <r>     1.5945    29.7899    42.9781 </r>
       <r>     1.6399    26.8312    44.1947 </r>
       <r>     1.6852    25.4472    45.3486 </r>
       <r>     1.7306    27.1702    46.5807 </r>
       <r>     1.7759    32.7960    48.0678 </r>
       <r>     1.8212    42.1188    49.9777 </r>
       <r>     1.8666    54.0148    52.4270 </r>
       <r>     1.9119    66.8683    55.4591 </r>
       <r>     1.9573    79.1309    59.0473 </r>
       <r>     2.0026    89.6856    63.1141 </r>
       <r>     2.0480    97.8477    67.5510 </r>
       <r>     2.0933   103.1907    72.2302 </r>
       <r>     2.1387   105.5425    77.0160 </r>
       <r>     2.1840   105.2420    81.7882 </r>
       <r>     2.2294   103.3536    86.4748 </r>
       <r>     2.2747   101.4752    91.0762 </r>
       <r>     2.3200   101.1073    95.6609 </r>
       <r>     2.3654   102.9399   100.3287 </r>
       <r>     2.4107   106.5257   105.1592 </r>
       <r>     2.4561   110.6115   110.1748 </r>
       <r>     2.5014   113.9990   115.3441 </r>
       <r>     2.5468   116.4042   120.6225 </r>
       <r>     2.5921   118.6652   126.0034 </r>
       <r>     2.6375   122.0642   131.5384 </r>
       <r>     2.6828   127.2575   137.3089 </r>
       <r>     2.7281   133.7157   143.3722 </r>
       <r>     2.7735   140.1755   149.7285 </r>
       <r>     2.8188   145.7007   156.3353 </r>
       <r>     2.8642   150.3871   163.1546 </r>
       <r>     2.9095   155.0779   170.1866 </r>
       <r>     2.9549   160.3626   177.4582 </r>
       <r>     3.0002   165.7758   184.9754 </r>
       <r>     3.0456   169.9219   192.6805 </r>
       <r>     3.0909   171.4395   200.4544 </r>
       <r>     3.1363   169.9849   208.1624 </r>
       <r>     3.1816   166.4165   215.7085 </r>
       <r>     3.2269   162.0952   223.0587 </r>
       <r>     3.2723   158.0057   230.2235 </r>
       <r>     3.3176   154.4833   237.2286 </r>
       <r>     3.3630   151.6263   244.1041 </r>
       <r>     3.4083   149.7472   250.8944 </r>
       <r>     3.4537   149.2512   257.6622 </r>
       <r>     3.4990   150.0544   264.4664 </r>
       <r>     3.5444   151.2259   271.3237 </r>
       <r>     3.5897   151.3358   278.1861 </r>
       <r>     3.6351   149.3057   284.9563 </r>
       <r>     3.6804   145.1226   291.5369 </r>
       <r>     3.7257   139.9288   297.8820 </r>
       <r>     3.7711   135.4384   304.0234 </r>
       <r>     3.8164   132.9867   310.0537 </r>
       <r>     3.8618   132.7111   316.0715 </r>
       <r>     3.9071   133.3946   322.1203 </r>
       <r>     3.9525   133.2322   328.1617 </r>
       <r>     3.9978   131.1589   334.1091 </r>
       <r>     4.0432   127.8089   339.9046 </r>
       <r>     4.0885   125.2682   345.5849 </r>
       <r>     4.1338   125.6796   351.2839 </r>
       <r>     4.1792   129.7783   357.1687 </r>
       <r>     4.2245   136.5911   363.3624 </r>
       <r>     4.2699   144.5140   369.9154 </r>
       <r>     4.3152   152.6891   376.8391 </r>
       <r>     4.3606   161.3227   384.1543 </r>
       <r>     4.4059   170.6835   391.8939 </r>
       <r>     4.4513   179.8842   400.0508 </r>
       <r>     4.4966   186.7687   408.5198 </r>
       <r>     4.5420   189.1279   417.0958 </r>
       <r>     4.5873   186.2650   425.5420 </r>
       <r>     4.6326   179.7511   433.6928 </r>
       <r>     4.6780   172.9638   441.5359 </r>
       <r>     4.7233   169.7703   449.2341 </r>
       <r>     4.7687   172.9729   457.0776 </r>
       <r>     4.8140   183.0963   465.3801 </r>
       <r>     4.8594   198.0263   474.3596 </r>
       <r>     4.9047   213.8018   484.0544 </r>
       <r>     4.9501   226.3114   494.3165 </r>
       <r>     4.9954   233.0371   504.8836 </r>
       <r>     5.0407   233.8842   515.4891 </r>
       <r>     5.0861   230.7606   525.9530 </r>
       <r>     5.1314   226.4101   536.2195 </r>
       <r>     5.1768   223.3645   546.3480 </r>
       <r>     5.2221   223.4997   556.4826 </r>
       <r>     5.2675   227.9785   566.8203 </r>
       <r>     5.3128   237.0190   577.5679 </r>
       <r>     5.3582   249.2845   588.8717 </r>
       <r>     5.4035   261.4463   600.7270 </r>
       <r>     5.4489   268.8011   612.9158 </r>
       <r>     5.4942   267.1887   625.0315 </r>
       <r>     5.5395   255.2554   636.6061 </r>
       <r>     5.5849   235.4716   647.2835 </r>
       <r>     5.6302   212.9878   656.9415 </r>
       <r>     5.6756   192.9547   665.6910 </r>
       <r>     5.7209   178.0664   673.7655 </r>
       <r>     5.7663   167.8810   681.3780 </r>
       <r>     5.8116   160.1357   688.6394 </r>
       <r>     5.8570   152.9001   695.5726 </r>
       <r>     5.9023   146.0156   702.1937 </r>
       <r>     5.9476   141.0095   708.5878 </r>
       <r>     5.9930   139.8229   714.9281 </r>
       <r>     6.0383   143.3946   721.4303 </r>
       <r>     6.0837   151.0095   728.2778 </r>
       <r>     6.1290   160.6718   735.5635 </r>
       <r>     6.1744   170.1370   743.2784 </r>
       <r>     6.2197   177.9919   751.3494 </r>
       <r>     6.2651   184.2266   759.7032 </r>
       <r>     6.3104   189.9553   768.3167 </r>
       <r>     6.3558   196.3469   777.2201 </r>
       <r>     6.4011   203.4119   786.4438 </r>
       <r>     6.4464   209.6332   795.9496 </r>
       <r>     6.4918   212.9536   805.6060 </r>
       <r>     6.5371   212.4604   815.2400 </r>
       <r>     6.5825   209.2958   824.7306 </r>
       <r>     6.6278   205.8256   834.0637 </r>
       <r>     6.6732   203.6394   843.2978 </r>
       <r>     6.7185   202.1140   852.4626 </r>
       <r>     6.7639   198.9038   861.4819 </r>
       <r>     6.8092   192.0734   870.1915 </r>
       <r>     6.8545   182.1145   878.4495 </r>
       <r>     6.8999   172.1119   886.2539 </r>
       <r>     6.9452   165.8432   893.7741 </r>
       <r>     6.9906   165.3034   901.2698 </r>
       <r>     7.0359   169.5622   908.9586 </r>
       <r>     7.0813   175.6947   916.9255 </r>
       <r>     7.1266   180.8494   925.1261 </r>
       <r>     7.1720   183.8214   933.4615 </r>
       <r>     7.2173   185.2242   941.8605 </r>
       <r>     7.2627   186.6115   950.3224 </r>
       <r>     7.3080   189.4761   958.9142 </r>
       <r>     7.3533   194.6403   967.7401 </r>
       <r>     7.3987   201.8937   976.8950 </r>
       <r>     7.4440   209.6242   986.4004 </r>
       <r>     7.4894   214.6200   996.1324 </r>
       <r>     7.5347   212.5645  1005.7711 </r>
       <r>     7.5801   199.4944  1014.8172 </r>
       <r>     7.6254   173.7619  1022.6965 </r>
       <r>     7.6708   137.4242  1028.9280 </r>
       <r>     7.7161    96.0486  1033.2833 </r>
       <r>     7.7614    56.7749  1035.8578 </r>
       <r>     7.8068    25.5905  1037.0182 </r>
       <r>     7.8521     5.3077  1037.2588 </r>
       <r>     7.8975    -4.7615  1037.0429 </r>
       <r>     7.9428    -7.5747  1036.6994 </r>
       <r>     7.9882    -6.5787  1036.4011 </r>
       <r>     8.0335    -4.4075  1036.2013 </r>
       <r>     8.0789    -2.4678  1036.0894 </r>
       <r>     8.1242    -1.1916  1036.0353 </r>
       <r>     8.1696    -0.5039  1036.0125 </r>
       <r>     8.2149    -0.1883  1036.0040 </r>
       <r>     8.2602    -0.0625  1036.0011 </r>
       <r>     8.3056    -0.0185  1036.0003 </r>
       <r>     8.3509    -0.0049  1036.0001 </r>
       <r>     8.3963    -0.0012  1036.0000 </r>
       <r>     8.4416    -0.0002  1036.0000 </r>
       <r>     8.4870    -0.0000  1036.0000 </r>
       <r>     8.5323    -0.0000  1036.0000 </r>
       <r>     8.5777    -0.0000  1036.0000 </r>
       <r>     8.6230    -0.0000  1036.0000 </r>
       <r>     8.6683    -0.0000  1036.0000 </r>
       <r>     8.7137    -0.0000  1036.0000 </r>
       <r>     8.7590    -0.0000  1036.0000 </r>
       <r>     8.8044    -0.0000  1036.0000 </r>
       <r>     8.8497    -0.0000  1036.0000 </r>
       <r>     8.8951    -0.0000  1036.0000 </r>
       <r>     8.9404     0.0000  1036.0000 </r>
       <r>     8.9858     0.0000  1036.0000 </r>
       <r>     9.0311     0.0000  1036.0000 </r>
       <r>     9.0765     0.0000  1036.0000 </r>
       <r>     9.1218     0.0000  1036.0000 </r>
       <r>     9.1671     0.0000  1036.0000 </r>
       <r>     9.2125     0.0000  1036.0000 </r>
       <r>     9.2578     0.0000  1036.0000 </r>
       <r>     9.3032     0.0000  1036.0000 </r>
       <r>     9.3485     0.0000  1036.0000 </r>
       <r>     9.3939     0.0000  1036.0000 </r>
       <r>     9.4392     0.0000  1036.0000 </r>
       <r>     9.4846     0.0000  1036.0000 </r>
       <r>     9.5299     0.0000  1036.0000 </r>
       <r>     9.5753     0.0000  1036.0000 </r>
       <r>     9.6206     0.0000  1036.0000 </r>
       <r>     9.6659     0.0000  1036.0000 </r>
      </set>
     </set>
    </array>
   </total>
  </dos>
 </calculation>
 <structure name="finalpos" >
  <crystal>
   <varray name="basis" >
    <v>      10.34265832       0.00000000      -0.00000000 </v>
    <v>       0.00000000      10.34265832      -0.00000000 </v>
    <v>       0.00000000       0.00000000      10.34265832 </v>
   </varray>
   <i name="volume">   1106.36016930 </i>
   <varray name="rec_basis" >
    <v>       0.09668694      -0.00000000      -0.00000000 </v>
    <v>      -0.00000000       0.09668694      -0.00000000 </v>
    <v>       0.00000000       0.00000000       0.09668694 </v>
   </varray>
  </crystal>
  <varray name="positions" >
   <v>       0.00000000      -0.00000000       0.00000000 </v>
   <v>      -0.00000000       0.16666893       0.16666893 </v>
   <v>       0.16666893      -0.00000000       0.16666893 </v>
   <v>       0.16666893       0.16666893       0.00000000 </v>
   <v>       0.33333106       0.00000000      -0.00000000 </v>
   <v>       0.33333107       0.16666893       0.16666893 </v>
   <v>       0.50000000      -0.00000000       0.16666894 </v>
   <v>       0.50000000       0.16666894      -0.00000000 </v>
   <v>       0.66666897       0.00000000      -0.00000000 </v>
   <v>       0.66666896       0.16666893       0.16666893 </v>
   <v>       0.83333104       0.00000000       0.16666893 </v>
   <v>       0.83333104       0.16666893       0.00000000 </v>
   <v>      -0.00000000       0.33333106       0.00000000 </v>
   <v>      -0.00000000       0.50000000       0.16666894 </v>
   <v>       0.16666893       0.33333107       0.16666893 </v>
   <v>       0.16666894       0.50000000       0.00000000 </v>
   <v>       0.33333107       0.33333107      -0.00000000 </v>
   <v>       0.33333107       0.50000000       0.16666893 </v>
   <v>       0.50000000       0.33333107       0.16666893 </v>
   <v>       0.50000000       0.50000000      -0.00000000 </v>
   <v>       0.66666896       0.33333107      -0.00000000 </v>
   <v>       0.66666896       0.50000000       0.16666893 </v>
   <v>       0.83333104       0.33333107       0.16666893 </v>
   <v>       0.83333103       0.50000000      -0.00000000 </v>
   <v>       0.00000000       0.66666897      -0.00000000 </v>
   <v>      -0.00000000       0.83333104       0.16666893 </v>
   <v>       0.16666893       0.66666896       0.16666893 </v>
   <v>       0.16666893       0.83333104       0.00000000 </v>
   <v>       0.33333107       0.66666896      -0.00000000 </v>
   <v>       0.33333107       0.83333104       0.16666893 </v>
   <v>       0.50000000       0.66666896       0.16666893 </v>
   <v>       0.50000000       0.83333103       0.00000000 </v>
   <v>       0.66666896       0.66666896      -0.00000000 </v>
   <v>       0.66666896       0.83333104       0.16666893 </v>
   <v>       0.83333104       0.66666896       0.16666893 </v>
   <v>       0.83333104       0.83333104      -0.00000000 </v>
   <v>       0.00000000       0.00000000       0.33333106 </v>
   <v>      -0.00000000       0.16666894       0.50000000 </v>
   <v>       0.16666894      -0.00000000       0.50000000 </v>
   <v>       0.16666893       0.16666893       0.33333107 </v>
   <v>       0.33333107       0.00000000       0.33333107 </v>
   <v>       0.33333107       0.16666893       0.50000000 </v>
   <v>       0.50000000      -0.00000000       0.50000000 </v>
   <v>       0.50000000       0.16666893       0.33333107 </v>
   <v>       0.66666896       0.00000000       0.33333107 </v>
   <v>       0.66666896       0.16666893       0.50000000 </v>
   <v>       0.83333103      -0.00000000       0.50000000 </v>
   <v>       0.83333104       0.16666893       0.33333107 </v>
   <v>       0.00000000       0.33333107       0.33333107 </v>
   <v>       0.00000000       0.50000000       0.50000000 </v>
   <v>       0.16666893       0.33333107       0.50000000 </v>
   <v>       0.16666893       0.50000000       0.33333107 </v>
   <v>       0.33333107       0.33333107       0.33333107 </v>
   <v>       0.33333106       0.50000000       0.50000000 </v>
   <v>       0.50000000       0.33333106       0.50000000 </v>
   <v>       0.50000000       0.50000000       0.33333106 </v>
   <v>       0.66666896       0.33333107       0.33333107 </v>
   <v>       0.66666897       0.50000000       0.50000000 </v>
   <v>       0.83333104       0.33333107       0.50000000 </v>
   <v>       0.83333104       0.50000000       0.33333107 </v>
   <v>       0.00000000       0.66666896       0.33333107 </v>
   <v>      -0.00000000       0.83333103       0.50000000 </v>
   <v>       0.16666893       0.66666896       0.50000000 </v>
   <v>       0.16666893       0.83333104       0.33333107 </v>
   <v>       0.33333107       0.66666896       0.33333107 </v>
   <v>       0.33333107       0.83333104       0.50000000 </v>
   <v>       0.50000000       0.66666897       0.50000000 </v>
   <v>       0.50000000       0.83333104       0.33333107 </v>
   <v>       0.66666896       0.66666896       0.33333107 </v>
   <v>       0.66666896       0.83333104       0.50000000 </v>
   <v>       0.83333104       0.66666896       0.50000000 </v>
   <v>       0.83333104       0.83333104       0.33333107 </v>
   <v>       0.00000000       0.00000000       0.66666897 </v>
   <v>      -0.00000000       0.16666893       0.83333104 </v>
   <v>       0.16666893      -0.00000000       0.83333104 </v>
   <v>       0.16666893       0.16666893       0.66666896 </v>
   <v>       0.33333107      -0.00000000       0.66666896 </v>
   <v>       0.33333107       0.16666893       0.83333104 </v>
   <v>       0.50000000      -0.00000000       0.83333103 </v>
   <v>       0.50000000       0.16666893       0.66666896 </v>
   <v>       0.66666896       0.00000000       0.66666896 </v>
   <v>       0.66666896       0.16666893       0.83333104 </v>
   <v>       0.83333104      -0.00000000       0.83333104 </v>
   <v>       0.83333104       0.16666893       0.66666896 </v>
   <v>       0.00000000       0.33333107       0.66666896 </v>
   <v>      -0.00000000       0.50000000       0.83333103 </v>
   <v>       0.16666893       0.33333107       0.83333104 </v>
   <v>       0.16666893       0.50000000       0.66666896 </v>
   <v>       0.33333107       0.33333107       0.66666896 </v>
   <v>       0.33333107       0.50000000       0.83333104 </v>
   <v>       0.50000000       0.33333107       0.83333104 </v>
   <v>       0.50000000       0.50000000       0.66666897 </v>
   <v>       0.66666896       0.33333107       0.66666896 </v>
   <v>       0.66666896       0.50000000       0.83333104 </v>
   <v>       0.83333104       0.33333107       0.83333104 </v>
   <v>       0.83333104       0.50000000       0.66666896 </v>
   <v>       0.00000000       0.66666896       0.66666896 </v>
   <v>      -0.00000000       0.83333104       0.83333104 </v>
   <v>       0.16666893       0.66666896       0.83333104 </v>
   <v>       0.16666893       0.83333104       0.66666896 </v>
   <v>       0.33333107       0.66666896       0.66666896 </v>
   <v>       0.33333107       0.83333104       0.83333104 </v>
   <v>       0.50000000       0.66666896       0.83333104 </v>
   <v>       0.50000000       0.83333104       0.66666896 </v>
   <v>       0.66666896       0.66666896       0.66666896 </v>
   <v>       0.66666896       0.83333104       0.83333104 </v>
   <v>       0.83333104       0.66666896       0.83333104 </v>
   <v>       0.83333104       0.83333104       0.66666896 </v>
  </varray>
 </structure>
</modeling>
