       N       E                     dE             d eps       ncg     rms          rms(c)
DAV:   1     0.359487468070E+04    0.35949E+04   -0.20035E+05  4176   0.899E+02
DAV:   2    -0.586580754717E+03   -0.41815E+04   -0.39486E+04  4144   0.276E+02
DAV:   3    -0.101073639556E+04   -0.42416E+03   -0.39791E+03  6312   0.823E+01
DAV:   4    -0.104582519956E+04   -0.35089E+02   -0.33190E+02  5984   0.237E+01
DAV:   5    -0.104749823620E+04   -0.16730E+01   -0.16019E+01  5912   0.425E+00    0.104E+02
RMM:   6    -0.830012714515E+03    0.21749E+03   -0.16466E+03  4151   0.784E+01    0.494E+00
RMM:   7    -0.832459909235E+03   -0.24472E+01   -0.69601E+01  4450   0.103E+01    0.417E+00
RMM:   8    -0.832421295370E+03    0.38614E-01   -0.37708E+00  4871   0.197E+00    0.358E+00
RMM:   9    -0.831807206727E+03    0.61409E+00   -0.12021E+00  4329   0.213E+00    0.382E+00
RMM:  10    -0.831644259365E+03    0.16295E+00   -0.53163E-01  4484   0.119E+00    0.276E+00
RMM:  11    -0.831511394824E+03    0.13286E+00   -0.85921E-01  4209   0.178E+00    0.139E+00
RMM:  12    -0.831504777847E+03    0.66170E-02   -0.87887E-02  5004   0.246E-01    0.113E+00
RMM:  13    -0.831490134220E+03    0.14644E-01   -0.43185E-02  4409   0.356E-01    0.515E-01
RMM:  14    -0.831488448022E+03    0.16862E-02   -0.28617E-02  4578   0.242E-01    0.688E-02
RMM:  15    -0.831489022813E+03   -0.57479E-03   -0.52758E-03  5314   0.417E-02    0.239E-02
RMM:  16    -0.831488988332E+03    0.34480E-04   -0.10303E-04  4814   0.169E-02    0.143E-02
RMM:  17    -0.831489003731E+03   -0.15399E-04    0.56296E-06  4827   0.948E-03    0.510E-03
RMM:  18    -0.831488988929E+03    0.14802E-04    0.82666E-05  4652   0.544E-03    0.435E-03
RMM:  19    -0.831488985857E+03    0.30715E-05    0.57987E-05  2941   0.123E-03    0.307E-03
RMM:  20    -0.831488980441E+03    0.54160E-05    0.75767E-05  2526   0.114E-03    0.136E-03
RMM:  21    -0.831488975733E+03    0.47081E-05    0.48361E-05  2074   0.694E-04    0.124E-03
RMM:  22    -0.831488970161E+03    0.55719E-05    0.60723E-05  2472   0.134E-03    0.579E-04
RMM:  23    -0.831488965975E+03    0.41868E-05    0.40459E-05  2276   0.766E-04    0.125E-04
RMM:  24    -0.831488960999E+03    0.49753E-05    0.49949E-05  1686   0.552E-04    0.451E-04
RMM:  25    -0.831488957384E+03    0.36152E-05    0.34383E-05  1639   0.461E-04    0.168E-04
RMM:  26    -0.831488953176E+03    0.42077E-05    0.41178E-05  1253   0.331E-04    0.180E-04
RMM:  27    -0.831488950162E+03    0.30148E-05    0.29321E-05  1041   0.280E-04    0.120E-04
RMM:  28    -0.831488946658E+03    0.35034E-05    0.34078E-05   991   0.292E-04    0.141E-05
RMM:  29    -0.831488943642E+03    0.30165E-05    0.29500E-05   896   0.301E-04    0.462E-05
RMM:  30    -0.831488940752E+03    0.28900E-05    0.28294E-05   757   0.283E-04    0.502E-05
RMM:  31    -0.831488938117E+03    0.26343E-05    0.25818E-05   740   0.279E-04    0.609E-05
RMM:  32    -0.831488935753E+03    0.23645E-05    0.23047E-05   674   0.272E-04    0.633E-05
RMM:  33    -0.831488933998E+03    0.17549E-05    0.17320E-05   644   0.262E-04    0.537E-05
RMM:  34    -0.831488932114E+03    0.18842E-05    0.18642E-05   631   0.252E-04    0.415E-05
RMM:  35    -0.831488930620E+03    0.14935E-05    0.14624E-05   609   0.247E-04    0.376E-05
RMM:  36    -0.831488929044E+03    0.15764E-05    0.15512E-05   585   0.243E-04    0.330E-05
RMM:  37    -0.831488927783E+03    0.12613E-05    0.12396E-05   572   0.238E-04    0.259E-05
RMM:  38    -0.831488926473E+03    0.13096E-05    0.12928E-05   562   0.234E-04    0.177E-05
RMM:  39    -0.831488925407E+03    0.10656E-05    0.10483E-05   549   0.232E-04    0.120E-05
RMM:  40    -0.831488924316E+03    0.10916E-05    0.10766E-05   540   0.230E-04    0.738E-06
RMM:  41    -0.831488923419E+03    0.89724E-06    0.88383E-06   520   0.229E-04
   1 F= -.83148892E+03 E0= -.83147267E+03  d E =-.831489E+03
       N       E                     dE             d eps       ncg     rms          rms(c)
