 vasp.5.4.4.18Apr17-6-g9f103f2a35 (build Aug 17 2017 06:00:38) complex          
  
 executed on             LinuxIFC date 2019.07.12  14:57:58
 running on    8 total cores
 distrk:  each k-point on    8 cores,    1 groups
 distr:  one band on NCORES_PER_BAND=   4 cores,    2 groups


--------------------------------------------------------------------------------------------------------


 INCAR:
 POTCAR:   PAW_PBE Fe 06Sep2000                   
 POTCAR:   PAW_PBE Fe 06Sep2000                   
   VRHFIN =Fe:  d7 s1                                                           
   LEXCH  = PE                                                                  
   EATOM  =   594.4687 eV,   43.6922 Ry                                         
                                                                                
   TITEL  = PAW_PBE Fe 06Sep2000                                                
   LULTRA =        F    use ultrasoft PP ?                                      
   IUNSCR =        1    unscreen: 0-lin 1-nonlin 2-no                           
   RPACOR =    2.000    partial core radius                                     
   POMASS =   55.847; ZVAL   =    8.000    mass and valenz                      
   RCORE  =    2.300    outmost cutoff radius                                   
   RWIGS  =    2.460; RWIGS  =    1.302    wigner-seitz radius (au A)           
   ENMAX  =  267.883; ENMIN  =  200.912 eV                                      
   RCLOC  =    1.701    cutoff for local pot                                    
   LCOR   =        T    correct aug charges                                     
   LPAW   =        T    paw PP                                                  
   EAUG   =  511.368                                                            
   DEXC   =    -.022                                                            
   RMAX   =    2.817    core radius for proj-oper                               
   RAUG   =    1.300    factor for augmentation sphere                          
   RDEP   =    2.442    radius for radial grids                                 
   QCUT   =   -4.437; QGAM   =    8.874    optimization parameters              
                                                                                
   Description                                                                  
     l     E      TYP  RCUT    TYP  RCUT                                        
     2   .000     23  2.300                                                     
     2   .000     23  2.300                                                     
     0   .000     23  2.300                                                     
     0   .000     23  2.300                                                     
     1  -.200     23  2.300                                                     
     1   .000     23  2.300                                                     
     3   .000      7   .000                                                     
  local pseudopotential read in
  partial core-charges read in
  atomic valenz-charges read in
  non local Contribution for L=           2  read in
    real space projection operators read in
  non local Contribution for L=           2  read in
    real space projection operators read in
  non local Contribution for L=           0  read in
    real space projection operators read in
  non local Contribution for L=           0  read in
    real space projection operators read in
  non local Contribution for L=           1  read in
    real space projection operators read in
  non local Contribution for L=           1  read in
    real space projection operators read in
    PAW grid and wavefunctions read in
 
   number of l-projection  operators is LMAX  =           6
   number of lm-projection operators is LMMAX =          18
 
 Optimization of the real space projectors (new method)

 maximal supplied QI-value         = 16.25
 optimisation between [QCUT,QGAM] = [  7.15, 14.46] = [ 14.32, 58.58] Ry 
 Optimized for a Real-space Cutoff    1.84 Angstroem

   l    n(q)    QCUT    max X(q) W(low)/X(q) W(high)/X(q)  e(spline) 
   2      7     7.151     4.378    0.31E-04    0.51E-04    0.89E-07
   2      7     7.151    20.456    0.48E-03    0.83E-04    0.24E-06
   0      8     7.151    17.641    0.22E-04    0.16E-05    0.85E-08
   0      8     7.151    50.908    0.17E-03    0.21E-03    0.10E-06
   1      7     7.151     6.148    0.27E-04    0.57E-04    0.28E-07
   1      7     7.151     8.345    0.84E-04    0.19E-03    0.20E-06
 PAW_PBE Fe 06Sep2000                   :
 energy of atom  1       EATOM= -594.4687
 kinetic energy error for atom=    0.6672 (will be added to EATOM!!)
 
 
 POSCAR: fcc_Fe_CON_333                          
  positions in direct lattice
  velocities in cartesian coordinates
 exchange correlation table for  LEXCH =        8
   RHO(1)=    0.500       N(1)  =     2000
   RHO(2)=  100.500       N(2)  =     4000
 


--------------------------------------------------------------------------------------------------------


 ion  position               nearest neighbor table
   1  0.000  0.000  0.000-   2 2.44   3 2.44   4 2.44  11 2.44  12 2.44  26 2.44  28 2.44  74 2.44
                            75 2.44  36 2.44  83 2.44  98 2.44
   2  0.000  0.167  0.167-  49 2.44  37 2.44  13 2.44  40 2.44  15 2.44  48 2.44  23 2.44   3 2.44
                             4 2.44   1 2.44  12 2.44  11 2.44
   3  0.167  0.000  0.167-  41 2.44  37 2.44   5 2.44  40 2.44   6 2.44  30 2.44  64 2.44   2 2.44
                             4 2.44   1 2.44  28 2.44  26 2.44
   4  0.167  0.167  0.000-  17 2.44  13 2.44   5 2.44  15 2.44   6 2.44  78 2.44  87 2.44   2 2.44
                             3 2.44   1 2.44  74 2.44  75 2.44
   5  0.333  0.000  0.000-   3 2.44   4 2.44  28 2.44  75 2.44   6 2.44   7 2.44   8 2.44  30 2.44
                            78 2.44  32 2.44  79 2.44 102 2.44
   6  0.333  0.167  0.167-  15 2.44  40 2.44  53 2.44  17 2.44  19 2.44   4 2.44  41 2.44  44 2.44
                             3 2.44   7 2.44   8 2.44   5 2.44
   7  0.500  0.000  0.167-  41 2.44  44 2.44  45 2.44  68 2.44   6 2.44   5 2.44   8 2.44  10 2.44
                            30 2.44   9 2.44  32 2.44  34 2.44
   8  0.500  0.167  0.000-  17 2.44  19 2.44  21 2.44  91 2.44   6 2.44   5 2.44   7 2.44  78 2.44
                            10 2.44  79 2.44   9 2.44  82 2.44
   9  0.667  0.000  0.000-  11 2.44  12 2.44  36 2.44  83 2.44  10 2.44  82 2.44  34 2.44   8 2.44
                             7 2.44 106 2.44  79 2.44  32 2.44
  10  0.667  0.167  0.167-  23 2.44  48 2.44  57 2.44  12 2.44  11 2.44  21 2.44  45 2.44  44 2.44
                            19 2.44   9 2.44   7 2.44   8 2.44
  11  0.833  0.000  0.167-  45 2.44   9 2.44  10 2.44  34 2.44  48 2.44  37 2.44  72 2.44  12 2.44
                             2 2.44  36 2.44   1 2.44  26 2.44
  12  0.833  0.167  0.000-  21 2.44   9 2.44  10 2.44  82 2.44  23 2.44  13 2.44  95 2.44  11 2.44
                             1 2.44  83 2.44   2 2.44  74 2.44
  13  0.000  0.333  0.000-   2 2.44   4 2.44  12 2.44  74 2.44  15 2.44  16 2.44  14 2.44  23 2.44
                            87 2.44  86 2.44  24 2.44  95 2.44
  14  0.000  0.500  0.167-  49 2.44  52 2.44  60 2.44  61 2.44  15 2.44  13 2.44  16 2.44  23 2.44
                            27 2.44  25 2.44  24 2.44  35 2.44
  15  0.167  0.333  0.167-   6 2.44  40 2.44  53 2.44  17 2.44  18 2.44   4 2.44  49 2.44  52 2.44
                             2 2.44  13 2.44  14 2.44  16 2.44
  16  0.167  0.500  0.000-  17 2.44  18 2.44  29 2.44  90 2.44  15 2.44  14 2.44  13 2.44  87 2.44
                            27 2.44  25 2.44  86 2.44  99 2.44
  17  0.333  0.333  0.000-   4 2.44   8 2.44  16 2.44  15 2.44   6 2.44  78 2.44  87 2.44  20 2.44
                            18 2.44  19 2.44  90 2.44  91 2.44
  18  0.333  0.500  0.167-  52 2.44  16 2.44  56 2.44  53 2.44  15 2.44  27 2.44  65 2.44  20 2.44
                            17 2.44  19 2.44  29 2.44  31 2.44
  19  0.500  0.333  0.167-  44 2.44   8 2.44  56 2.44  53 2.44   6 2.44  10 2.44  57 2.44  18 2.44
                            20 2.44  17 2.44  21 2.44  22 2.44
  20  0.500  0.500  0.000-  17 2.44  18 2.44  19 2.44  21 2.44  22 2.44  29 2.44  31 2.44  90 2.44
                            91 2.44  33 2.44  94 2.44 103 2.44
  21  0.667  0.333  0.000-  12 2.44  24 2.44  23 2.44  95 2.44  10 2.44   8 2.44  82 2.44  22 2.44
                            20 2.44  94 2.44  19 2.44  91 2.44
  22  0.667  0.500  0.167-  60 2.44  24 2.44  23 2.44  35 2.44  57 2.44  56 2.44  69 2.44  21 2.44
                            33 2.44  20 2.44  19 2.44  31 2.44
  23  0.833  0.333  0.167-  10 2.44  57 2.44  48 2.44  21 2.44  22 2.44  12 2.44  60 2.44   2 2.44
                            49 2.44  24 2.44  14 2.44  13 2.44
  24  0.833  0.500  0.000-  21 2.44  22 2.44  33 2.44  94 2.44  23 2.44  35 2.44  95 2.44  14 2.44
                            13 2.44 107 2.44  86 2.44  25 2.44
  25  0.000  0.667  0.000-  26 2.44  28 2.44  36 2.44  98 2.44  27 2.44  35 2.44  99 2.44  16 2.44
                            14 2.44 107 2.44  86 2.44  24 2.44
  26  0.000  0.833  0.167-  61 2.44  25 2.44  27 2.44  35 2.44  64 2.44  37 2.44  72 2.44  28 2.44
                             3 2.44  36 2.44   1 2.44  11 2.44
  27  0.167  0.667  0.167-  30 2.44  64 2.44  65 2.44  28 2.44  26 2.44  29 2.44  61 2.44  52 2.44
                            18 2.44  25 2.44  14 2.44  16 2.44
  28  0.167  0.833  0.000-  29 2.44  25 2.44  27 2.44  99 2.44  30 2.44   5 2.44 102 2.44  26 2.44
                            98 2.44   1 2.44   3 2.44  75 2.44
  29  0.333  0.667  0.000-  28 2.44  32 2.44  30 2.44 102 2.44  27 2.44  16 2.44  99 2.44  31 2.44
                            20 2.44  18 2.44 103 2.44  90 2.44
  30  0.333  0.833  0.167-  27 2.44  65 2.44  64 2.44  29 2.44  31 2.44  28 2.44  68 2.44  41 2.44
                             3 2.44  32 2.44   7 2.44   5 2.44
  31  0.500  0.667  0.167-  68 2.44  32 2.44  30 2.44  34 2.44  65 2.44  56 2.44  69 2.44  29 2.44
                            33 2.44  20 2.44  18 2.44  22 2.44
  32  0.500  0.833  0.000-  29 2.44  31 2.44  33 2.44 103 2.44  30 2.44 102 2.44  34 2.44   7 2.44
                             5 2.44 106 2.44  79 2.44   9 2.44
  33  0.667  0.667  0.000-  36 2.44  35 2.44  34 2.44  32 2.44  24 2.44 106 2.44 107 2.44  22 2.44
                            31 2.44 103 2.44  20 2.44  94 2.44
  34  0.667  0.833  0.167-  35 2.44  69 2.44  72 2.44  33 2.44  36 2.44  31 2.44  11 2.44  45 2.44
                            68 2.44  32 2.44   9 2.44   7 2.44
  35  0.833  0.667  0.167-  34 2.44  69 2.44  72 2.44  33 2.44  36 2.44  26 2.44  22 2.44  60 2.44
                            61 2.44  24 2.44  25 2.44  14 2.44
  36  0.833  0.833  0.000-  33 2.44  34 2.44  35 2.44  25 2.44   9 2.44 106 2.44 107 2.44  26 2.44
                            11 2.44  98 2.44   1 2.44  83 2.44
  37  0.000  0.000  0.333-   2 2.44   3 2.44  11 2.44  26 2.44  40 2.44  39 2.44  38 2.44  48 2.44
                            64 2.44  62 2.44  47 2.44  72 2.44
  38  0.000  0.167  0.500-  49 2.44  51 2.44  59 2.44  85 2.44  40 2.44  39 2.44  37 2.44  76 2.44
                            48 2.44  47 2.44  73 2.44  84 2.44
  39  0.167  0.000  0.500-  41 2.44  42 2.44  66 2.44  77 2.44  40 2.44  38 2.44  37 2.44  76 2.44
                            64 2.44  62 2.44  73 2.44 100 2.44
  40  0.167  0.167  0.333-   6 2.44  15 2.44  53 2.44   3 2.44  41 2.44  42 2.44  49 2.44  51 2.44
                             2 2.44  39 2.44  37 2.44  38 2.44
  41  0.333  0.000  0.333-   3 2.44   7 2.44  39 2.44   6 2.44  40 2.44  30 2.44  64 2.44  43 2.44
                            44 2.44  42 2.44  66 2.44  68 2.44
  42  0.333  0.167  0.500-  51 2.44  39 2.44  55 2.44  53 2.44  40 2.44  76 2.44  89 2.44  44 2.44
                            41 2.44  43 2.44  80 2.44  77 2.44
  43  0.500  0.000  0.500-  41 2.44  42 2.44  44 2.44  45 2.44  46 2.44  66 2.44  68 2.44  77 2.44
                            80 2.44  70 2.44  81 2.44 104 2.44
  44  0.500  0.167  0.333-  19 2.44   7 2.44  55 2.44  53 2.44   6 2.44  10 2.44  57 2.44  41 2.44
                            42 2.44  43 2.44  46 2.44  45 2.44
  45  0.667  0.000  0.333-  11 2.44  47 2.44  48 2.44  72 2.44  10 2.44   7 2.44  34 2.44  46 2.44
                            43 2.44  70 2.44  44 2.44  68 2.44
  46  0.667  0.167  0.500-  59 2.44  47 2.44  48 2.44  84 2.44  57 2.44  55 2.44  93 2.44  45 2.44
                            81 2.44  43 2.44  44 2.44  80 2.44
  47  0.833  0.000  0.500-  45 2.44  46 2.44  70 2.44  81 2.44  48 2.44  72 2.44  84 2.44  38 2.44
                            37 2.44 108 2.44  73 2.44  62 2.44
  48  0.833  0.167  0.333-  10 2.44  57 2.44  23 2.44  46 2.44  45 2.44  11 2.44  59 2.44   2 2.44
                            49 2.44  47 2.44  37 2.44  38 2.44
  49  0.000  0.333  0.333-   2 2.44  14 2.44  38 2.44  15 2.44  40 2.44  23 2.44  48 2.44  50 2.44
                            51 2.44  52 2.44  59 2.44  60 2.44
  50  0.000  0.500  0.500-  49 2.44  51 2.44  52 2.44  59 2.44  60 2.44  61 2.44  63 2.44  85 2.44
                            88 2.44  71 2.44  96 2.44  97 2.44
  51  0.167  0.333  0.500-  42 2.44  38 2.44  54 2.44  53 2.44  40 2.44  76 2.44  89 2.44  50 2.44
                            52 2.44  49 2.44  88 2.44  85 2.44
  52  0.167  0.500  0.333-  18 2.44  14 2.44  54 2.44  53 2.44  15 2.44  27 2.44  65 2.44  49 2.44
                            50 2.44  51 2.44  63 2.44  61 2.44
  53  0.333  0.333  0.333-   6 2.44  15 2.44  40 2.44  19 2.44  18 2.44  42 2.44  44 2.44  51 2.44
                            52 2.44  54 2.44  55 2.44  56 2.44
  54  0.333  0.500  0.500-  51 2.44  52 2.44  63 2.44  88 2.44  53 2.44  55 2.44  56 2.44  65 2.44
                            89 2.44  67 2.44  92 2.44 101 2.44
  55  0.500  0.333  0.500-  42 2.44  44 2.44  46 2.44  80 2.44  53 2.44  56 2.44  54 2.44  57 2.44
                            89 2.44  58 2.44  92 2.44  93 2.44
  56  0.500  0.500  0.333-  18 2.44  19 2.44  22 2.44  31 2.44  53 2.44  54 2.44  55 2.44  57 2.44
                            65 2.44  58 2.44  67 2.44  69 2.44
  57  0.667  0.333  0.333-  23 2.44  48 2.44  10 2.44  59 2.44  60 2.44  46 2.44  22 2.44  19 2.44
                            44 2.44  58 2.44  56 2.44  55 2.44
  58  0.667  0.500  0.500-  59 2.44  60 2.44  71 2.44  96 2.44  57 2.44  93 2.44  69 2.44  56 2.44
                            55 2.44 105 2.44  92 2.44  67 2.44
  59  0.833  0.333  0.500-  46 2.44  58 2.44  57 2.44  93 2.44  48 2.44  38 2.44  84 2.44  60 2.44
                            50 2.44  49 2.44  96 2.44  85 2.44
  60  0.833  0.500  0.333-  22 2.44  58 2.44  57 2.44  69 2.44  23 2.44  14 2.44  35 2.44  59 2.44
                            49 2.44  50 2.44  71 2.44  61 2.44
  61  0.000  0.667  0.333-  26 2.44  62 2.44  64 2.44  72 2.44  27 2.44  14 2.44  35 2.44  63 2.44
                            50 2.44  71 2.44  52 2.44  60 2.44
  62  0.000  0.833  0.500-  61 2.44  63 2.44  71 2.44  97 2.44  64 2.44  72 2.44 100 2.44  39 2.44
                            37 2.44 108 2.44  73 2.44  47 2.44
  63  0.167  0.667  0.500-  66 2.44  62 2.44  64 2.44 100 2.44  65 2.44  54 2.44 101 2.44  61 2.44
                            97 2.44  50 2.44  52 2.44  88 2.44
  64  0.167  0.833  0.333-  27 2.44  65 2.44  30 2.44  63 2.44  61 2.44  26 2.44  66 2.44   3 2.44
                            41 2.44  62 2.44  37 2.44  39 2.44
  65  0.333  0.667  0.333-  30 2.44  64 2.44  27 2.44  66 2.44  68 2.44  63 2.44  31 2.44  18 2.44
                            52 2.44  67 2.44  56 2.44  54 2.44
  66  0.333  0.833  0.500-  63 2.44  67 2.44  65 2.44 101 2.44  64 2.44  39 2.44 100 2.44  68 2.44
                            43 2.44  41 2.44 104 2.44  77 2.44
  67  0.500  0.667  0.500-  66 2.44  68 2.44  70 2.44 104 2.44  65 2.44 101 2.44  69 2.44  56 2.44
                            54 2.44 105 2.44  92 2.44  58 2.44
  68  0.500  0.833  0.333-  31 2.44  67 2.44  65 2.44  69 2.44  30 2.44   7 2.44  34 2.44  66 2.44
                            41 2.44  43 2.44  70 2.44  45 2.44
  69  0.667  0.667  0.333-  72 2.44  35 2.44  34 2.44  71 2.44  70 2.44  68 2.44  60 2.44  31 2.44
                            22 2.44  58 2.44  67 2.44  56 2.44
  70  0.667  0.833  0.500-  71 2.44  69 2.44  72 2.44  67 2.44  47 2.44 105 2.44 108 2.44  68 2.44
                            45 2.44 104 2.44  43 2.44  81 2.44
  71  0.833  0.667  0.500-  70 2.44  69 2.44  72 2.44  62 2.44  58 2.44 105 2.44 108 2.44  60 2.44
                            61 2.44  97 2.44  50 2.44  96 2.44
  72  0.833  0.833  0.333-  69 2.44  35 2.44  34 2.44  70 2.44  71 2.44  61 2.44  45 2.44  26 2.44
                            11 2.44  62 2.44  47 2.44  37 2.44
  73  0.000  0.000  0.667-  74 2.44  75 2.44  83 2.44  98 2.44  76 2.44  84 2.44 100 2.44  39 2.44
                            38 2.44 108 2.44  47 2.44  62 2.44
  74  0.000  0.167  0.833-  85 2.44  73 2.44  76 2.44  84 2.44  87 2.44  13 2.44  95 2.44  75 2.44
                             4 2.44  83 2.44   1 2.44  12 2.44
  75  0.167  0.000  0.833-  77 2.44  73 2.44  76 2.44 100 2.44  78 2.44   5 2.44 102 2.44  74 2.44
                            98 2.44   1 2.44   4 2.44  28 2.44
  76  0.167  0.167  0.667-  78 2.44  87 2.44  89 2.44  75 2.44  74 2.44  77 2.44  85 2.44  51 2.44
                            42 2.44  73 2.44  38 2.44  39 2.44
  77  0.333  0.000  0.667-  75 2.44  79 2.44  78 2.44 102 2.44  76 2.44  39 2.44 100 2.44  80 2.44
                            43 2.44  42 2.44 104 2.44  66 2.44
  78  0.333  0.167  0.833-  76 2.44  89 2.44  87 2.44  77 2.44  80 2.44  75 2.44  91 2.44  17 2.44
                             4 2.44  79 2.44   8 2.44   5 2.44
  79  0.500  0.000  0.833-  77 2.44  80 2.44  81 2.44 104 2.44  78 2.44 102 2.44  82 2.44   8 2.44
                             5 2.44 106 2.44   9 2.44  32 2.44
  80  0.500  0.167  0.667-  91 2.44  79 2.44  78 2.44  82 2.44  89 2.44  55 2.44  93 2.44  77 2.44
                            43 2.44  81 2.44  42 2.44  46 2.44
  81  0.667  0.000  0.667-  83 2.44  82 2.44  84 2.44  79 2.44  47 2.44 106 2.44 108 2.44  80 2.44
                            46 2.44 104 2.44  70 2.44  43 2.44
  82  0.667  0.167  0.833-  84 2.44  93 2.44  95 2.44  83 2.44  81 2.44  80 2.44  12 2.44  21 2.44
                            91 2.44  79 2.44   9 2.44   8 2.44
  83  0.833  0.000  0.833-  81 2.44  82 2.44  84 2.44  73 2.44   9 2.44 106 2.44 108 2.44  74 2.44
                            12 2.44  98 2.44  36 2.44   1 2.44
  84  0.833  0.167  0.667-  82 2.44  93 2.44  95 2.44  81 2.44  83 2.44  74 2.44  46 2.44  59 2.44
                            85 2.44  73 2.44  47 2.44  38 2.44
  85  0.000  0.333  0.667-  74 2.44  86 2.44  87 2.44  95 2.44  76 2.44  38 2.44  84 2.44  88 2.44
                            51 2.44  50 2.44  96 2.44  59 2.44
  86  0.000  0.500  0.833-  85 2.44  88 2.44  96 2.44  97 2.44  87 2.44  95 2.44  99 2.44  16 2.44
                            13 2.44 107 2.44  24 2.44  25 2.44
  87  0.167  0.333  0.833-  76 2.44  89 2.44  78 2.44  88 2.44  85 2.44  74 2.44  90 2.44  17 2.44
                             4 2.44  86 2.44  16 2.44  13 2.44
  88  0.167  0.500  0.667-  90 2.44  86 2.44  87 2.44  99 2.44  89 2.44  54 2.44 101 2.44  85 2.44
                            97 2.44  50 2.44  51 2.44  63 2.44
  89  0.333  0.333  0.667-  78 2.44  87 2.44  76 2.44  90 2.44  91 2.44  80 2.44  88 2.44  51 2.44
                            42 2.44  92 2.44  54 2.44  55 2.44
  90  0.333  0.500  0.833-  88 2.44  92 2.44  89 2.44 101 2.44  87 2.44  16 2.44  99 2.44  91 2.44
                            20 2.44  17 2.44 103 2.44  29 2.44
  91  0.500  0.333  0.833-  80 2.44  92 2.44  89 2.44  93 2.44  78 2.44   8 2.44  82 2.44  90 2.44
                            20 2.44  17 2.44  94 2.44  21 2.44
  92  0.500  0.500  0.667-  90 2.44  91 2.44  94 2.44 103 2.44  89 2.44 101 2.44  93 2.44  55 2.44
                            54 2.44 105 2.44  58 2.44  67 2.44
  93  0.667  0.333  0.667-  95 2.44  84 2.44  82 2.44  94 2.44  96 2.44  91 2.44  59 2.44  46 2.44
                            80 2.44  92 2.44  58 2.44  55 2.44
  94  0.667  0.500  0.833-  96 2.44  95 2.44  93 2.44  92 2.44  24 2.44 105 2.44 107 2.44  21 2.44
                            91 2.44 103 2.44  33 2.44  20 2.44
  95  0.833  0.333  0.833-  93 2.44  84 2.44  82 2.44  94 2.44  96 2.44  85 2.44  21 2.44  12 2.44
                            74 2.44  86 2.44  24 2.44  13 2.44
  96  0.833  0.500  0.667-  94 2.44  93 2.44  95 2.44  86 2.44  58 2.44 105 2.44 107 2.44  59 2.44
                            85 2.44  97 2.44  71 2.44  50 2.44
  97  0.000  0.667  0.667-  98 2.44  99 2.44 100 2.44  86 2.44  62 2.44 107 2.44 108 2.44  88 2.44
                            63 2.44  96 2.44  50 2.44  71 2.44
  98  0.000  0.833  0.833-  97 2.44  99 2.44 100 2.44  73 2.44  25 2.44 107 2.44 108 2.44  75 2.44
                            28 2.44  83 2.44   1 2.44  36 2.44
  99  0.167  0.667  0.833- 100 2.44 101 2.44 102 2.44  98 2.44  97 2.44  88 2.44  28 2.44  90 2.44
                            29 2.44  86 2.44  25 2.44  16 2.44
 100  0.167  0.833  0.667-  99 2.44 101 2.44 102 2.44  98 2.44  97 2.44  75 2.44  63 2.44  77 2.44
                            66 2.44  73 2.44  62 2.44  39 2.44
 101  0.333  0.667  0.667- 102 2.44 100 2.44  99 2.44 103 2.44 104 2.44  90 2.44  66 2.44  63 2.44
                            88 2.44  92 2.44  67 2.44  54 2.44
 102  0.333  0.833  0.833- 101 2.44 100 2.44  99 2.44 103 2.44 104 2.44  77 2.44  29 2.44  28 2.44
                            75 2.44  79 2.44  32 2.44   5 2.44
 103  0.500  0.667  0.833- 104 2.44 102 2.44 101 2.44  92 2.44  32 2.44 105 2.44 106 2.44  29 2.44
                            90 2.44  94 2.44  20 2.44  33 2.44
 104  0.500  0.833  0.667- 103 2.44 102 2.44 101 2.44  79 2.44  67 2.44 105 2.44 106 2.44  66 2.44
                            77 2.44  81 2.44  43 2.44  70 2.44
 105  0.667  0.667  0.667- 106 2.44 107 2.44 108 2.44  96 2.44 103 2.44 104 2.44  70 2.44  71 2.44
                            94 2.44  67 2.44  92 2.44  58 2.44
 106  0.667  0.833  0.833- 105 2.44 107 2.44 108 2.44  83 2.44 103 2.44 104 2.44  33 2.44  36 2.44
                            81 2.44  32 2.44  79 2.44   9 2.44
 107  0.833  0.667  0.833- 105 2.44 106 2.44 108 2.44  96 2.44  97 2.44  98 2.44  33 2.44  36 2.44
                            94 2.44  25 2.44  86 2.44  24 2.44
 108  0.833  0.833  0.667- 105 2.44 106 2.44 107 2.44  83 2.44  97 2.44  98 2.44  70 2.44  71 2.44
                            81 2.44  62 2.44  73 2.44  47 2.44
 
  LATTYP: Found a simple cubic cell.
 ALAT       =    10.3348470474
  
  Lattice vectors:
  
 A1 = (  10.3348470474,   0.0000000000,   0.0000000000)
 A2 = (   0.0000000000,  10.3348470474,   0.0000000000)
 A3 = (   0.0000000000,   0.0000000000,  10.3348470474)


Analysis of symmetry for initial positions (statically):
=====================================================================
 Subroutine PRICEL returns following result:
 
  LATTYP: Found a simple cubic cell.
 ALAT       =     3.4449252899
  
  Lattice vectors:
  
 A1 = (   3.4449252899,   0.0000000000,   0.0000000000)
 A2 = (   0.0000000000,   3.4449252899,   0.0000000000)
 A3 = (   0.0000000000,   0.0000000000,   3.4449252443)
 
  27 primitive cells build up your supercell.
 

 Routine SETGRP: Setting up the symmetry group for a 
 simple cubic supercell.


 Subroutine GETGRP returns: Found 48 space group operations
 (whereof 48 operations were pure point group operations)
 out of a pool of 48 trial point group operations.


The static configuration has the point symmetry O_h .


Analysis of symmetry for dynamics (positions and initial velocities):
=====================================================================
 Subroutine PRICEL returns following result:
 
  LATTYP: Found a simple cubic cell.
 ALAT       =     3.4449252899
  
  Lattice vectors:
  
 A1 = (   3.4449252899,   0.0000000000,   0.0000000000)
 A2 = (   0.0000000000,   3.4449252899,   0.0000000000)
 A3 = (   0.0000000000,   0.0000000000,   3.4449252443)
 
  27 primitive cells build up your supercell.
 

 Routine SETGRP: Setting up the symmetry group for a 
 simple cubic supercell.


 Subroutine GETGRP returns: Found 48 space group operations
 (whereof 48 operations were pure point group operations)
 out of a pool of 48 trial point group operations.


The dynamic configuration has the point symmetry O_h .


 Subroutine INISYM returns: Found 48 space group operations
 (whereof 48 operations are pure point group operations),
 and found    27 'primitive' translations

 
 
 KPOINTS: pymatgen generated KPOINTS with grid den

Automatic generation of k-mesh.
Space group operators:
 irot       det(A)        alpha          n_x          n_y          n_z        tau_x        tau_y        tau_z
    1     1.000000     0.000000     1.000000     0.000000     0.000000     0.000000     0.000000     0.000000
    2    -1.000000     0.000000     1.000000     0.000000     0.000000     0.000000     0.000000     0.000000
    3     1.000000   120.000000    -0.577350    -0.577350    -0.577350     0.000000     0.000000     0.000000
    4    -1.000000   120.000000    -0.577350    -0.577350    -0.577350     0.000000     0.000000     0.000000
    5     1.000000   120.000000     0.577350     0.577350     0.577350     0.000000     0.000000     0.000000
    6    -1.000000   120.000000     0.577350     0.577350     0.577350     0.000000     0.000000     0.000000
    7     1.000000    90.000000     0.000000     0.000000    -1.000000     0.000000     0.000000     0.000000
    8    -1.000000    90.000000     0.000000     0.000000    -1.000000     0.000000     0.000000     0.000000
    9     1.000000   180.000000     0.000000     0.707107     0.707107     0.000000     0.000000     0.000000
   10    -1.000000   180.000000     0.000000     0.707107     0.707107     0.000000     0.000000     0.000000
   11     1.000000    90.000000     0.000000     1.000000     0.000000     0.000000     0.000000     0.000000
   12    -1.000000    90.000000     0.000000     1.000000     0.000000     0.000000     0.000000     0.000000
   13     1.000000   180.000000     0.000000     0.000000     1.000000     0.000000     0.000000     0.000000
   14    -1.000000   180.000000     0.000000     0.000000     1.000000     0.000000     0.000000     0.000000
   15     1.000000   120.000000    -0.577350     0.577350     0.577350     0.000000     0.000000     0.000000
   16    -1.000000   120.000000    -0.577350     0.577350     0.577350     0.000000     0.000000     0.000000
   17     1.000000   120.000000    -0.577350     0.577350    -0.577350     0.000000     0.000000     0.000000
   18    -1.000000   120.000000    -0.577350     0.577350    -0.577350     0.000000     0.000000     0.000000
   19     1.000000    90.000000     0.000000     0.000000     1.000000     0.000000     0.000000     0.000000
   20    -1.000000    90.000000     0.000000     0.000000     1.000000     0.000000     0.000000     0.000000
   21     1.000000    90.000000    -1.000000     0.000000     0.000000     0.000000     0.000000     0.000000
   22    -1.000000    90.000000    -1.000000     0.000000     0.000000     0.000000     0.000000     0.000000
   23     1.000000   180.000000     0.707107     0.000000     0.707107     0.000000     0.000000     0.000000
   24    -1.000000   180.000000     0.707107     0.000000     0.707107     0.000000     0.000000     0.000000
   25     1.000000   120.000000     0.577350    -0.577350     0.577350     0.000000     0.000000     0.000000
   26    -1.000000   120.000000     0.577350    -0.577350     0.577350     0.000000     0.000000     0.000000
   27     1.000000   120.000000    -0.577350    -0.577350     0.577350     0.000000     0.000000     0.000000
   28    -1.000000   120.000000    -0.577350    -0.577350     0.577350     0.000000     0.000000     0.000000
   29     1.000000   180.000000     1.000000     0.000000     0.000000     0.000000     0.000000     0.000000
   30    -1.000000   180.000000     1.000000     0.000000     0.000000     0.000000     0.000000     0.000000
   31     1.000000    90.000000     0.000000    -1.000000     0.000000     0.000000     0.000000     0.000000
   32    -1.000000    90.000000     0.000000    -1.000000     0.000000     0.000000     0.000000     0.000000
   33     1.000000   180.000000     0.707107     0.707107     0.000000     0.000000     0.000000     0.000000
   34    -1.000000   180.000000     0.707107     0.707107     0.000000     0.000000     0.000000     0.000000
   35     1.000000    90.000000     1.000000     0.000000     0.000000     0.000000     0.000000     0.000000
   36    -1.000000    90.000000     1.000000     0.000000     0.000000     0.000000     0.000000     0.000000
   37     1.000000   120.000000     0.577350    -0.577350    -0.577350     0.000000     0.000000     0.000000
   38    -1.000000   120.000000     0.577350    -0.577350    -0.577350     0.000000     0.000000     0.000000
   39     1.000000   180.000000     0.000000     1.000000     0.000000     0.000000     0.000000     0.000000
   40    -1.000000   180.000000     0.000000     1.000000     0.000000     0.000000     0.000000     0.000000
   41     1.000000   120.000000     0.577350     0.577350    -0.577350     0.000000     0.000000     0.000000
   42    -1.000000   120.000000     0.577350     0.577350    -0.577350     0.000000     0.000000     0.000000
   43     1.000000   180.000000     0.000000    -0.707107     0.707107     0.000000     0.000000     0.000000
   44    -1.000000   180.000000     0.000000    -0.707107     0.707107     0.000000     0.000000     0.000000
   45     1.000000   180.000000     0.707107    -0.707107     0.000000     0.000000     0.000000     0.000000
   46    -1.000000   180.000000     0.707107    -0.707107     0.000000     0.000000     0.000000     0.000000
   47     1.000000   180.000000     0.707107     0.000000    -0.707107     0.000000     0.000000     0.000000
   48    -1.000000   180.000000     0.707107     0.000000    -0.707107     0.000000     0.000000     0.000000
 
 Subroutine IBZKPT returns following result:
 ===========================================
 
 Found      4 irreducible k-points:
 
 Following reciprocal coordinates:
            Coordinates               Weight
  0.125000  0.125000  0.125000      8.000000
  0.375000  0.125000  0.125000     24.000000
  0.375000  0.375000  0.125000     24.000000
  0.375000  0.375000  0.375000      8.000000
 
 Following cartesian coordinates:
            Coordinates               Weight
  0.012095  0.012095  0.012095      8.000000
  0.036285  0.012095  0.012095     24.000000
  0.036285  0.036285  0.012095     24.000000
  0.036285  0.036285  0.036285      8.000000
 


--------------------------------------------------------------------------------------------------------




 Dimension of arrays:
   k-points           NKPTS =      4   k-points in BZ     NKDIM =      4   number of bands    NBANDS=    518
   number of dos      NEDOS =    301   number of ions     NIONS =    108
   non local maximal  LDIM  =      6   non local SUM 2l+1 LMDIM =     18
   total plane-waves  NPLWV = 373248
   max r-space proj   IRMAX =   8877   max aug-charges    IRDMAX=  12243
   dimension x,y,z NGX =    72 NGY =   72 NGZ =   72
   dimension x,y,z NGXF=   144 NGYF=  144 NGZF=  144
   support grid    NGXF=   144 NGYF=  144 NGZF=  144
   ions per type =             108
   NGX,Y,Z   is equivalent  to a cutoff of  11.58, 11.58, 11.58 a.u.
   NGXF,Y,Z  is equivalent  to a cutoff of  23.16, 23.16, 23.16 a.u.

 Based on PREC, I would recommend the following setting:
   dimension x,y,z NGX =    36 NGY =   36 NGZ =   36

 SYSTEM =  Opt                                     
 POSCAR =  fcc_Fe_CON_333                          

 Startparameter for this run:
   NWRITE =      2    write-flag & timer
   PREC   = normal    normal or accurate (medium, high low for compatibility)
   ISTART =      0    job   : 0-new  1-cont  2-samecut
   ICHARG =      2    charge: 1-file 2-atom 10-const
   ISPIN  =      1    spin polarized calculation?
   LNONCOLLINEAR =      F non collinear calculations
   LSORBIT =      F    spin-orbit coupling
   INIWAV =      1    electr: 0-lowe 1-rand  2-diag
   LASPH  =      F    aspherical Exc in radial PAW
   METAGGA=      F    non-selfconsistent MetaGGA calc.

 Electronic Relaxation 1
   ENCUT  =  200.0 eV  14.70 Ry    3.83 a.u.  11.92 11.92 11.92*2*pi/ulx,y,z
   ENINI  =  200.0     initial cutoff
   ENAUG  =  511.4 eV  augmentation charge cutoff
   NELM   =    400;   NELMIN=  2; NELMDL= -5     # of ELM steps 
   EDIFF  = 0.1E-05   stopping-criterion for ELM
   LREAL  =      T    real-space projection
   NLSPLINE    = F    spline interpolate recip. space projectors
   LCOMPAT=      F    compatible to vasp.4.4
   GGA_COMPAT  = T    GGA compatible to vasp.4.4-vasp.4.6
   LMAXPAW     = -100 max onsite density
   LMAXMIX     =    2 max onsite mixed and CHGCAR
   VOSKOWN=      0    Vosko Wilk Nusair interpolation
   ROPT   =   -0.00050
 Ionic relaxation
   EDIFFG = -.1E-01   stopping-criterion for IOM
   NSW    =    100    number of steps for IOM
   NBLOCK =      1;   KBLOCK =    100    inner block; outer block 
   IBRION =      2    ionic relax: 0-MD 1-quasi-New 2-CG
   NFREE  =      1    steps in history (QN), initial steepest desc. (CG)
   ISIF   =      3    stress and relaxation
   IWAVPR =     11    prediction:  0-non 1-charg 2-wave 3-comb
   ISYM   =      2    0-nonsym 1-usesym 2-fastsym
   LCORR  =      T    Harris-Foulkes like correction to forces

   POTIM  = 0.5000    time-step for ionic-motion
   TEIN   =    0.0    initial temperature
   TEBEG  =    0.0;   TEEND  =   0.0 temperature during run
   SMASS  =  -3.00    Nose mass-parameter (am)
   estimated Nose-frequenzy (Omega)   =  0.10E-29 period in steps =****** mass=  -0.244E-26a.u.
   SCALEE = 1.0000    scale energy and forces
   NPACO  =    256;   APACO  = 16.0  distance and # of slots for P.C.
   PSTRESS=    0.0 pullay stress

  Mass of Ions in am
   POMASS =  55.85
  Ionic Valenz
   ZVAL   =   8.00
  Atomic Wigner-Seitz radii
   RWIGS  =  -1.00
  virtual crystal weights 
   VCA    =   1.00
   NELECT =     864.0000    total number of electrons
   NUPDOWN=      -1.0000    fix difference up-down

 DOS related values:
   EMIN   =  10.00;   EMAX   =-10.00  energy-range for DOS
   EFERMI =   0.00
   ISMEAR =     1;   SIGMA  =   0.20  broadening in eV -4-tet -1-fermi 0-gaus

 Electronic relaxation 2 (details)
   IALGO  =     68    algorithm
   LDIAG  =      T    sub-space diagonalisation (order eigenvalues)
   LSUBROT=      F    optimize rotation matrix (better conditioning)
   TURBO    =      0    0=normal 1=particle mesh
   IRESTART =      0    0=no restart 2=restart with 2 vectors
   NREBOOT  =      0    no. of reboots
   NMIN     =      0    reboot dimension
   EREF     =   0.00    reference energy to select bands
   IMIX   =      4    mixing-type and parameters
     AMIX     =   0.40;   BMIX     =  1.00
     AMIX_MAG =   1.60;   BMIX_MAG =  1.00
     AMIN     =   0.10
     WC   =   100.;   INIMIX=   1;  MIXPRE=   1;  MAXMIX= -45

 Intra band minimization:
   WEIMIN = 0.0010     energy-eigenvalue tresh-hold
   EBREAK =  0.48E-09  absolut break condition
   DEPER  =   0.30     relativ break condition  

   TIME   =   0.40     timestep for ELM

  volume/ion in A,a.u.               =      10.22        68.97
  Fermi-wavevector in a.u.,A,eV,Ry     =   1.508720  2.851068 30.970078  2.276236
  Thomas-Fermi vector in A             =   2.619137
 
 Write flags
   LWAVE        =      F    write WAVECAR
   LDOWNSAMPLE  =      F    k-point downsampling of WAVECAR
   LCHARG       =      F    write CHGCAR
   LVTOT        =      F    write LOCPOT, total local potential
   LVHAR        =      F    write LOCPOT, Hartree potential only
   LELF         =      F    write electronic localiz. function (ELF)
   LORBIT       =      0    0 simple, 1 ext, 2 COOP (PROOUT), +10 PAW based schemes


 Dipole corrections
   LMONO  =      F    monopole corrections only (constant potential shift)
   LDIPOL =      F    correct potential (dipole corrections)
   IDIPOL =      0    1-x, 2-y, 3-z, 4-all directions 
   EPSILON=  1.0000000 bulk dielectric constant

 Exchange correlation treatment:
   GGA     =    --    GGA type
   LEXCH   =     8    internal setting for exchange type
   VOSKOWN=      0    Vosko Wilk Nusair interpolation
   LHFCALC =     F    Hartree Fock is set to
   LHFONE  =     F    Hartree Fock one center treatment
   AEXX    =    0.0000 exact exchange contribution

 Linear response parameters
   LEPSILON=     F    determine dielectric tensor
   LRPA    =     F    only Hartree local field effects (RPA)
   LNABLA  =     F    use nabla operator in PAW spheres
   LVEL    =     F    velocity operator in full k-point grid
   LINTERFAST=   F  fast interpolation
   KINTER  =     0    interpolate to denser k-point grid
   CSHIFT  =0.1000    complex shift for real part using Kramers Kronig
   OMEGAMAX=  -1.0    maximum frequency
   DEG_THRESHOLD= 0.2000000E-02 threshold for treating states as degnerate
   RTIME   =   -0.100 relaxation time in fs
  (WPLASMAI=    0.000 imaginary part of plasma frequency in eV, 0.658/RTIME)
   DFIELD  = 0.0000000 0.0000000 0.0000000 field for delta impulse in time
 
 Orbital magnetization related:
   ORBITALMAG=     F  switch on orbital magnetization
   LCHIMAG   =     F  perturbation theory with respect to B field
   DQ        =  0.001000  dq finite difference perturbation B field
   LLRAUG    =     F  two centre corrections for induced B field



--------------------------------------------------------------------------------------------------------


 conjugate gradient relaxation of ions
 charge density and potential will be updated during run
 non-spin polarized calculation
 RMM-DIIS sequential band-by-band and
  variant of blocked Davidson during initial phase
 perform sub-space diagonalisation
    before iterative eigenvector-optimisation
 modified Broyden-mixing scheme, WC =      100.0
 initial mixing is a Kerker type mixing with AMIX =  0.4000 and BMIX =      1.0000
 Hartree-type preconditioning will be used
 using additional bands           86
 real space projection scheme for non local part
 use partial core corrections
 calculate Harris-corrections to forces 
   (improved forces if not selfconsistent)
 use gradient corrections 
 use of overlap-Matrix (Vanderbilt PP)
 Methfessel and Paxton  Order N= 1 SIGMA  =   0.20


--------------------------------------------------------------------------------------------------------


  energy-cutoff  :      200.00
  volume of cell :     1103.86
      direct lattice vectors                 reciprocal lattice vectors
    10.334847047  0.000000000  0.000000000     0.096760019  0.000000000  0.000000000
     0.000000000 10.334847047  0.000000000     0.000000000  0.096760019  0.000000000
     0.000000000  0.000000000 10.334847047     0.000000000  0.000000000  0.096760019

  length of vectors
    10.334847047 10.334847047 10.334847047     0.096760019  0.096760019  0.096760019


 
 k-points in units of 2pi/SCALE and weight: pymatgen generated KPOINTS with grid den
   0.01209500  0.01209500  0.01209500       0.125
   0.03628501  0.01209500  0.01209500       0.375
   0.03628501  0.03628501  0.01209500       0.375
   0.03628501  0.03628501  0.03628501       0.125
 
 k-points in reciprocal lattice and weights: pymatgen generated KPOINTS with grid den
   0.12500000  0.12500000  0.12500000       0.125
   0.37500000  0.12500000  0.12500000       0.375
   0.37500000  0.37500000  0.12500000       0.375
   0.37500000  0.37500000  0.37500000       0.125
 
 position of ions in fractional coordinates (direct lattice) 
   0.00000000  0.00000000  0.00000000
   0.00000000  0.16666893  0.16666893
   0.16666893  0.00000000  0.16666893
   0.16666893  0.16666893  0.00000000
   0.33333106  0.00000000  0.00000000
   0.33333107  0.16666893  0.16666893
   0.50000000  0.00000000  0.16666894
   0.50000000  0.16666894  0.00000000
   0.66666897  0.00000000  0.00000000
   0.66666896  0.16666893  0.16666893
   0.83333104  0.00000000  0.16666893
   0.83333104  0.16666893  0.00000000
   0.00000000  0.33333106  0.00000000
   0.00000000  0.50000000  0.16666894
   0.16666893  0.33333107  0.16666893
   0.16666894  0.50000000  0.00000000
   0.33333107  0.33333107  0.00000000
   0.33333107  0.50000000  0.16666893
   0.50000000  0.33333107  0.16666893
   0.50000000  0.50000000  0.00000000
   0.66666896  0.33333107  0.00000000
   0.66666896  0.50000000  0.16666893
   0.83333104  0.33333107  0.16666893
   0.83333103  0.50000000  0.00000000
   0.00000000  0.66666897  0.00000000
   0.00000000  0.83333104  0.16666893
   0.16666893  0.66666896  0.16666893
   0.16666893  0.83333104  0.00000000
   0.33333107  0.66666896  0.00000000
   0.33333107  0.83333104  0.16666893
   0.50000000  0.66666896  0.16666893
   0.50000000  0.83333103  0.00000000
   0.66666896  0.66666896  0.00000000
   0.66666896  0.83333104  0.16666893
   0.83333104  0.66666896  0.16666893
   0.83333104  0.83333104  0.00000000
   0.00000000  0.00000000  0.33333106
   0.00000000  0.16666894  0.50000000
   0.16666894  0.00000000  0.50000000
   0.16666893  0.16666893  0.33333107
   0.33333107  0.00000000  0.33333107
   0.33333107  0.16666893  0.50000000
   0.50000000  0.00000000  0.50000000
   0.50000000  0.16666893  0.33333107
   0.66666896  0.00000000  0.33333107
   0.66666896  0.16666893  0.50000000
   0.83333103  0.00000000  0.50000000
   0.83333104  0.16666893  0.33333107
   0.00000000  0.33333107  0.33333107
   0.00000000  0.50000000  0.50000000
   0.16666893  0.33333107  0.50000000
   0.16666893  0.50000000  0.33333107
   0.33333107  0.33333107  0.33333107
   0.33333106  0.50000000  0.50000000
   0.50000000  0.33333106  0.50000000
   0.50000000  0.50000000  0.33333106
   0.66666896  0.33333107  0.33333107
   0.66666897  0.50000000  0.50000000
   0.83333104  0.33333107  0.50000000
   0.83333104  0.50000000  0.33333107
   0.00000000  0.66666896  0.33333107
   0.00000000  0.83333103  0.50000000
   0.16666893  0.66666896  0.50000000
   0.16666893  0.83333104  0.33333107
   0.33333107  0.66666896  0.33333107
   0.33333107  0.83333104  0.50000000
   0.50000000  0.66666897  0.50000000
   0.50000000  0.83333104  0.33333107
   0.66666896  0.66666896  0.33333107
   0.66666896  0.83333104  0.50000000
   0.83333104  0.66666896  0.50000000
   0.83333104  0.83333104  0.33333107
   0.00000000  0.00000000  0.66666897
   0.00000000  0.16666893  0.83333104
   0.16666893  0.00000000  0.83333104
   0.16666893  0.16666893  0.66666896
   0.33333107  0.00000000  0.66666896
   0.33333107  0.16666893  0.83333104
   0.50000000  0.00000000  0.83333103
   0.50000000  0.16666893  0.66666896
   0.66666896  0.00000000  0.66666896
   0.66666896  0.16666893  0.83333104
   0.83333104  0.00000000  0.83333104
   0.83333104  0.16666893  0.66666896
   0.00000000  0.33333107  0.66666896
   0.00000000  0.50000000  0.83333103
   0.16666893  0.33333107  0.83333104
   0.16666893  0.50000000  0.66666896
   0.33333107  0.33333107  0.66666896
   0.33333107  0.50000000  0.83333104
   0.50000000  0.33333107  0.83333104
   0.50000000  0.50000000  0.66666897
   0.66666896  0.33333107  0.66666896
   0.66666896  0.50000000  0.83333104
   0.83333104  0.33333107  0.83333104
   0.83333104  0.50000000  0.66666896
   0.00000000  0.66666896  0.66666896
   0.00000000  0.83333104  0.83333104
   0.16666893  0.66666896  0.83333104
   0.16666893  0.83333104  0.66666896
   0.33333107  0.66666896  0.66666896
   0.33333107  0.83333104  0.83333104
   0.50000000  0.66666896  0.83333104
   0.50000000  0.83333104  0.66666896
   0.66666896  0.66666896  0.66666896
   0.66666896  0.83333104  0.83333104
   0.83333104  0.66666896  0.83333104
   0.83333104  0.83333104  0.66666896
 
 position of ions in cartesian coordinates  (Angst):
   0.00000000  0.00000000  0.00000000
   0.00000000  1.72249793  1.72249793
   1.72249793  0.00000000  1.72249793
   1.72249793  1.72249793  0.00000000
   3.44492554  0.00000000  0.00000000
   3.44492559  1.72249794  1.72249794
   5.16742352  0.00000000  1.72249798
   5.16742352  1.72249798  0.00000000
   6.88992180  0.00000000  0.00000000
   6.88992176  1.72249794  1.72249794
   8.61234881  0.00000000  1.72249793
   8.61234881  1.72249793  0.00000000
   0.00000000  3.44492554  0.00000000
   0.00000000  5.16742352  1.72249798
   1.72249794  3.44492559  1.72249794
   1.72249798  5.16742352  0.00000000
   3.44492559  3.44492559  0.00000000
   3.44492559  5.16742352  1.72249793
   5.16742352  3.44492559  1.72249793
   5.16742352  5.16742352  0.00000000
   6.88992176  3.44492559  0.00000000
   6.88992176  5.16742352  1.72249793
   8.61234881  3.44492559  1.72249794
   8.61234877  5.16742352  0.00000000
   0.00000000  6.88992180  0.00000000
   0.00000000  8.61234881  1.72249793
   1.72249794  6.88992176  1.72249794
   1.72249793  8.61234881  0.00000000
   3.44492559  6.88992176  0.00000000
   3.44492559  8.61234881  1.72249794
   5.16742352  6.88992176  1.72249793
   5.16742352  8.61234877  0.00000000
   6.88992176  6.88992176  0.00000000
   6.88992176  8.61234881  1.72249794
   8.61234881  6.88992176  1.72249794
   8.61234881  8.61234881  0.00000000
   0.00000000  0.00000000  3.44492554
   0.00000000  1.72249798  5.16742352
   1.72249798  0.00000000  5.16742352
   1.72249794  1.72249794  3.44492559
   3.44492559  0.00000000  3.44492559
   3.44492559  1.72249793  5.16742352
   5.16742352  0.00000000  5.16742352
   5.16742352  1.72249793  3.44492559
   6.88992176  0.00000000  3.44492559
   6.88992176  1.72249793  5.16742352
   8.61234877  0.00000000  5.16742352
   8.61234881  1.72249794  3.44492559
   0.00000000  3.44492559  3.44492559
   0.00000000  5.16742352  5.16742352
   1.72249793  3.44492559  5.16742352
   1.72249793  5.16742352  3.44492559
   3.44492559  3.44492559  3.44492559
   3.44492554  5.16742352  5.16742352
   5.16742352  3.44492554  5.16742352
   5.16742352  5.16742352  3.44492554
   6.88992176  3.44492559  3.44492559
   6.88992180  5.16742352  5.16742352
   8.61234881  3.44492559  5.16742352
   8.61234881  5.16742352  3.44492559
   0.00000000  6.88992176  3.44492559
   0.00000000  8.61234877  5.16742352
   1.72249793  6.88992176  5.16742352
   1.72249794  8.61234881  3.44492559
   3.44492559  6.88992176  3.44492559
   3.44492559  8.61234881  5.16742352
   5.16742352  6.88992180  5.16742352
   5.16742352  8.61234881  3.44492559
   6.88992176  6.88992176  3.44492559
   6.88992176  8.61234881  5.16742352
   8.61234881  6.88992176  5.16742352
   8.61234881  8.61234881  3.44492559
   0.00000000  0.00000000  6.88992180
   0.00000000  1.72249793  8.61234881
   1.72249793  0.00000000  8.61234881
   1.72249794  1.72249794  6.88992176
   3.44492559  0.00000000  6.88992176
   3.44492559  1.72249794  8.61234881
   5.16742352  0.00000000  8.61234877
   5.16742352  1.72249793  6.88992176
   6.88992176  0.00000000  6.88992176
   6.88992176  1.72249794  8.61234881
   8.61234881  0.00000000  8.61234881
   8.61234881  1.72249794  6.88992176
   0.00000000  3.44492559  6.88992176
   0.00000000  5.16742352  8.61234877
   1.72249794  3.44492559  8.61234881
   1.72249793  5.16742352  6.88992176
   3.44492559  3.44492559  6.88992176
   3.44492559  5.16742352  8.61234881
   5.16742352  3.44492559  8.61234881
   5.16742352  5.16742352  6.88992180
   6.88992176  3.44492559  6.88992176
   6.88992176  5.16742352  8.61234881
   8.61234881  3.44492559  8.61234881
   8.61234881  5.16742352  6.88992176
   0.00000000  6.88992176  6.88992176
   0.00000000  8.61234881  8.61234881
   1.72249794  6.88992176  8.61234881
   1.72249794  8.61234881  6.88992176
   3.44492559  6.88992176  6.88992176
   3.44492559  8.61234881  8.61234881
   5.16742352  6.88992176  8.61234881
   5.16742352  8.61234881  6.88992176
   6.88992176  6.88992176  6.88992176
   6.88992176  8.61234881  8.61234881
   8.61234881  6.88992176  8.61234881
   8.61234881  8.61234881  6.88992176
 


--------------------------------------------------------------------------------------------------------


 k-point  1 :   0.1250 0.1250 0.1250  plane waves:    7070
 k-point  2 :   0.3750 0.1250 0.1250  plane waves:    7082
 k-point  3 :   0.3750 0.3750 0.1250  plane waves:    7094
 k-point  4 :   0.3750 0.3750 0.3750  plane waves:    7079

 maximum and minimum number of plane-waves per node :      1783     1755

 maximum number of plane-waves:      7094
 maximum index in each direction: 
   IXMAX=   11   IYMAX=   11   IZMAX=   11
   IXMIN=  -12   IYMIN=  -12   IZMIN=  -12


 real space projection operators:
  total allocation   :     130627.69 KBytes
  max/ min on nodes  :      33139.12      32425.31


 parallel 3D FFT for wavefunctions:
    minimum data exchange during FFTs selected (reduces bandwidth)
 parallel 3D FFT for charge:
    minimum data exchange during FFTs selected (reduces bandwidth)


 total amount of memory used by VASP MPI-rank0   161341. kBytes
=======================================================================

   base      :      30000. kBytes
   nonlr-proj:      56192. kBytes
   fftplans  :      15367. kBytes
   grid      :      21835. kBytes
   one-center:        419. kBytes
   wavefun   :      37528. kBytes
 
     INWAV:  cpu time    0.0000: real time    0.0001
 Broyden mixing: mesh for mixing (old mesh)
   NGX = 23   NGY = 23   NGZ = 23
  (NGX  =144   NGY  =144   NGZ  =144)
  gives a total of  12167 points

 initial charge density was supplied:
 charge density of overlapping atoms calculated
 number of electron     864.0000000 magnetization 
 keeping initial charge density in first step


--------------------------------------------------------------------------------------------------------


 Maximum index for non-local projection operator         2135
 Maximum index for augmentation-charges         1463 (set IRDMAX)


--------------------------------------------------------------------------------------------------------


 First call to EWALD:  gamma=   0.172
 Maximum number of real-space cells 3x 3x 3
 Maximum number of reciprocal cells 3x 3x 3

    FEWALD:  cpu time    0.0103: real time    0.0161


--------------------------------------- Iteration      1(   1)  ---------------------------------------


    POTLOK:  cpu time    0.2849: real time    0.2858
    SETDIJ:  cpu time    0.0552: real time    0.0552
     EDDAV:  cpu time   42.4995: real time   42.5281
       DOS:  cpu time    0.0048: real time    0.0048
    --------------------------------------------
      LOOP:  cpu time   42.8444: real time   42.8739

 eigenvalue-minimisations  :  4176
 total energy-change (2. order) : 0.3594875E+04  (-0.2003516E+05)
 number of electron     864.0000000 magnetization 
 augmentation part      864.0000000 magnetization 

 Free energy of the ion-electron system (eV)
  ---------------------------------------------------
  alpha Z        PSCENC =      7300.31925852
  Ewald energy   TEWEN  =    -66232.83996889
  -Hartree energ DENC   =    -11197.02572337
  -exchange      EXHF   =         0.00000000
  -V(xc)+E(xc)   XCENC  =       446.63038354
  PAW double counting   =     51723.88885462   -52548.28121372
  entropy T*S    EENTRO =         0.03216479
  eigenvalues    EBANDS =      9971.58792867
  atomic energy  EATOM  =     64130.56299653
  Solvation  Ediel_sol  =         0.00000000
  ---------------------------------------------------
  free energy    TOTEN  =      3594.87468070 eV

  energy without entropy =     3594.84251590  energy(sigma->0) =     3594.86395910


--------------------------------------------------------------------------------------------------------




--------------------------------------- Iteration      1(   2)  ---------------------------------------


     EDDAV:  cpu time   42.2706: real time   42.2856
       DOS:  cpu time    0.0068: real time    0.0068
    --------------------------------------------
      LOOP:  cpu time   42.2774: real time   42.2923

 eigenvalue-minimisations  :  4144
 total energy-change (2. order) :-0.4181455E+04  (-0.3948570E+04)
 number of electron     864.0000000 magnetization 
 augmentation part      864.0000000 magnetization 

 Free energy of the ion-electron system (eV)
  ---------------------------------------------------
  alpha Z        PSCENC =      7300.31925852
  Ewald energy   TEWEN  =    -66232.83996889
  -Hartree energ DENC   =    -11197.02572337
  -exchange      EXHF   =         0.00000000
  -V(xc)+E(xc)   XCENC  =       446.63038354
  PAW double counting   =     51723.88885462   -52548.28121372
  entropy T*S    EENTRO =        -0.01188737
  eigenvalues    EBANDS =      5790.17654542
  atomic energy  EATOM  =     64130.56299653
  Solvation  Ediel_sol  =         0.00000000
  ---------------------------------------------------
  free energy    TOTEN  =      -586.58075472 eV

  energy without entropy =     -586.56886734  energy(sigma->0) =     -586.57679226


--------------------------------------------------------------------------------------------------------




--------------------------------------- Iteration      1(   3)  ---------------------------------------


     EDDAV:  cpu time   59.2483: real time   59.2642
       DOS:  cpu time    0.0073: real time    0.0073
    --------------------------------------------
      LOOP:  cpu time   59.2556: real time   59.2714

 eigenvalue-minimisations  :  6312
 total energy-change (2. order) :-0.4241556E+03  (-0.3979092E+03)
 number of electron     864.0000000 magnetization 
 augmentation part      864.0000000 magnetization 

 Free energy of the ion-electron system (eV)
  ---------------------------------------------------
  alpha Z        PSCENC =      7300.31925852
  Ewald energy   TEWEN  =    -66232.83996889
  -Hartree energ DENC   =    -11197.02572337
  -exchange      EXHF   =         0.00000000
  -V(xc)+E(xc)   XCENC  =       446.63038354
  PAW double counting   =     51723.88885462   -52548.28121372
  entropy T*S    EENTRO =        -0.02309731
  eigenvalues    EBANDS =      5366.03211451
  atomic energy  EATOM  =     64130.56299653
  Solvation  Ediel_sol  =         0.00000000
  ---------------------------------------------------
  free energy    TOTEN  =     -1010.73639556 eV

  energy without entropy =    -1010.71329826  energy(sigma->0) =    -1010.72869646


--------------------------------------------------------------------------------------------------------




--------------------------------------- Iteration      1(   4)  ---------------------------------------


     EDDAV:  cpu time   56.7767: real time   56.7941
       DOS:  cpu time    0.0073: real time    0.0073
    --------------------------------------------
      LOOP:  cpu time   56.7841: real time   56.8014

 eigenvalue-minimisations  :  5984
 total energy-change (2. order) :-0.3508880E+02  (-0.3319002E+02)
 number of electron     864.0000000 magnetization 
 augmentation part      864.0000000 magnetization 

 Free energy of the ion-electron system (eV)
  ---------------------------------------------------
  alpha Z        PSCENC =      7300.31925852
  Ewald energy   TEWEN  =    -66232.83996889
  -Hartree energ DENC   =    -11197.02572337
  -exchange      EXHF   =         0.00000000
  -V(xc)+E(xc)   XCENC  =       446.63038354
  PAW double counting   =     51723.88885462   -52548.28121372
  entropy T*S    EENTRO =        -0.12564827
  eigenvalues    EBANDS =      5331.04586147
  atomic energy  EATOM  =     64130.56299653
  Solvation  Ediel_sol  =         0.00000000
  ---------------------------------------------------
  free energy    TOTEN  =     -1045.82519956 eV

  energy without entropy =    -1045.69955129  energy(sigma->0) =    -1045.78331680


--------------------------------------------------------------------------------------------------------




--------------------------------------- Iteration      1(   5)  ---------------------------------------


     EDDAV:  cpu time   56.2480: real time   56.2613
       DOS:  cpu time    0.0075: real time    0.0075
    CHARGE:  cpu time    1.9825: real time    1.9830
    MIXING:  cpu time    0.0068: real time    0.0068
    --------------------------------------------
      LOOP:  cpu time   58.2448: real time   58.2586

 eigenvalue-minimisations  :  5912
 total energy-change (2. order) :-0.1673037E+01  (-0.1601870E+01)
 number of electron     864.0000685 magnetization 
 augmentation part      371.7365272 magnetization 

 Broyden mixing:
  rms(total) = 0.10393E+02    rms(broyden)= 0.10387E+02
  rms(prec ) = 0.12861E+02
  weight for this iteration     100.00

 Free energy of the ion-electron system (eV)
  ---------------------------------------------------
  alpha Z        PSCENC =      7300.31925852
  Ewald energy   TEWEN  =    -66232.83996889
  -Hartree energ DENC   =    -11197.02572337
  -exchange      EXHF   =         0.00000000
  -V(xc)+E(xc)   XCENC  =       446.63038354
  PAW double counting   =     51723.88885462   -52548.28121372
  entropy T*S    EENTRO =        -0.10924581
  eigenvalues    EBANDS =      5329.35642237
  atomic energy  EATOM  =     64130.56299653
  Solvation  Ediel_sol  =         0.00000000
  ---------------------------------------------------
  free energy    TOTEN  =     -1047.49823620 eV

  energy without entropy =    -1047.38899039  energy(sigma->0) =    -1047.46182093


--------------------------------------------------------------------------------------------------------




--------------------------------------- Iteration      1(   6)  ---------------------------------------


    POTLOK:  cpu time    0.3031: real time    0.3035
    SETDIJ:  cpu time    0.0552: real time    0.0552
    EDDIAG:  cpu time    4.0505: real time    4.0515
  RMM-DIIS:  cpu time   31.2418: real time   31.2489
    ORTHCH:  cpu time    0.4917: real time    0.4919
       DOS:  cpu time    0.0082: real time    0.0082
    CHARGE:  cpu time    2.0175: real time    2.0179
    MIXING:  cpu time    0.0081: real time    0.0081
    --------------------------------------------
      LOOP:  cpu time   38.1762: real time   38.1853

 eigenvalue-minimisations  :  4151
 total energy-change (2. order) : 0.2174855E+03  (-0.1646553E+03)
 number of electron     864.0000763 magnetization 
 augmentation part      441.7791589 magnetization 

 Broyden mixing:
  rms(total) = 0.49431E+00    rms(broyden)= 0.44611E+00
  rms(prec ) = 0.52742E+00
  weight for this iteration     100.00

 eigenvalues of (default mixing * dielectric matrix)
  average eigenvalue GAMMA=   0.9684
  0.9684

 Free energy of the ion-electron system (eV)
  ---------------------------------------------------
  alpha Z        PSCENC =      7300.31925852
  Ewald energy   TEWEN  =    -66232.83996889
  -Hartree energ DENC   =     -9180.52724347
  -exchange      EXHF   =         0.00000000
  -V(xc)+E(xc)   XCENC  =       346.10358985
  PAW double counting   =     52875.74611771   -53370.22389651
  entropy T*S    EENTRO =        -0.01546013
  eigenvalues    EBANDS =      3300.86189187
  atomic energy  EATOM  =     64130.56299653
  Solvation  Ediel_sol  =         0.00000000
  ---------------------------------------------------
  free energy    TOTEN  =      -830.01271452 eV

  energy without entropy =     -829.99725439  energy(sigma->0) =     -830.00756114


--------------------------------------------------------------------------------------------------------




--------------------------------------- Iteration      1(   7)  ---------------------------------------


    POTLOK:  cpu time    0.3071: real time    0.3075
    SETDIJ:  cpu time    0.0543: real time    0.0543
    EDDIAG:  cpu time    4.0900: real time    4.0913
  RMM-DIIS:  cpu time   33.5958: real time   33.6155
    ORTHCH:  cpu time    0.4937: real time    0.4937
       DOS:  cpu time    0.0085: real time    0.0085
    CHARGE:  cpu time    2.0245: real time    2.0250
    MIXING:  cpu time    0.0074: real time    0.0074
    --------------------------------------------
      LOOP:  cpu time   40.5813: real time   40.6032

 eigenvalue-minimisations  :  4450
 total energy-change (2. order) :-0.2447195E+01  (-0.6960111E+01)
 number of electron     864.0000749 magnetization 
 augmentation part      442.6844255 magnetization 

 Broyden mixing:
  rms(total) = 0.41709E+00    rms(broyden)= 0.41273E+00
  rms(prec ) = 0.48877E+00
  weight for this iteration     100.00

 eigenvalues of (default mixing * dielectric matrix)
  average eigenvalue GAMMA=   0.6017
  0.9602  0.2432

 Free energy of the ion-electron system (eV)
  ---------------------------------------------------
  alpha Z        PSCENC =      7300.31925852
  Ewald energy   TEWEN  =    -66232.83996889
  -Hartree energ DENC   =     -9249.62174896
  -exchange      EXHF   =         0.00000000
  -V(xc)+E(xc)   XCENC  =       349.91893866
  PAW double counting   =     55582.48575924   -56205.62149351
  entropy T*S    EENTRO =        -0.09109240
  eigenvalues    EBANDS =      3492.42744157
  atomic energy  EATOM  =     64130.56299653
  Solvation  Ediel_sol  =         0.00000000
  ---------------------------------------------------
  free energy    TOTEN  =      -832.45990923 eV

  energy without entropy =     -832.36881683  energy(sigma->0) =     -832.42954510


--------------------------------------------------------------------------------------------------------




--------------------------------------- Iteration      1(   8)  ---------------------------------------


    POTLOK:  cpu time    0.3132: real time    0.3138
    SETDIJ:  cpu time    0.0554: real time    0.0554
    EDDIAG:  cpu time    4.0848: real time    4.0857
  RMM-DIIS:  cpu time   36.6989: real time   36.7074
    ORTHCH:  cpu time    0.4934: real time    0.4936
       DOS:  cpu time    0.0084: real time    0.0084
    CHARGE:  cpu time    2.0274: real time    2.0278
    MIXING:  cpu time    0.0071: real time    0.0071
    --------------------------------------------
      LOOP:  cpu time   43.6885: real time   43.6991

 eigenvalue-minimisations  :  4871
 total energy-change (2. order) : 0.3861387E-01  (-0.3770832E+00)
 number of electron     864.0000753 magnetization 
 augmentation part      442.2896719 magnetization 

 Broyden mixing:
  rms(total) = 0.35793E+00    rms(broyden)= 0.35756E+00
  rms(prec ) = 0.41557E+00
  weight for this iteration     100.00

 eigenvalues of (default mixing * dielectric matrix)
  average eigenvalue GAMMA=   1.3227
  1.0364  1.4658  1.4658

 Free energy of the ion-electron system (eV)
  ---------------------------------------------------
  alpha Z        PSCENC =      7300.31925852
  Ewald energy   TEWEN  =    -66232.83996889
  -Hartree energ DENC   =     -9265.57130178
  -exchange      EXHF   =         0.00000000
  -V(xc)+E(xc)   XCENC  =       350.71643409
  PAW double counting   =     56027.91242439   -56665.50247802
  entropy T*S    EENTRO =        -0.06014998
  eigenvalues    EBANDS =      3522.04148977
  atomic energy  EATOM  =     64130.56299653
  Solvation  Ediel_sol  =         0.00000000
  ---------------------------------------------------
  free energy    TOTEN  =      -832.42129537 eV

  energy without entropy =     -832.36114539  energy(sigma->0) =     -832.40124538


--------------------------------------------------------------------------------------------------------




--------------------------------------- Iteration      1(   9)  ---------------------------------------


    POTLOK:  cpu time    0.3078: real time    0.3082
    SETDIJ:  cpu time    0.0555: real time    0.0555
    EDDIAG:  cpu time    4.0818: real time    4.0828
  RMM-DIIS:  cpu time   32.6276: real time   32.6360
    ORTHCH:  cpu time    0.4949: real time    0.4949
       DOS:  cpu time    0.0084: real time    0.0084
    CHARGE:  cpu time    2.0246: real time    2.0250
    MIXING:  cpu time    0.0075: real time    0.0075
    --------------------------------------------
      LOOP:  cpu time   39.6091: real time   39.6184

 eigenvalue-minimisations  :  4329
 total energy-change (2. order) : 0.6140886E+00  (-0.1202141E+00)
 number of electron     864.0000751 magnetization 
 augmentation part      440.8750954 magnetization 

 Broyden mixing:
  rms(total) = 0.38212E+00    rms(broyden)= 0.38052E+00
  rms(prec ) = 0.52618E+00
  weight for this iteration     100.00

 eigenvalues of (default mixing * dielectric matrix)
  average eigenvalue GAMMA=   1.1315
  1.0545  1.6232  1.6232  0.2250

 Free energy of the ion-electron system (eV)
  ---------------------------------------------------
  alpha Z        PSCENC =      7300.31925852
  Ewald energy   TEWEN  =    -66232.83996889
  -Hartree energ DENC   =     -9288.12576779
  -exchange      EXHF   =         0.00000000
  -V(xc)+E(xc)   XCENC  =       351.47249444
  PAW double counting   =     58281.38286463   -58951.03368521
  entropy T*S    EENTRO =        -0.05793789
  eigenvalues    EBANDS =      3576.51253893
  atomic energy  EATOM  =     64130.56299653
  Solvation  Ediel_sol  =         0.00000000
  ---------------------------------------------------
  free energy    TOTEN  =      -831.80720673 eV

  energy without entropy =     -831.74926883  energy(sigma->0) =     -831.78789410


--------------------------------------------------------------------------------------------------------




--------------------------------------- Iteration      1(  10)  ---------------------------------------


    POTLOK:  cpu time    0.3105: real time    0.3113
    SETDIJ:  cpu time    0.0551: real time    0.0551
    EDDIAG:  cpu time    4.0706: real time    4.0763
  RMM-DIIS:  cpu time   33.7962: real time   33.8041
    ORTHCH:  cpu time    0.4937: real time    0.4937
       DOS:  cpu time    0.0086: real time    0.0086
    CHARGE:  cpu time    2.0229: real time    2.0233
    MIXING:  cpu time    0.0087: real time    0.0087
    --------------------------------------------
      LOOP:  cpu time   40.7653: real time   40.7811

 eigenvalue-minimisations  :  4484
 total energy-change (2. order) : 0.1629474E+00  (-0.5316343E-01)
 number of electron     864.0000751 magnetization 
 augmentation part      440.3332686 magnetization 

 Broyden mixing:
  rms(total) = 0.27585E+00    rms(broyden)= 0.27020E+00
  rms(prec ) = 0.37691E+00
  weight for this iteration     100.00

 eigenvalues of (default mixing * dielectric matrix)
  average eigenvalue GAMMA=   1.1286
  2.4979  1.1032  1.1032  0.8230  0.1155

 Free energy of the ion-electron system (eV)
  ---------------------------------------------------
  alpha Z        PSCENC =      7300.31925852
  Ewald energy   TEWEN  =    -66232.83996889
  -Hartree energ DENC   =     -9293.59219046
  -exchange      EXHF   =         0.00000000
  -V(xc)+E(xc)   XCENC  =       351.62705896
  PAW double counting   =     59011.67173956   -59692.93527026
  entropy T*S    EENTRO =        -0.05530228
  eigenvalues    EBANDS =      3593.59741896
  atomic energy  EATOM  =     64130.56299653
  Solvation  Ediel_sol  =         0.00000000
  ---------------------------------------------------
  free energy    TOTEN  =      -831.64425937 eV

  energy without entropy =     -831.58895708  energy(sigma->0) =     -831.62582527


--------------------------------------------------------------------------------------------------------




--------------------------------------- Iteration      1(  11)  ---------------------------------------


    POTLOK:  cpu time    0.3129: real time    0.3132
    SETDIJ:  cpu time    0.0544: real time    0.0544
    EDDIAG:  cpu time    4.0810: real time    4.0824
  RMM-DIIS:  cpu time   31.8992: real time   31.9092
    ORTHCH:  cpu time    0.4845: real time    0.4848
       DOS:  cpu time    0.0087: real time    0.0087
    CHARGE:  cpu time    2.0050: real time    2.0054
    MIXING:  cpu time    0.0073: real time    0.0073
    --------------------------------------------
      LOOP:  cpu time   38.8530: real time   38.8654

 eigenvalue-minimisations  :  4209
 total energy-change (2. order) : 0.1328645E+00  (-0.8592147E-01)
 number of electron     864.0000748 magnetization 
 augmentation part      438.9031737 magnetization 

 Broyden mixing:
  rms(total) = 0.13858E+00    rms(broyden)= 0.13746E+00
  rms(prec ) = 0.17278E+00
  weight for this iteration     100.00

 eigenvalues of (default mixing * dielectric matrix)
  average eigenvalue GAMMA=   0.9801
  2.5019  1.0715  1.0715  0.6845  0.4347  0.1161

 Free energy of the ion-electron system (eV)
  ---------------------------------------------------
  alpha Z        PSCENC =      7300.31925852
  Ewald energy   TEWEN  =    -66232.83996889
  -Hartree energ DENC   =     -9308.39937985
  -exchange      EXHF   =         0.00000000
  -V(xc)+E(xc)   XCENC  =       352.23246420
  PAW double counting   =     60314.23447038   -61028.54309375
  entropy T*S    EENTRO =        -0.04934855
  eigenvalues    EBANDS =      3640.97120658
  atomic energy  EATOM  =     64130.56299653
  Solvation  Ediel_sol  =         0.00000000
  ---------------------------------------------------
  free energy    TOTEN  =      -831.51139482 eV

  energy without entropy =     -831.46204628  energy(sigma->0) =     -831.49494531


--------------------------------------------------------------------------------------------------------




--------------------------------------- Iteration      1(  12)  ---------------------------------------


    POTLOK:  cpu time    0.2967: real time    0.2972
    SETDIJ:  cpu time    0.0545: real time    0.0545
    EDDIAG:  cpu time    4.0836: real time    4.0848
  RMM-DIIS:  cpu time   37.7776: real time   37.7860
    ORTHCH:  cpu time    0.4934: real time    0.4936
       DOS:  cpu time    0.0085: real time    0.0085
    CHARGE:  cpu time    2.0269: real time    2.0275
    MIXING:  cpu time    0.0090: real time    0.0090
    --------------------------------------------
      LOOP:  cpu time   44.7502: real time   44.7611

 eigenvalue-minimisations  :  5004
 total energy-change (2. order) : 0.6616977E-02  (-0.8788706E-02)
 number of electron     864.0000748 magnetization 
 augmentation part      438.9418344 magnetization 

 Broyden mixing:
  rms(total) = 0.11324E+00    rms(broyden)= 0.11321E+00
  rms(prec ) = 0.14259E+00
  weight for this iteration     100.00

 eigenvalues of (default mixing * dielectric matrix)
  average eigenvalue GAMMA=   1.0016
  2.5138  0.9097  0.9097  0.9980  0.9980  0.5661  0.1159

 Free energy of the ion-electron system (eV)
  ---------------------------------------------------
  alpha Z        PSCENC =      7300.31925852
  Ewald energy   TEWEN  =    -66232.83996889
  -Hartree energ DENC   =     -9297.94309813
  -exchange      EXHF   =         0.00000000
  -V(xc)+E(xc)   XCENC  =       351.75864629
  PAW double counting   =     60282.03600791   -60999.66737612
  entropy T*S    EENTRO =        -0.04882436
  eigenvalues    EBANDS =      3634.31758040
  atomic energy  EATOM  =     64130.56299653
  Solvation  Ediel_sol  =         0.00000000
  ---------------------------------------------------
  free energy    TOTEN  =      -831.50477785 eV

  energy without entropy =     -831.45595349  energy(sigma->0) =     -831.48850306


--------------------------------------------------------------------------------------------------------




--------------------------------------- Iteration      1(  13)  ---------------------------------------


    POTLOK:  cpu time    0.3104: real time    0.3113
    SETDIJ:  cpu time    0.0552: real time    0.0552
    EDDIAG:  cpu time    3.8271: real time    3.8280
  RMM-DIIS:  cpu time   33.5523: real time   33.5727
    ORTHCH:  cpu time    0.4642: real time    0.4644
       DOS:  cpu time    0.0083: real time    0.0083
    CHARGE:  cpu time    1.9174: real time    1.9177
    MIXING:  cpu time    0.0083: real time    0.0083
    --------------------------------------------
      LOOP:  cpu time   40.1432: real time   40.1660

 eigenvalue-minimisations  :  4409
 total energy-change (2. order) : 0.1464363E-01  (-0.4318525E-02)
 number of electron     864.0000749 magnetization 
 augmentation part      439.2817054 magnetization 

 Broyden mixing:
  rms(total) = 0.51450E-01    rms(broyden)= 0.51419E-01
  rms(prec ) = 0.64432E-01
  weight for this iteration     100.00

 eigenvalues of (default mixing * dielectric matrix)
  average eigenvalue GAMMA=   1.1683
  2.5328  1.5058  1.5058  1.0697  1.0697  0.8111  0.7352  0.1160

 Free energy of the ion-electron system (eV)
  ---------------------------------------------------
  alpha Z        PSCENC =      7300.31925852
  Ewald energy   TEWEN  =    -66232.83996889
  -Hartree energ DENC   =     -9282.51059646
  -exchange      EXHF   =         0.00000000
  -V(xc)+E(xc)   XCENC  =       351.07780430
  PAW double counting   =     60237.38044845   -60959.35738360
  entropy T*S    EENTRO =        -0.04984101
  eigenvalues    EBANDS =      3623.92714794
  atomic energy  EATOM  =     64130.56299653
  Solvation  Ediel_sol  =         0.00000000
  ---------------------------------------------------
  free energy    TOTEN  =      -831.49013422 eV

  energy without entropy =     -831.44029321  energy(sigma->0) =     -831.47352055


--------------------------------------------------------------------------------------------------------




--------------------------------------- Iteration      1(  14)  ---------------------------------------


    POTLOK:  cpu time    0.2890: real time    0.2893
    SETDIJ:  cpu time    0.0538: real time    0.0538
    EDDIAG:  cpu time    3.9641: real time    3.9650
  RMM-DIIS:  cpu time   34.7593: real time   34.7716
    ORTHCH:  cpu time    0.4730: real time    0.4730
       DOS:  cpu time    0.0087: real time    0.0087
    CHARGE:  cpu time    1.9531: real time    1.9537
    MIXING:  cpu time    0.0073: real time    0.0073
    --------------------------------------------
      LOOP:  cpu time   41.5084: real time   41.5226

 eigenvalue-minimisations  :  4578
 total energy-change (2. order) : 0.1686197E-02  (-0.2861749E-02)
 number of electron     864.0000749 magnetization 
 augmentation part      439.5520780 magnetization 

 Broyden mixing:
  rms(total) = 0.68794E-02    rms(broyden)= 0.67380E-02
  rms(prec ) = 0.79532E-02
  weight for this iteration     100.00

 eigenvalues of (default mixing * dielectric matrix)
  average eigenvalue GAMMA=   1.3159
  2.5297  2.4019  1.6253  1.6253  1.0162  0.9242  0.9242  0.6800  0.1160

 Free energy of the ion-electron system (eV)
  ---------------------------------------------------
  alpha Z        PSCENC =      7300.31925852
  Ewald energy   TEWEN  =    -66232.83996889
  -Hartree energ DENC   =     -9271.60718066
  -exchange      EXHF   =         0.00000000
  -V(xc)+E(xc)   XCENC  =       350.61419067
  PAW double counting   =     60198.55305202   -60924.31143853
  entropy T*S    EENTRO =        -0.05038673
  eigenvalues    EBANDS =      3617.27102904
  atomic energy  EATOM  =     64130.56299653
  Solvation  Ediel_sol  =         0.00000000
  ---------------------------------------------------
  free energy    TOTEN  =      -831.48844802 eV

  energy without entropy =     -831.43806130  energy(sigma->0) =     -831.47165245


--------------------------------------------------------------------------------------------------------




--------------------------------------- Iteration      1(  15)  ---------------------------------------


    POTLOK:  cpu time    0.2877: real time    0.2880
    SETDIJ:  cpu time    0.0521: real time    0.0521
    EDDIAG:  cpu time    4.0329: real time    4.0340
  RMM-DIIS:  cpu time   39.9195: real time   39.9325
    ORTHCH:  cpu time    0.4927: real time    0.4930
       DOS:  cpu time    0.0085: real time    0.0085
    CHARGE:  cpu time    2.0171: real time    2.0175
    MIXING:  cpu time    0.0083: real time    0.0083
    --------------------------------------------
      LOOP:  cpu time   46.8188: real time   46.8340

 eigenvalue-minimisations  :  5314
 total energy-change (2. order) :-0.5747902E-03  (-0.5275778E-03)
 number of electron     864.0000749 magnetization 
 augmentation part      439.5904355 magnetization 

 Broyden mixing:
  rms(total) = 0.23944E-02    rms(broyden)= 0.22975E-02
  rms(prec ) = 0.25929E-02
  weight for this iteration     100.00

 eigenvalues of (default mixing * dielectric matrix)
  average eigenvalue GAMMA=   1.3152
  2.9671  2.4914  1.5367  1.5367  1.0607  0.9948  0.9948  0.7270  0.7270  0.1160

 Free energy of the ion-electron system (eV)
  ---------------------------------------------------
  alpha Z        PSCENC =      7300.31925852
  Ewald energy   TEWEN  =    -66232.83996889
  -Hartree energ DENC   =     -9271.10919512
  -exchange      EXHF   =         0.00000000
  -V(xc)+E(xc)   XCENC  =       350.60591765
  PAW double counting   =     60189.88108084   -60916.07781033
  entropy T*S    EENTRO =        -0.05025407
  eigenvalues    EBANDS =      3617.21895205
  atomic energy  EATOM  =     64130.56299653
  Solvation  Ediel_sol  =         0.00000000
  ---------------------------------------------------
  free energy    TOTEN  =      -831.48902281 eV

  energy without entropy =     -831.43876875  energy(sigma->0) =     -831.47227146


--------------------------------------------------------------------------------------------------------




--------------------------------------- Iteration      1(  16)  ---------------------------------------


    POTLOK:  cpu time    0.3066: real time    0.3069
    SETDIJ:  cpu time    0.0543: real time    0.0543
    EDDIAG:  cpu time    4.0831: real time    4.0840
  RMM-DIIS:  cpu time   35.8793: real time   35.8891
    ORTHCH:  cpu time    0.4899: real time    0.4901
       DOS:  cpu time    0.0085: real time    0.0085
    CHARGE:  cpu time    1.9869: real time    1.9873
    MIXING:  cpu time    0.0085: real time    0.0085
    --------------------------------------------
      LOOP:  cpu time   42.8172: real time   42.8288

 eigenvalue-minimisations  :  4814
 total energy-change (2. order) : 0.3448039E-04  (-0.1030272E-04)
 number of electron     864.0000749 magnetization 
 augmentation part      439.5778843 magnetization 

 Broyden mixing:
  rms(total) = 0.14295E-02    rms(broyden)= 0.14203E-02
  rms(prec ) = 0.18597E-02
  weight for this iteration     100.00

 eigenvalues of (default mixing * dielectric matrix)
  average eigenvalue GAMMA=   1.2844
  2.7120  2.4592  1.5636  1.5636  1.0833  1.0877  1.0877  0.8897  0.8897  0.6757
  0.1160

 Free energy of the ion-electron system (eV)
  ---------------------------------------------------
  alpha Z        PSCENC =      7300.31925852
  Ewald energy   TEWEN  =    -66232.83996889
  -Hartree energ DENC   =     -9271.69560520
  -exchange      EXHF   =         0.00000000
  -V(xc)+E(xc)   XCENC  =       350.63758311
  PAW double counting   =     60187.58109577   -60913.67379405
  entropy T*S    EENTRO =        -0.05000095
  eigenvalues    EBANDS =      3617.66944683
  atomic energy  EATOM  =     64130.56299653
  Solvation  Ediel_sol  =         0.00000000
  ---------------------------------------------------
  free energy    TOTEN  =      -831.48898833 eV

  energy without entropy =     -831.43898739  energy(sigma->0) =     -831.47232135


--------------------------------------------------------------------------------------------------------




--------------------------------------- Iteration      1(  17)  ---------------------------------------


    POTLOK:  cpu time    0.3108: real time    0.3112
    SETDIJ:  cpu time    0.0545: real time    0.0545
    EDDIAG:  cpu time    4.0707: real time    4.0715
  RMM-DIIS:  cpu time   36.2753: real time   36.2863
    ORTHCH:  cpu time    0.4736: real time    0.4738
       DOS:  cpu time    0.0083: real time    0.0083
    CHARGE:  cpu time    1.9174: real time    1.9178
    MIXING:  cpu time    0.0093: real time    0.0093
    --------------------------------------------
      LOOP:  cpu time   43.1199: real time   43.1327

 eigenvalue-minimisations  :  4827
[...]
   0.101E-01 0.101E-01 -.101E-01   -.202E-01 -.202E-01 0.202E-01   -.607E-21 -.774E-21 -.254E-19   -.107E-07 -.107E-07 0.107E-07
   -.101E-01 -.141E-04 -.101E-01   0.202E-01 0.277E-04 0.202E-01   0.000E+00 0.424E-21 -.114E-19   0.107E-07 -.176E-08 0.107E-07
   -.101E-01 0.101E-01 0.141E-04   0.202E-01 -.202E-01 -.277E-04   0.000E+00 -.602E-21 0.462E-19   0.107E-07 -.107E-07 0.176E-08
   0.141E-04 -.141E-04 0.141E-04   -.277E-04 0.277E-04 -.277E-04   0.424E-21 0.296E-19 0.110E-19   0.176E-08 -.176E-08 0.176E-08
   0.141E-04 0.101E-01 -.101E-01   -.277E-04 -.202E-01 0.202E-01   0.000E+00 -.797E-20 0.186E-19   0.176E-08 -.107E-07 0.107E-07
   0.102E-01 -.141E-04 -.101E-01   -.205E-01 0.277E-04 0.202E-01   -.836E-21 0.000E+00 -.119E-19   -.899E-08 -.176E-08 0.107E-07
   0.102E-01 0.101E-01 0.141E-04   -.205E-01 -.202E-01 -.277E-04   0.764E-21 0.490E-20 -.127E-20   -.899E-08 -.107E-07 0.176E-08
   -.102E-01 -.141E-04 0.141E-04   0.205E-01 0.277E-04 -.277E-04   0.000E+00 -.131E-19 0.762E-20   0.892E-08 -.176E-08 0.176E-08
   -.102E-01 0.101E-01 -.101E-01   0.205E-01 -.202E-01 0.202E-01   0.000E+00 -.120E-20 0.169E-20   0.895E-08 -.107E-07 0.107E-07
   -.141E-04 -.101E-01 -.101E-01   0.277E-04 0.202E-01 0.202E-01   -.424E-21 -.339E-20 0.199E-19   -.176E-08 0.107E-07 0.107E-07
   -.141E-04 0.141E-04 0.141E-04   0.277E-04 -.277E-04 -.277E-04   -.424E-21 -.267E-19 -.169E-19   -.176E-08 0.176E-08 0.176E-08
   0.101E-01 -.101E-01 0.141E-04   -.202E-01 0.202E-01 -.277E-04   0.115E-21 0.301E-19 0.127E-20   -.107E-07 0.107E-07 0.176E-08
   0.101E-01 0.141E-04 -.101E-01   -.202E-01 -.277E-04 0.202E-01   -.632E-21 0.169E-20 -.339E-20   -.107E-07 0.176E-08 0.107E-07
   -.101E-01 -.101E-01 -.101E-01   0.202E-01 0.202E-01 0.202E-01   0.000E+00 0.678E-20 0.127E-19   0.107E-07 0.107E-07 0.107E-07
   -.101E-01 0.141E-04 0.141E-04   0.203E-01 -.277E-04 -.277E-04   0.000E+00 -.974E-20 -.635E-20   0.107E-07 0.176E-08 0.176E-08
   0.141E-04 -.101E-01 0.141E-04   -.277E-04 0.203E-01 -.277E-04   0.000E+00 -.144E-19 -.102E-19   0.176E-08 0.107E-07 0.176E-08
   0.141E-04 0.141E-04 -.101E-01   -.277E-04 -.277E-04 0.203E-01   -.847E-21 0.127E-20 0.127E-19   0.176E-08 0.176E-08 0.107E-07
   0.102E-01 -.101E-01 -.101E-01   -.205E-01 0.202E-01 0.202E-01   0.589E-21 0.254E-20 0.157E-19   -.895E-08 0.107E-07 0.107E-07
   0.102E-01 0.141E-04 0.141E-04   -.205E-01 -.277E-04 -.277E-04   -.301E-21 -.254E-20 -.233E-19   -.892E-08 0.176E-08 0.176E-08
   -.102E-01 -.101E-01 0.141E-04   0.205E-01 0.202E-01 -.277E-04   0.000E+00 -.212E-20 0.635E-20   0.898E-08 0.107E-07 0.176E-08
   -.102E-01 0.141E-04 -.101E-01   0.205E-01 -.277E-04 0.202E-01   0.000E+00 0.466E-20 0.339E-19   0.898E-08 0.176E-08 0.107E-07
   -.141E-04 0.102E-01 -.101E-01   0.277E-04 -.205E-01 0.202E-01   0.212E-20 -.154E-20 0.546E-19   -.176E-08 -.899E-08 0.107E-07
   -.141E-04 -.102E-01 0.141E-04   0.277E-04 0.205E-01 -.277E-04   0.000E+00 -.466E-20 -.119E-19   -.176E-08 0.891E-08 0.176E-08
   0.101E-01 0.102E-01 0.141E-04   -.202E-01 -.205E-01 -.277E-04   -.476E-21 -.135E-19 -.309E-19   -.107E-07 -.899E-08 0.176E-08
   0.101E-01 -.102E-01 -.101E-01   -.202E-01 0.205E-01 0.202E-01   -.130E-20 0.635E-20 0.106E-19   -.107E-07 0.895E-08 0.107E-07
   -.101E-01 0.102E-01 -.101E-01   0.202E-01 -.205E-01 0.202E-01   0.000E+00 0.270E-20 0.474E-19   0.107E-07 -.895E-08 0.107E-07
   -.101E-01 -.102E-01 0.141E-04   0.202E-01 0.205E-01 -.277E-04   0.000E+00 -.466E-20 0.508E-20   0.107E-07 0.898E-08 0.176E-08
   0.141E-04 0.102E-01 0.141E-04   -.277E-04 -.205E-01 -.277E-04   0.847E-21 0.157E-19 0.508E-20   0.176E-08 -.892E-08 0.176E-08
   0.141E-04 -.102E-01 -.101E-01   -.277E-04 0.205E-01 0.202E-01   -.847E-21 0.000E+00 -.237E-19   0.176E-08 0.898E-08 0.107E-07
   0.102E-01 0.102E-01 -.101E-01   -.205E-01 -.205E-01 0.202E-01   0.114E-20 -.280E-20 0.343E-19   -.895E-08 -.895E-08 0.107E-07
   0.102E-01 -.102E-01 0.141E-04   -.205E-01 0.205E-01 -.277E-04   0.480E-21 -.220E-19 -.847E-21   -.899E-08 0.898E-08 0.176E-08
   -.102E-01 0.102E-01 0.141E-04   0.205E-01 -.205E-01 -.277E-04   0.000E+00 -.503E-20 -.720E-20   0.898E-08 -.899E-08 0.176E-08
   -.102E-01 -.102E-01 -.101E-01   0.205E-01 0.205E-01 0.202E-01   0.000E+00 -.720E-20 0.296E-20   0.895E-08 0.895E-08 0.107E-07
   -.141E-04 -.141E-04 0.102E-01   0.277E-04 0.277E-04 -.205E-01   0.847E-21 0.000E+00 0.275E-19   -.176E-08 -.176E-08 -.892E-08
   -.141E-04 0.101E-01 -.102E-01   0.277E-04 -.202E-01 0.205E-01   -.127E-20 -.408E-20 -.296E-20   -.176E-08 -.107E-07 0.898E-08
   0.101E-01 -.141E-04 -.102E-01   -.202E-01 0.277E-04 0.205E-01   -.496E-23 -.174E-19 -.136E-19   -.107E-07 -.176E-08 0.898E-08
   0.101E-01 0.101E-01 0.102E-01   -.202E-01 -.202E-01 -.205E-01   0.178E-21 0.857E-20 0.395E-19   -.107E-07 -.107E-07 -.895E-08
   -.101E-01 -.141E-04 0.102E-01   0.202E-01 0.277E-04 -.205E-01   0.000E+00 -.381E-20 0.275E-19   0.107E-07 -.176E-08 -.899E-08
   -.101E-01 0.101E-01 -.102E-01   0.202E-01 -.202E-01 0.205E-01   0.000E+00 0.778E-20 -.678E-20   0.107E-07 -.107E-07 0.895E-08
   0.141E-04 -.141E-04 -.102E-01   -.277E-04 0.277E-04 0.205E-01   -.847E-21 0.169E-19 0.165E-19   0.176E-08 -.176E-08 0.891E-08
   0.141E-04 0.101E-01 0.102E-01   -.277E-04 -.202E-01 -.205E-01   0.424E-21 0.603E-20 -.135E-19   0.176E-08 -.107E-07 -.899E-08
   0.102E-01 -.141E-04 0.102E-01   -.205E-01 0.277E-04 -.205E-01   0.111E-21 0.424E-21 0.275E-19   -.899E-08 -.176E-08 -.899E-08
   0.102E-01 0.101E-01 -.102E-01   -.205E-01 -.202E-01 0.205E-01   -.138E-20 0.184E-19 -.974E-20   -.895E-08 -.107E-07 0.895E-08
   -.102E-01 -.141E-04 -.102E-01   0.205E-01 0.277E-04 0.205E-01   0.000E+00 -.106E-19 -.309E-19   0.898E-08 -.176E-08 0.898E-08
   -.102E-01 0.101E-01 0.102E-01   0.205E-01 -.202E-01 -.205E-01   0.000E+00 0.162E-19 0.546E-22   0.895E-08 -.107E-07 -.895E-08
   -.141E-04 -.101E-01 0.102E-01   0.277E-04 0.202E-01 -.205E-01   0.424E-21 0.424E-21 -.811E-20   -.176E-08 0.107E-07 -.899E-08
   -.141E-04 0.141E-04 -.102E-01   0.277E-04 -.277E-04 0.205E-01   -.847E-21 -.123E-19 0.195E-19   -.176E-08 0.176E-08 0.891E-08
   0.101E-01 -.101E-01 -.102E-01   -.202E-01 0.202E-01 0.205E-01   0.308E-21 0.339E-20 0.381E-20   -.107E-07 0.107E-07 0.895E-08
   0.101E-01 0.141E-04 0.102E-01   -.202E-01 -.277E-04 -.205E-01   0.566E-21 -.847E-21 0.123E-19   -.107E-07 0.176E-08 -.899E-08
   -.101E-01 -.101E-01 0.102E-01   0.202E-01 0.202E-01 -.205E-01   0.000E+00 -.339E-20 0.206E-20   0.107E-07 0.107E-07 -.895E-08
   -.101E-01 0.141E-04 -.102E-01   0.202E-01 -.277E-04 0.205E-01   0.000E+00 0.127E-20 0.110E-19   0.107E-07 0.176E-08 0.898E-08
   0.141E-04 -.101E-01 -.102E-01   -.277E-04 0.202E-01 0.205E-01   -.424E-21 -.241E-19 0.847E-21   0.176E-08 0.107E-07 0.898E-08
   0.141E-04 0.141E-04 0.102E-01   -.277E-04 -.277E-04 -.205E-01   -.424E-21 0.169E-20 -.152E-19   0.176E-08 0.176E-08 -.892E-08
   0.102E-01 -.101E-01 0.102E-01   -.205E-01 0.202E-01 -.205E-01   -.269E-20 0.424E-21 0.156E-19   -.895E-08 0.107E-07 -.895E-08
   0.102E-01 0.141E-04 -.102E-01   -.205E-01 -.277E-04 0.205E-01   -.107E-20 0.152E-19 0.263E-19   -.899E-08 0.176E-08 0.898E-08
   -.102E-01 -.101E-01 -.102E-01   0.205E-01 0.202E-01 0.205E-01   0.000E+00 -.424E-21 0.720E-20   0.895E-08 0.107E-07 0.895E-08
   -.102E-01 0.141E-04 0.102E-01   0.205E-01 -.277E-04 -.205E-01   0.000E+00 -.339E-20 -.287E-19   0.898E-08 0.176E-08 -.899E-08
   -.141E-04 0.102E-01 0.102E-01   0.277E-04 -.205E-01 -.205E-01   -.424E-21 -.112E-19 -.619E-19   -.176E-08 -.899E-08 -.899E-08
   -.141E-04 -.102E-01 -.102E-01   0.277E-04 0.205E-01 0.205E-01   0.000E+00 0.119E-19 0.157E-19   -.176E-08 0.898E-08 0.898E-08
   0.101E-01 0.102E-01 -.102E-01   -.202E-01 -.205E-01 0.205E-01   -.167E-21 -.122E-19 0.974E-20   -.107E-07 -.895E-08 0.895E-08
   0.101E-01 -.102E-01 0.102E-01   -.202E-01 0.205E-01 -.205E-01   -.963E-21 -.932E-20 -.173E-19   -.107E-07 0.895E-08 -.895E-08
   -.101E-01 0.102E-01 0.102E-01   0.202E-01 -.205E-01 -.205E-01   0.000E+00 -.143E-20 -.411E-19   0.107E-07 -.895E-08 -.895E-08
   -.101E-01 -.102E-01 -.102E-01   0.202E-01 0.205E-01 0.205E-01   0.000E+00 0.102E-19 -.114E-19   0.107E-07 0.895E-08 0.895E-08
   0.141E-04 0.102E-01 -.102E-01   -.277E-04 -.205E-01 0.205E-01   0.847E-21 0.102E-19 0.203E-19   0.176E-08 -.899E-08 0.898E-08
   0.141E-04 -.102E-01 0.102E-01   -.277E-04 0.205E-01 -.205E-01   -.424E-21 -.161E-19 0.339E-19   0.176E-08 0.898E-08 -.899E-08
   0.102E-01 0.102E-01 0.102E-01   -.205E-01 -.205E-01 -.205E-01   0.202E-20 0.450E-20 -.763E-19   -.895E-08 -.895E-08 -.895E-08
   0.102E-01 -.102E-01 -.102E-01   -.205E-01 0.205E-01 0.205E-01   -.117E-20 -.847E-20 0.212E-19   -.895E-08 0.895E-08 0.895E-08
   -.102E-01 0.102E-01 -.102E-01   0.205E-01 -.205E-01 0.205E-01   0.000E+00 0.472E-20 0.381E-20   0.895E-08 -.895E-08 0.895E-08
   -.102E-01 -.102E-01 0.102E-01   0.205E-01 0.205E-01 -.205E-01   0.000E+00 -.932E-20 0.512E-20   0.895E-08 0.895E-08 -.895E-08
 -----------------------------------------------------------------------------------------------
   0.618E-10 0.977E-10 0.117E-10   0.199E-12 0.130E-14 -.809E-13   -.729E-20 -.179E-18 0.594E-20   -.741E-12 -.192E-11 -.394E-11
 
 
 POSITION                                       TOTAL-FORCE (eV/Angst)
 -----------------------------------------------------------------------------------
      0.00000      0.00000      0.00000         0.000000     -0.000000      0.000000
      0.00000      1.72250      1.72250        -0.000000      0.000000      0.000000
      1.72250      0.00000      1.72250        -0.000000     -0.000000      0.000000
      1.72250      1.72250      0.00000         0.000000      0.000000     -0.000000
      3.44493      0.00000      0.00000         0.000000     -0.000000      0.000000
      3.44493      1.72250      1.72250         0.000000     -0.000000     -0.000000
      5.16742      0.00000      1.72250        -0.000000     -0.000000      0.000000
      5.16742      1.72250      0.00000        -0.000000     -0.000000      0.000000
      6.88992      0.00000      0.00000         0.000000      0.000000      0.000000
      6.88992      1.72250      1.72250        -0.000000      0.000000     -0.000000
      8.61235      0.00000      1.72250        -0.000000      0.000000      0.000000
      8.61235      1.72250      0.00000         0.000000     -0.000000     -0.000000
      0.00000      3.44493      0.00000         0.000000      0.000000      0.000000
      0.00000      5.16742      1.72250        -0.000000      0.000000      0.000000
      1.72250      3.44493      1.72250         0.000000      0.000000     -0.000000
      1.72250      5.16742      0.00000        -0.000000     -0.000000     -0.000000
      3.44493      3.44493      0.00000        -0.000000      0.000000      0.000000
      3.44493      5.16742      1.72250         0.000000     -0.000000     -0.000000
      5.16742      3.44493      1.72250         0.000000     -0.000000     -0.000000
      5.16742      5.16742      0.00000        -0.000000     -0.000000     -0.000000
      6.88992      3.44493      0.00000         0.000000      0.000000      0.000000
      6.88992      5.16742      1.72250        -0.000000     -0.000000     -0.000000
      8.61235      3.44493      1.72250        -0.000000      0.000000     -0.000000
      8.61235      5.16742      0.00000         0.000000      0.000000     -0.000000
      0.00000      6.88992      0.00000         0.000000     -0.000000      0.000000
      0.00000      8.61235      1.72250        -0.000000      0.000000      0.000000
      1.72250      6.88992      1.72250         0.000000      0.000000     -0.000000
      1.72250      8.61235      0.00000        -0.000000      0.000000     -0.000000
      3.44493      6.88992      0.00000         0.000000     -0.000000      0.000000
      3.44493      8.61235      1.72250         0.000000     -0.000000      0.000000
      5.16742      6.88992      1.72250         0.000000     -0.000000     -0.000000
      5.16742      8.61235      0.00000         0.000000      0.000000      0.000000
      6.88992      6.88992      0.00000         0.000000      0.000000     -0.000000
      6.88992      8.61235      1.72250        -0.000000     -0.000000     -0.000000
      8.61235      6.88992      1.72250        -0.000000      0.000000     -0.000000
      8.61235      8.61235      0.00000         0.000000     -0.000000     -0.000000
      0.00000      0.00000      3.44493        -0.000000     -0.000000     -0.000000
      0.00000      1.72250      5.16742         0.000000     -0.000000      0.000000
      1.72250      0.00000      5.16742        -0.000000      0.000000      0.000000
      1.72250      1.72250      3.44493         0.000000      0.000000      0.000000
      3.44493      0.00000      3.44493        -0.000000     -0.000000     -0.000000
      3.44493      1.72250      5.16742        -0.000000     -0.000000     -0.000000
      5.16742      0.00000      5.16742         0.000000     -0.000000      0.000000
      5.16742      1.72250      3.44493        -0.000000      0.000000     -0.000000
      6.88992      0.00000      3.44493        -0.000000      0.000000      0.000000
      6.88992      1.72250      5.16742         0.000000     -0.000000     -0.000000
      8.61235      0.00000      5.16742        -0.000000     -0.000000      0.000000
      8.61235      1.72250      3.44493        -0.000000      0.000000      0.000000
      0.00000      3.44493      3.44493        -0.000000      0.000000      0.000000
      0.00000      5.16742      5.16742         0.000000      0.000000      0.000000
      1.72250      3.44493      5.16742        -0.000000     -0.000000      0.000000
      1.72250      5.16742      3.44493        -0.000000     -0.000000      0.000000
      3.44493      3.44493      3.44493        -0.000000      0.000000     -0.000000
      3.44493      5.16742      5.16742        -0.000000     -0.000000     -0.000000
      5.16742      3.44493      5.16742        -0.000000      0.000000     -0.000000
      5.16742      5.16742      3.44493        -0.000000      0.000000      0.000000
      6.88992      3.44493      3.44493         0.000000      0.000000     -0.000000
      6.88992      5.16742      5.16742         0.000000     -0.000000     -0.000000
      8.61235      3.44493      5.16742        -0.000000      0.000000     -0.000000
      8.61235      5.16742      3.44493        -0.000000      0.000000      0.000000
      0.00000      6.88992      3.44493         0.000000     -0.000000     -0.000000
      0.00000      8.61235      5.16742        -0.000000      0.000000     -0.000000
      1.72250      6.88992      5.16742         0.000000      0.000000     -0.000000
      1.72250      8.61235      3.44493         0.000000     -0.000000      0.000000
      3.44493      6.88992      3.44493        -0.000000     -0.000000     -0.000000
      3.44493      8.61235      5.16742        -0.000000     -0.000000      0.000000
      5.16742      6.88992      5.16742         0.000000     -0.000000     -0.000000
      5.16742      8.61235      3.44493        -0.000000      0.000000     -0.000000
      6.88992      6.88992      3.44493        -0.000000      0.000000      0.000000
      6.88992      8.61235      5.16742         0.000000      0.000000     -0.000000
      8.61235      6.88992      5.16742        -0.000000     -0.000000     -0.000000
      8.61235      8.61235      3.44493        -0.000000     -0.000000      0.000000
      0.00000      0.00000      6.88992        -0.000000     -0.000000      0.000000
      0.00000      1.72250      8.61235        -0.000000      0.000000     -0.000000
      1.72250      0.00000      8.61235         0.000000      0.000000     -0.000000
      1.72250      1.72250      6.88992         0.000000      0.000000     -0.000000
      3.44493      0.00000      6.88992         0.000000     -0.000000      0.000000
      3.44493      1.72250      8.61235        -0.000000     -0.000000      0.000000
      5.16742      0.00000      8.61235        -0.000000     -0.000000     -0.000000
      5.16742      1.72250      6.88992         0.000000     -0.000000      0.000000
      6.88992      0.00000      6.88992        -0.000000      0.000000      0.000000
      6.88992      1.72250      8.61235        -0.000000      0.000000      0.000000
      8.61235      0.00000      8.61235        -0.000000     -0.000000      0.000000
      8.61235      1.72250      6.88992        -0.000000     -0.000000     -0.000000
      0.00000      3.44493      6.88992        -0.000000      0.000000     -0.000000
      0.00000      5.16742      8.61235        -0.000000      0.000000     -0.000000
      1.72250      3.44493      8.61235         0.000000     -0.000000      0.000000
      1.72250      5.16742      6.88992         0.000000      0.000000      0.000000
      3.44493      3.44493      6.88992         0.000000      0.000000      0.000000
      3.44493      5.16742      8.61235        -0.000000     -0.000000     -0.000000
      5.16742      3.44493      8.61235         0.000000      0.000000      0.000000
      5.16742      5.16742      6.88992         0.000000      0.000000     -0.000000
      6.88992      3.44493      6.88992        -0.000000     -0.000000      0.000000
      6.88992      5.16742      8.61235         0.000000      0.000000      0.000000
      8.61235      3.44493      8.61235        -0.000000      0.000000      0.000000
      8.61235      5.16742      6.88992        -0.000000     -0.000000     -0.000000
      0.00000      6.88992      6.88992        -0.000000     -0.000000      0.000000
      0.00000      8.61235      8.61235        -0.000000      0.000000     -0.000000
      1.72250      6.88992      8.61235        -0.000000      0.000000      0.000000
      1.72250      8.61235      6.88992         0.000000      0.000000     -0.000000
      3.44493      6.88992      6.88992        -0.000000      0.000000     -0.000000
      3.44493      8.61235      8.61235        -0.000000     -0.000000     -0.000000
      5.16742      6.88992      8.61235        -0.000000     -0.000000      0.000000
      5.16742      8.61235      6.88992         0.000000      0.000000     -0.000000
      6.88992      6.88992      6.88992         0.000000     -0.000000     -0.000000
      6.88992      8.61235      8.61235         0.000000      0.000000      0.000000
      8.61235      6.88992      8.61235        -0.000000     -0.000000      0.000000
      8.61235      8.61235      6.88992        -0.000000     -0.000000     -0.000000
 -----------------------------------------------------------------------------------
    total drift:                                0.000000      0.000000      0.000000


--------------------------------------------------------------------------------------------------------



  FREE ENERGIE OF THE ION-ELECTRON SYSTEM (eV)
  ---------------------------------------------------
  free  energy   TOTEN  =      -831.48892342 eV

  energy  without entropy=     -831.44016971  energy(sigma->0) =     -831.47267218
 


--------------------------------------------------------------------------------------------------------


    POTLOK:  cpu time    0.3507: real time    0.3507


--------------------------------------------------------------------------------------------------------




--------------------------------------------------------------------------------------------------------


    WAVPRE:  cpu time    0.2042: real time    0.2061
    FEWALD:  cpu time    0.0090: real time    0.0090
    GENKIN:  cpu time    0.0092: real time    0.0092

 real space projection operators:
  total allocation   :     502083.56 KBytes
  max/ min on nodes  :     126147.38     124248.94

    ORTHCH:  cpu time   18.1970: real time   18.2054
     LOOP+:  cpu time 1422.7020: real time 1423.1171


--------------------------------------- Iteration      2(   1)  ---------------------------------------


    POTLOK:  cpu time    0.3041: real time    0.3052
    SETDIJ:  cpu time    0.1500: real time    0.1501
