<?xml version="1.0" encoding="ISO-8859-1"?>
<modeling>
 <generator>
  <i name="program" type="string">vasp </i>
  <i name="version" type="string">5.4.4.18Apr17-6-g9f103f2a35  </i>
  <i name="subversion" type="string">(build Aug 17 2017 06:00:38) complex            parallel </i>
  <i name="platform" type="string">LinuxIFC </i>
  <i name="date" type="string">2019 07 12 </i>
  <i name="time" type="string">14:57:58 </i>
 </generator>
 <incar>
  <i type="string" name="SYSTEM">Opt</i>
  <i type="int" name="ISTART">     0</i>
  <i type="string" name="PREC">normal</i>
  <i type="string" name="ALGO"> Fast</i>
  <i type="int" name="ISPIN">     1</i>
  <i type="int" name="ICHARG">     2</i>
  <i type="int" name="NELM">   400</i>
  <i type="int" name="IBRION">     2</i>
  <i name="EDIFF">      0.00000100</i>
  <i name="EDIFFG">     -0.01000000</i>
  <i type="int" name="NSW">   100</i>
  <i type="int" name="ISIF">     3</i>
  <i name="ENCUT">    200.00000000</i>
  <i type="int" name="NGX">    72</i>
  <i type="int" name="NGY">    72</i>
  <i type="int" name="NGZ">    72</i>
  <i name="POTIM">      0.50000000</i>
  <i type="string" name="LREAL">Auto</i>
  <i type="logical" name="LWAVE"> F  </i>
  <i type="logical" name="LCHARG"> F  </i>
  <v type="int" name="KPOINT_BSE">    -1     0     0     0</v>
  <i type="int" name="NELM">   400</i>
 </incar>
 <structure name="primitive_cell" >
  <crystal>
   <varray name="basis" >
    <v>       3.44492529       0.00000000       0.00000000 </v>
    <v>       0.00000000       3.44492529       0.00000000 </v>
    <v>       0.00000000       0.00000000       3.44492524 </v>
   </varray>
   <i name="volume">     40.88268566 </i>
   <varray name="rec_basis" >
    <v>       0.29028206       0.00000000       0.00000000 </v>
    <v>       0.00000000       0.29028206       0.00000000 </v>
    <v>       0.00000000       0.00000000       0.29028206 </v>
   </varray>
  </crystal>
  <varray name="positions" >
   <v>       0.00000000       0.00000000       0.00000000 </v>
   <v>       0.00000000      -0.49998976      -0.49998975 </v>
   <v>      -0.49998976       0.00000000      -0.49998975 </v>
   <v>      -0.49998976      -0.49998976       0.00000000 </v>
  </varray>
 </structure>
 <varray name="primitive_index" >
  <v type="int" >        1 </v>
  <v type="int" >        2 </v>
  <v type="int" >        3 </v>
  <v type="int" >        4 </v>
 </varray>
 <kpoints>
  <generation param="Monkhorst-Pack">
   <v type="int" name="divisions">       4        4        4 </v>
   <v name="usershift">      0.00000000       0.00000000       0.00000000 </v>
   <v name="genvec1">      0.25000000       0.00000000       0.00000000 </v>
   <v name="genvec2">      0.00000000       0.25000000       0.00000000 </v>
   <v name="genvec3">      0.00000000       0.00000000       0.25000000 </v>
   <v name="shift">      0.50000000       0.50000000       0.50000000 </v>
  </generation>
  <varray name="kpointlist" >
   <v>       0.12500000       0.12500000       0.12500000 </v>
   <v>       0.37500000       0.12500000       0.12500000 </v>
   <v>       0.37500000       0.37500000       0.12500000 </v>
   <v>       0.37500000       0.37500000       0.37500000 </v>
  </varray>
  <varray name="weights" >
   <v>       0.12500000 </v>
   <v>       0.37500000 </v>
   <v>       0.37500000 </v>
   <v>       0.12500000 </v>
  </varray>
 </kpoints>
 <parameters>
  <separator name="general" >
   <i type="string" name="SYSTEM">Opt</i>
   <i type="logical" name="LCOMPAT"> F  </i>
  </separator>
  <separator name="electronic" >
   <i type="string" name="PREC">normal</i>
   <i name="ENMAX">    200.00000000</i>
   <i name="ENAUG">    511.36800000</i>
   <i name="EDIFF">      0.00000100</i>
   <i type="int" name="IALGO">    68</i>
   <i type="int" name="IWAVPR">    11</i>
   <i type="int" name="NBANDS">   518</i>
   <i name="NELECT">    864.00000000</i>
   <i type="int" name="TURBO">     0</i>
   <i type="int" name="IRESTART">     0</i>
   <i type="int" name="NREBOOT">     0</i>
   <i type="int" name="NMIN">     0</i>
   <i name="EREF">      0.00000000</i>
   <separator name="electronic smearing" >
    <i type="int" name="ISMEAR">     1</i>
    <i name="SIGMA">      0.20000000</i>
    <i name="KSPACING">      0.50000000</i>
    <i type="logical" name="KGAMMA"> T  </i>
   </separator>
   <separator name="electronic projectors" >
    <i type="logical" name="LREAL"> T  </i>
    <v name="ROPT">     -0.00050000</v>
    <i type="int" name="LMAXPAW">  -100</i>
    <i type="int" name="LMAXMIX">     2</i>
    <i type="logical" name="NLSPLINE"> F  </i>
   </separator>
   <separator name="electronic startup" >
    <i type="int" name="ISTART">     0</i>
    <i type="int" name="ICHARG">     2</i>
    <i type="int" name="INIWAV">     1</i>
   </separator>
   <separator name="electronic spin" >
    <i type="int" name="ISPIN">     1</i>
    <i type="logical" name="LNONCOLLINEAR"> F  </i>
    <v name="MAGMOM">      1.00000000      1.00000000      1.00000000      1.00000000      1.00000000      1.00000000      1.00000000      1.00000000      1.00000000      1.00000000      1.00000000      1.00000000      1.00000000      1.00000000      1.00000000      1.00000000      1.00000000      1.00000000      1.00000000      1.00000000
      1.00000000      1.00000000      1.00000000      1.00000000      1.00000000      1.00000000      1.00000000      1.00000000      1.00000000      1.00000000      1.00000000      1.00000000      1.00000000      1.00000000      1.00000000      1.00000000      1.00000000      1.00000000      1.00000000      1.00000000
      1.00000000      1.00000000      1.00000000      1.00000000      1.00000000      1.00000000      1.00000000      1.00000000      1.00000000      1.00000000      1.00000000      1.00000000      1.00000000      1.00000000      1.00000000      1.00000000      1.00000000      1.00000000      1.00000000      1.00000000
      1.00000000      1.00000000      1.00000000      1.00000000      1.00000000      1.00000000      1.00000000      1.00000000      1.00000000      1.00000000      1.00000000      1.00000000      1.00000000      1.00000000      1.00000000      1.00000000      1.00000000      1.00000000      1.00000000      1.00000000
      1.00000000      1.00000000      1.00000000      1.00000000      1.00000000      1.00000000      1.00000000      1.00000000      1.00000000      1.00000000      1.00000000      1.00000000      1.00000000      1.00000000      1.00000000      1.00000000      1.00000000      1.00000000      1.00000000      1.00000000
      1.00000000      1.00000000      1.00000000      1.00000000      1.00000000      1.00000000      1.00000000      1.00000000</v>
    <i name="NUPDOWN">     -1.00000000</i>
    <i type="logical" name="LSORBIT"> F  </i>
    <v name="SAXIS">      0.00000000      0.00000000      1.00000000</v>
    <i type="logical" name="LSPIRAL"> F  </i>
    <v name="QSPIRAL">      0.00000000      0.00000000      0.00000000</v>
    <i type="logical" name="LZEROZ"> F  </i>
   </separator>
   <separator name="electronic exchange-correlation" >
    <i type="logical" name="LASPH"> F  </i>
    <i type="logical" name="LMETAGGA"> F  </i>
   </separator>
   <separator name="electronic convergence" >
    <i type="int" name="NELM">   400</i>
    <i type="int" name="NELMDL">    -5</i>
    <i type="int" name="NELMIN">     2</i>
    <i name="ENINI">    200.00000000</i>
    <separator name="electronic convergence detail" >
     <i type="logical" name="LDIAG"> T  </i>
     <i type="logical" name="LSUBROT"> F  </i>
     <i name="WEIMIN">      0.00100000</i>
     <i name="EBREAK">      0.00000000</i>
     <i name="DEPER">      0.30000000</i>
     <i type="int" name="NRMM">     4</i>
     <i name="TIME">      0.40000000</i>
    </separator>
   </separator>
   <separator name="electronic mixer" >
    <i name="AMIX">      0.40000000</i>
    <i name="BMIX">      1.00000000</i>
    <i name="AMIN">      0.10000000</i>
    <i name="AMIX_MAG">      1.60000000</i>
    <i name="BMIX_MAG">      1.00000000</i>
    <separator name="electronic mixer details" >
     <i type="int" name="IMIX">     4</i>
     <i type="logical" name="MIXFIRST"> F  </i>
     <i type="int" name="MAXMIX">   -45</i>
     <i name="WC">    100.00000000</i>
     <i type="int" name="INIMIX">     1</i>
     <i type="int" name="MIXPRE">     1</i>
     <i type="int" name="MREMOVE">     5</i>
    </separator>
   </separator>
   <separator name="electronic dipolcorrection" >
    <i type="logical" name="LDIPOL"> F  </i>
    <i type="logical" name="LMONO"> F  </i>
    <i type="int" name="IDIPOL">     0</i>
    <i name="EPSILON">      1.00000000</i>
    <v name="DIPOL">   -100.00000000   -100.00000000   -100.00000000</v>
    <i name="EFIELD">      0.00000000</i>
   </separator>
  </separator>
  <separator name="grids" >
   <i type="int" name="NGX">    72</i>
   <i type="int" name="NGY">    72</i>
   <i type="int" name="NGZ">    72</i>
   <i type="int" name="NGXF">   144</i>
   <i type="int" name="NGYF">   144</i>
   <i type="int" name="NGZF">   144</i>
   <i type="logical" name="ADDGRID"> F  </i>
  </separator>
  <separator name="ionic" >
   <i type="int" name="NSW">   100</i>
   <i type="int" name="IBRION">     2</i>
   <i type="int" name="MDALGO">     0</i>
   <i type="int" name="ISIF">     3</i>
   <i name="PSTRESS">      0.00000000</i>
   <i name="EDIFFG">     -0.01000000</i>
   <i type="int" name="NFREE">     1</i>
   <i name="POTIM">      0.50000000</i>
   <i name="SMASS">     -3.00000000</i>
   <i name="SCALEE">      1.00000000</i>
  </separator>
  <separator name="ionic md" >
   <i name="TEBEG">      0.00010000</i>
   <i name="TEEND">      0.00010000</i>
   <i type="int" name="NBLOCK">     1</i>
   <i type="int" name="KBLOCK">   100</i>
   <i type="int" name="NPACO">   256</i>
   <i name="APACO">     16.00000000</i>
  </separator>
  <separator name="symmetry" >
   <i type="int" name="ISYM">     2</i>
   <i name="SYMPREC">      0.00001000</i>
  </separator>
  <separator name="dos" >
   <i type="int" name="LORBIT">     0</i>
   <v name="RWIGS">     -1.00000000</v>
   <i type="int" name="NEDOS">   301</i>
   <i name="EMIN">     10.00000000</i>
   <i name="EMAX">    -10.00000000</i>
   <i name="EFERMI">      0.00000000</i>
  </separator>
  <separator name="writing" >
   <i type="int" name="NWRITE">     2</i>
   <i type="logical" name="LWAVE"> F  </i>
   <i type="logical" name="LDOWNSAMPLE"> F  </i>
   <i type="logical" name="LCHARG"> F  </i>
   <i type="logical" name="LPARD"> F  </i>
   <i type="logical" name="LVTOT"> F  </i>
   <i type="logical" name="LVHAR"> F  </i>
   <i type="logical" name="LELF"> F  </i>
   <i type="logical" name="LOPTICS"> F  </i>
   <v name="STM">      0.00000000      0.00000000      0.00000000      0.00000000      0.00000000      0.00000000      0.00000000</v>
  </separator>
  <separator name="performance" >
   <i type="int" name="NPAR">     2</i>
   <i type="int" name="NSIM">     4</i>
   <i type="int" name="NBLK">    -1</i>
   <i type="logical" name="LPLANE"> T  </i>
   <i type="logical" name="LSCALAPACK"> T  </i>
   <i type="logical" name="LSCAAWARE"> F  </i>
   <i type="logical" name="LSCALU"> F  </i>
   <i type="logical" name="LASYNC"> F  </i>
   <i type="logical" name="LORBITALREAL"> F  </i>
  </separator>
  <separator name="miscellaneous" >
   <i type="int" name="IDIOT">     3</i>
   <i type="int" name="ISPECIAL">     0</i>
   <i type="logical" name="LMUSIC"> F  </i>
   <v name="POMASS">     55.84700000</v>
   <v name="DARWINR">      0.00000000</v>
   <v name="DARWINV">      1.00000000</v>
   <i type="logical" name="LCORR"> T  </i>
  </separator>
  <i type="logical" name="GGA_COMPAT"> T  </i>
  <i type="logical" name="LBERRY"> F  </i>
  <i type="int" name="ICORELEVEL">     0</i>
  <i type="logical" name="LDAU"> F  </i>
  <i type="int" name="I_CONSTRAINED_M">     0</i>
  <separator name="electronic exchange-correlation" >
   <i type="string" name="GGA">--</i>
   <i type="int" name="VOSKOWN">     0</i>
   <i type="logical" name="LHFCALC"> F  </i>
   <i type="string" name="PRECFOCK"></i>
   <i type="logical" name="LSYMGRAD"> F  </i>
   <i type="logical" name="LHFONE"> F  </i>
   <i type="logical" name="LRHFCALC"> F  </i>
   <i type="logical" name="LTHOMAS"> F  </i>
   <i type="logical" name="LMODELHF"> F  </i>
   <i name="ENCUT4O">     -1.00000000</i>
   <i type="int" name="EXXOEP">     0</i>
   <i type="int" name="FOURORBIT">     0</i>
   <i name="AEXX">      0.00000000</i>
   <i name="HFALPHA">      0.00000000</i>
   <i name="MCALPHA">      0.00000000</i>
   <i name="ALDAX">      1.00000000</i>
   <i name="AGGAX">      1.00000000</i>
   <i name="ALDAC">      1.00000000</i>
   <i name="AGGAC">      1.00000000</i>
   <i type="int" name="NKREDX">     1</i>
   <i type="int" name="NKREDY">     1</i>
   <i type="int" name="NKREDZ">     1</i>
   <i type="logical" name="SHIFTRED"> F  </i>
   <i type="logical" name="ODDONLY"> F  </i>
   <i type="logical" name="EVENONLY"> F  </i>
   <i type="int" name="LMAXFOCK">     0</i>
   <i type="int" name="NMAXFOCKAE">     0</i>
   <i type="logical" name="LFOCKAEDFT"> F  </i>
   <i name="HFSCREEN">      0.00000000</i>
   <i name="HFSCREENC">      0.00000000</i>
   <i type="int" name="NBANDSGWLOW">     0</i>
  </separator>
  <separator name="vdW DFT" >
   <i type="logical" name="LUSE_VDW"> F  </i>
   <i name="Zab_VDW">     -0.84910000</i>
   <i name="PARAM1">      0.12340000</i>
   <i name="PARAM2">      1.00000000</i>
   <i name="PARAM3">      0.00000000</i>
  </separator>
  <separator name="model GW" >
   <i type="int" name="MODEL_GW">     0</i>
   <i name="MODEL_EPS0">      6.13252964</i>
   <i name="MODEL_ALPHA">      1.00000000</i>
  </separator>
  <separator name="linear response parameters" >
   <i type="logical" name="LEPSILON"> F  </i>
   <i type="logical" name="LRPA"> F  </i>
   <i type="logical" name="LNABLA"> F  </i>
   <i type="logical" name="LVEL"> F  </i>
   <i type="int" name="KINTER">     0</i>
   <i name="CSHIFT">      0.10000000</i>
   <i name="OMEGAMAX">     -1.00000000</i>
   <i name="DEG_THRESHOLD">      0.00200000</i>
   <i name="RTIME">     -0.10000000</i>
   <i name="WPLASMAI">      0.00000000</i>
   <v name="DFIELD">      0.00000000      0.00000000      0.00000000</v>
   <v name="WPLASMA">      0.00000000      0.00000000      0.00000000      0.00000000      0.00000000      0.00000000      0.00000000      0.00000000      0.00000000</v>
  </separator>
  <separator name="orbital magnetization" >
   <i type="logical" name="NUCIND"> F  </i>
   <v name="MAGPOS">      0.00000000      0.00000000      0.00000000</v>
   <i type="logical" name="LNICSALL"> T  </i>
   <i type="logical" name="ORBITALMAG"> F  </i>
   <i type="logical" name="LMAGBLOCH"> F  </i>
   <i type="logical" name="LCHIMAG"> F  </i>
   <i type="logical" name="LGAUGE"> T  </i>
   <i type="int" name="MAGATOM">     0</i>
   <v name="MAGDIPOL">      0.00000000      0.00000000      0.00000000</v>
   <v name="AVECCONST">      0.00000000      0.00000000      0.00000000</v>
  </separator>
  <separator name="response functions" >
   <i type="logical" name="LADDER"> F  </i>
   <i type="logical" name="LRPAFORCE"> F  </i>
   <i type="logical" name="LFXC"> F  </i>
   <i type="logical" name="LHARTREE"> T  </i>
   <i type="int" name="IBSE">     0</i>
   <v type="int" name="KPOINT">    -1     0     0     0</v>
   <i type="logical" name="LTCTE"> F  </i>
   <i type="logical" name="LTETE"> F  </i>
   <i type="logical" name="LTRIPLET"> F  </i>
   <i type="logical" name="LFXCEPS"> F  </i>
   <i type="logical" name="LFXHEG"> F  </i>
   <i type="int" name="NATURALO">     2</i>
   <i type="logical" name="L2ORDER"> F  </i>
   <i type="logical" name="LMP2LT"> F  </i>
   <i type="logical" name="LUSEW"> F  </i>
   <i name="ENCUTGW">     -2.00000000</i>
   <i name="ENCUTGWSOFT">     -2.00000000</i>
   <i name="ENCUTLF">     -1.00000000</i>
   <i type="int" name="LMAXMP2">    -1</i>
   <i name="SCISSOR">      0.00000000</i>
   <i type="int" name="NOMEGA">     0</i>
   <i type="int" name="NOMEGAR">     0</i>
   <i type="int" name="NBANDSGW">    -1</i>
   <i type="int" name="NBANDSO">    -1</i>
   <i type="int" name="NBANDSV">    -1</i>
   <i type="int" name="NELM">   400</i>
   <i type="int" name="NELMHF">     1</i>
   <i type="int" name="DIM">     3</i>
   <i type="int" name="ANTIRES">     0</i>
   <i name="OMEGAMAX">    -30.00000000</i>
   <i name="OMEGAMIN">    -30.00000000</i>
   <i name="OMEGATL">   -200.00000000</i>
   <i type="int" name="OMEGAGRID">   140</i>
   <i name="CSHIFT">     -0.10000000</i>
   <i type="logical" name="SELFENERGY"> F  </i>
   <i type="logical" name="LSPECTRAL"> F  </i>
   <i type="logical" name="LSPECTRALGW"> F  </i>
   <i type="logical" name="LSINGLES"> F  </i>
   <i type="logical" name="LFERMIGW"> F  </i>
   <i type="logical" name="ODDONLYGW"> F  </i>
   <i type="logical" name="EVENONLYGW"> F  </i>
   <i type="int" name="NKREDLFX">     1</i>
   <i type="int" name="NKREDLFY">     1</i>
   <i type="int" name="NKREDLFZ">     1</i>
   <i type="int" name="MAXMEM">  2800</i>
   <i type="int" name="TELESCOPE">     0</i>
   <i type="int" name="TAUPAR">     1</i>
   <i type="int" name="OMEGAPAR">    -1</i>
   <i name="LAMBDA">      1.00000000</i>
  </separator>
  <separator name="External order field" >
   <i name="OFIELD_KAPPA">      0.00000000</i>
   <v name="OFIELD_K">      0.00000000      0.00000000      0.00000000</v>
   <i name="OFIELD_Q6_NEAR">      0.00000000</i>
   <i name="OFIELD_Q6_FAR">      0.00000000</i>
   <i name="OFIELD_A">      0.00000000</i>
  </separator>
 </parameters>
 <atominfo>
  <atoms>     108 </atoms>
  <types>       1 </types>
  <array name="atoms" >
   <dimension dim="1">ion</dimension>
   <field type="string">element</field>
   <field type="int">atomtype</field>
   <set>
    <rc><c>Fe</c><c>   1</c></rc>
    <rc><c>Fe</c><c>   1</c></rc>
    <rc><c>Fe</c><c>   1</c></rc>
    <rc><c>Fe</c><c>   1</c></rc>
    <rc><c>Fe</c><c>   1</c></rc>
    <rc><c>Fe</c><c>   1</c></rc>
    <rc><c>Fe</c><c>   1</c></rc>
    <rc><c>Fe</c><c>   1</c></rc>
    <rc><c>Fe</c><c>   1</c></rc>
    <rc><c>Fe</c><c>   1</c></rc>
    <rc><c>Fe</c><c>   1</c></rc>
    <rc><c>Fe</c><c>   1</c></rc>
    <rc><c>Fe</c><c>   1</c></rc>
    <rc><c>Fe</c><c>   1</c></rc>
    <rc><c>Fe</c><c>   1</c></rc>
    <rc><c>Fe</c><c>   1</c></rc>
    <rc><c>Fe</c><c>   1</c></rc>
    <rc><c>Fe</c><c>   1</c></rc>
    <rc><c>Fe</c><c>   1</c></rc>
    <rc><c>Fe</c><c>   1</c></rc>
    <rc><c>Fe</c><c>   1</c></rc>
    <rc><c>Fe</c><c>   1</c></rc>
    <rc><c>Fe</c><c>   1</c></rc>
    <rc><c>Fe</c><c>   1</c></rc>
    <rc><c>Fe</c><c>   1</c></rc>
    <rc><c>Fe</c><c>   1</c></rc>
    <rc><c>Fe</c><c>   1</c></rc>
    <rc><c>Fe</c><c>   1</c></rc>
    <rc><c>Fe</c><c>   1</c></rc>
    <rc><c>Fe</c><c>   1</c></rc>
    <rc><c>Fe</c><c>   1</c></rc>
    <rc><c>Fe</c><c>   1</c></rc>
    <rc><c>Fe</c><c>   1</c></rc>
    <rc><c>Fe</c><c>   1</c></rc>
    <rc><c>Fe</c><c>   1</c></rc>
    <rc><c>Fe</c><c>   1</c></rc>
    <rc><c>Fe</c><c>   1</c></rc>
    <rc><c>Fe</c><c>   1</c></rc>
    <rc><c>Fe</c><c>   1</c></rc>
    <rc><c>Fe</c><c>   1</c></rc>
    <rc><c>Fe</c><c>   1</c></rc>
    <rc><c>Fe</c><c>   1</c></rc>
    <rc><c>Fe</c><c>   1</c></rc>
    <rc><c>Fe</c><c>   1</c></rc>
    <rc><c>Fe</c><c>   1</c></rc>
    <rc><c>Fe</c><c>   1</c></rc>
    <rc><c>Fe</c><c>   1</c></rc>
    <rc><c>Fe</c><c>   1</c></rc>
    <rc><c>Fe</c><c>   1</c></rc>
    <rc><c>Fe</c><c>   1</c></rc>
    <rc><c>Fe</c><c>   1</c></rc>
    <rc><c>Fe</c><c>   1</c></rc>
    <rc><c>Fe</c><c>   1</c></rc>
    <rc><c>Fe</c><c>   1</c></rc>
    <rc><c>Fe</c><c>   1</c></rc>
    <rc><c>Fe</c><c>   1</c></rc>
    <rc><c>Fe</c><c>   1</c></rc>
    <rc><c>Fe</c><c>   1</c></rc>
    <rc><c>Fe</c><c>   1</c></rc>
    <rc><c>Fe</c><c>   1</c></rc>
    <rc><c>Fe</c><c>   1</c></rc>
    <rc><c>Fe</c><c>   1</c></rc>
    <rc><c>Fe</c><c>   1</c></rc>
    <rc><c>Fe</c><c>   1</c></rc>
    <rc><c>Fe</c><c>   1</c></rc>
    <rc><c>Fe</c><c>   1</c></rc>
    <rc><c>Fe</c><c>   1</c></rc>
    <rc><c>Fe</c><c>   1</c></rc>
    <rc><c>Fe</c><c>   1</c></rc>
    <rc><c>Fe</c><c>   1</c></rc>
    <rc><c>Fe</c><c>   1</c></rc>
    <rc><c>Fe</c><c>   1</c></rc>
    <rc><c>Fe</c><c>   1</c></rc>
    <rc><c>Fe</c><c>   1</c></rc>
    <rc><c>Fe</c><c>   1</c></rc>
    <rc><c>Fe</c><c>   1</c></rc>
    <rc><c>Fe</c><c>   1</c></rc>
    <rc><c>Fe</c><c>   1</c></rc>
    <rc><c>Fe</c><c>   1</c></rc>
    <rc><c>Fe</c><c>   1</c></rc>
    <rc><c>Fe</c><c>   1</c></rc>
    <rc><c>Fe</c><c>   1</c></rc>
    <rc><c>Fe</c><c>   1</c></rc>
    <rc><c>Fe</c><c>   1</c></rc>
    <rc><c>Fe</c><c>   1</c></rc>
    <rc><c>Fe</c><c>   1</c></rc>
    <rc><c>Fe</c><c>   1</c></rc>
    <rc><c>Fe</c><c>   1</c></rc>
    <rc><c>Fe</c><c>   1</c></rc>
    <rc><c>Fe</c><c>   1</c></rc>
    <rc><c>Fe</c><c>   1</c></rc>
    <rc><c>Fe</c><c>   1</c></rc>
    <rc><c>Fe</c><c>   1</c></rc>
    <rc><c>Fe</c><c>   1</c></rc>
    <rc><c>Fe</c><c>   1</c></rc>
    <rc><c>Fe</c><c>   1</c></rc>
    <rc><c>Fe</c><c>   1</c></rc>
    <rc><c>Fe</c><c>   1</c></rc>
    <rc><c>Fe</c><c>   1</c></rc>
    <rc><c>Fe</c><c>   1</c></rc>
    <rc><c>Fe</c><c>   1</c></rc>
    <rc><c>Fe</c><c>   1</c></rc>
    <rc><c>Fe</c><c>   1</c></rc>
    <rc><c>Fe</c><c>   1</c></rc>
    <rc><c>Fe</c><c>   1</c></rc>
    <rc><c>Fe</c><c>   1</c></rc>
    <rc><c>Fe</c><c>   1</c></rc>
    <rc><c>Fe</c><c>   1</c></rc>
   </set>
  </array>
  <array name="atomtypes" >
   <dimension dim="1">type</dimension>
   <field type="int">atomspertype</field>
   <field type="string">element</field>
   <field>mass</field>
   <field>valence</field>
   <field type="string">pseudopotential</field>
   <set>
    <rc><c> 108</c><c>Fe</c><c>     55.84700000</c><c>      8.00000000</c><c> PAW_PBE Fe 06Sep2000                   </c></rc>
   </set>
  </array>
 </atominfo>
 <structure name="initialpos" >
  <crystal>
   <varray name="basis" >
    <v>      10.33484705       0.00000000       0.00000000 </v>
    <v>       0.00000000      10.33484705       0.00000000 </v>
    <v>       0.00000000       0.00000000      10.33484705 </v>
   </varray>
   <i name="volume">   1103.85533447 </i>
   <varray name="rec_basis" >
    <v>       0.09676002       0.00000000       0.00000000 </v>
    <v>       0.00000000       0.09676002       0.00000000 </v>
    <v>       0.00000000       0.00000000       0.09676002 </v>
   </varray>
  </crystal>
  <varray name="positions" >
   <v>       0.00000000       0.00000000       0.00000000 </v>
   <v>       0.00000000       0.16666893       0.16666893 </v>
   <v>       0.16666893       0.00000000       0.16666893 </v>
   <v>       0.16666893       0.16666893       0.00000000 </v>
   <v>       0.33333106       0.00000000       0.00000000 </v>
   <v>       0.33333107       0.16666893       0.16666893 </v>
   <v>       0.50000000       0.00000000       0.16666894 </v>
   <v>       0.50000000       0.16666894       0.00000000 </v>
   <v>       0.66666897       0.00000000       0.00000000 </v>
   <v>       0.66666896       0.16666893       0.16666893 </v>
   <v>       0.83333104       0.00000000       0.16666893 </v>
   <v>       0.83333104       0.16666893       0.00000000 </v>
   <v>       0.00000000       0.33333106       0.00000000 </v>
   <v>       0.00000000       0.50000000       0.16666894 </v>
   <v>       0.16666893       0.33333107       0.16666893 </v>
   <v>       0.16666894       0.50000000       0.00000000 </v>
   <v>       0.33333107       0.33333107       0.00000000 </v>
   <v>       0.33333107       0.50000000       0.16666893 </v>
   <v>       0.50000000       0.33333107       0.16666893 </v>
   <v>       0.50000000       0.50000000       0.00000000 </v>
   <v>       0.66666896       0.33333107       0.00000000 </v>
   <v>       0.66666896       0.50000000       0.16666893 </v>
   <v>       0.83333104       0.33333107       0.16666893 </v>
   <v>       0.83333103       0.50000000       0.00000000 </v>
   <v>       0.00000000       0.66666897       0.00000000 </v>
   <v>       0.00000000       0.83333104       0.16666893 </v>
   <v>       0.16666893       0.66666896       0.16666893 </v>
   <v>       0.16666893       0.83333104       0.00000000 </v>
   <v>       0.33333107       0.66666896       0.00000000 </v>
   <v>       0.33333107       0.83333104       0.16666893 </v>
   <v>       0.50000000       0.66666896       0.16666893 </v>
   <v>       0.50000000       0.83333103       0.00000000 </v>
   <v>       0.66666896       0.66666896       0.00000000 </v>
   <v>       0.66666896       0.83333104       0.16666893 </v>
   <v>       0.83333104       0.66666896       0.16666893 </v>
   <v>       0.83333104       0.83333104       0.00000000 </v>
   <v>       0.00000000       0.00000000       0.33333106 </v>
   <v>       0.00000000       0.16666894       0.50000000 </v>
   <v>       0.16666894       0.00000000       0.50000000 </v>
   <v>       0.16666893       0.16666893       0.33333107 </v>
   <v>       0.33333107       0.00000000       0.33333107 </v>
   <v>       0.33333107       0.16666893       0.50000000 </v>
   <v>       0.50000000       0.00000000       0.50000000 </v>
   <v>       0.50000000       0.16666893       0.33333107 </v>
   <v>       0.66666896       0.00000000       0.33333107 </v>
   <v>       0.66666896       0.16666893       0.50000000 </v>
   <v>       0.83333103       0.00000000       0.50000000 </v>
   <v>       0.83333104       0.16666893       0.33333107 </v>
   <v>       0.00000000       0.33333107       0.33333107 </v>
   <v>       0.00000000       0.50000000       0.50000000 </v>
   <v>       0.16666893       0.33333107       0.50000000 </v>
   <v>       0.16666893       0.50000000       0.33333107 </v>
   <v>       0.33333107       0.33333107       0.33333107 </v>
   <v>       0.33333106       0.50000000       0.50000000 </v>
   <v>       0.50000000       0.33333106       0.50000000 </v>
   <v>       0.50000000       0.50000000       0.33333106 </v>
   <v>       0.66666896       0.33333107       0.33333107 </v>
   <v>       0.66666897       0.50000000       0.50000000 </v>
   <v>       0.83333104       0.33333107       0.50000000 </v>
   <v>       0.83333104       0.50000000       0.33333107 </v>
   <v>       0.00000000       0.66666896       0.33333107 </v>
   <v>       0.00000000       0.83333103       0.50000000 </v>
   <v>       0.16666893       0.66666896       0.50000000 </v>
   <v>       0.16666893       0.83333104       0.33333107 </v>
   <v>       0.33333107       0.66666896       0.33333107 </v>
   <v>       0.33333107       0.83333104       0.50000000 </v>
   <v>       0.50000000       0.66666897       0.50000000 </v>
   <v>       0.50000000       0.83333104       0.33333107 </v>
   <v>       0.66666896       0.66666896       0.33333107 </v>
   <v>       0.66666896       0.83333104       0.50000000 </v>
   <v>       0.83333104       0.66666896       0.50000000 </v>
   <v>       0.83333104       0.83333104       0.33333107 </v>
   <v>       0.00000000       0.00000000       0.66666897 </v>
   <v>       0.00000000       0.16666893       0.83333104 </v>
   <v>       0.16666893       0.00000000       0.83333104 </v>
   <v>       0.16666893       0.16666893       0.66666896 </v>
   <v>       0.33333107       0.00000000       0.66666896 </v>
   <v>       0.33333107       0.16666893       0.83333104 </v>
   <v>       0.50000000       0.00000000       0.83333103 </v>
   <v>       0.50000000       0.16666893       0.66666896 </v>
   <v>       0.66666896       0.00000000       0.66666896 </v>
   <v>       0.66666896       0.16666893       0.83333104 </v>
   <v>       0.83333104       0.00000000       0.83333104 </v>
   <v>       0.83333104       0.16666893       0.66666896 </v>
   <v>       0.00000000       0.33333107       0.66666896 </v>
   <v>       0.00000000       0.50000000       0.83333103 </v>
   <v>       0.16666893       0.33333107       0.83333104 </v>
   <v>       0.16666893       0.50000000       0.66666896 </v>
   <v>       0.33333107       0.33333107       0.66666896 </v>
   <v>       0.33333107       0.50000000       0.83333104 </v>
   <v>       0.50000000       0.33333107       0.83333104 </v>
   <v>       0.50000000       0.50000000       0.66666897 </v>
   <v>       0.66666896       0.33333107       0.66666896 </v>
   <v>       0.66666896       0.50000000       0.83333104 </v>
   <v>       0.83333104       0.33333107       0.83333104 </v>
   <v>       0.83333104       0.50000000       0.66666896 </v>
   <v>       0.00000000       0.66666896       0.66666896 </v>
   <v>       0.00000000       0.83333104       0.83333104 </v>
   <v>       0.16666893       0.66666896       0.83333104 </v>
   <v>       0.16666893       0.83333104       0.66666896 </v>
   <v>       0.33333107       0.66666896       0.66666896 </v>
   <v>       0.33333107       0.83333104       0.83333104 </v>
   <v>       0.50000000       0.66666896       0.83333104 </v>
   <v>       0.50000000       0.83333104       0.66666896 </v>
   <v>       0.66666896       0.66666896       0.66666896 </v>
   <v>       0.66666896       0.83333104       0.83333104 </v>
   <v>       0.83333104       0.66666896       0.83333104 </v>
   <v>       0.83333104       0.83333104       0.66666896 </v>
  </varray>
 </structure>
 <calculation>
  <scstep>
   <time name="dav">   42.50   42.53</time>
   <time name="total">   42.84   42.87</time>
   <energy>
    <i name="alphaZ">   7300.31925852 </i>
    <i name="ewald"> -66232.83996889 </i>
    <i name="hartreedc"> -11197.02572337 </i>
    <i name="XCdc">    446.63038354 </i>
    <i name="pawpsdc">  51723.88885462 </i>
    <i name="pawaedc"> -52548.28121372 </i>
    <i name="eentropy">      0.03216479 </i>
    <i name="bandstr">   9971.58792867 </i>
    <i name="atom">  64130.56299653 </i>
    <i name="e_fr_energy">   3594.87468070 </i>
    <i name="e_wo_entrp">   3594.84251590 </i>
    <i name="e_0_energy">   3594.86395910 </i>
   </energy>
  </scstep>
  <scstep>
   <time name="dav">   42.27   42.29</time>
   <time name="total">   42.28   42.29</time>
   <energy>
    <i name="e_fr_energy">   -586.58075472 </i>
    <i name="e_wo_entrp">   -586.56886734 </i>
    <i name="e_0_energy">   -586.57679226 </i>
   </energy>
  </scstep>
  <scstep>
   <time name="dav">   59.25   59.26</time>
   <time name="total">   59.26   59.27</time>
   <energy>
    <i name="e_fr_energy">  -1010.73639556 </i>
    <i name="e_wo_entrp">  -1010.71329826 </i>
    <i name="e_0_energy">  -1010.72869646 </i>
   </energy>
  </scstep>
  <scstep>
   <time name="dav">   56.78   56.79</time>
   <time name="total">   56.78   56.80</time>
   <energy>
    <i name="e_fr_energy">  -1045.82519956 </i>
    <i name="e_wo_entrp">  -1045.69955129 </i>
    <i name="e_0_energy">  -1045.78331680 </i>
   </energy>
  </scstep>
  <scstep>
   <time name="dav">   56.25   56.26</time>
   <time name="total">   58.24   58.26</time>
   <energy>
    <i name="e_fr_energy">  -1047.49823620 </i>
    <i name="e_wo_entrp">  -1047.38899039 </i>
    <i name="e_0_energy">  -1047.46182093 </i>
   </energy>
  </scstep>
  <scstep>
   <time name="diag">    4.05    4.05</time>
   <time name="diis">   31.24   31.25</time>
   <time name="orth">    0.49    0.49</time>
   <time name="total">   38.18   38.19</time>
   <energy>
    <i name="e_fr_energy">   -830.01271452 </i>
    <i name="e_wo_entrp">   -829.99725439 </i>
    <i name="e_0_energy">   -830.00756114 </i>
   </energy>
  </scstep>
  <scstep>
   <time name="diag">    4.09    4.09</time>
   <time name="diis">   33.60   33.62</time>
   <time name="orth">    0.49    0.49</time>
   <time name="total">   40.58   40.60</time>
   <energy>
    <i name="e_fr_energy">   -832.45990923 </i>
    <i name="e_wo_entrp">   -832.36881683 </i>
    <i name="e_0_energy">   -832.42954510 </i>
   </energy>
  </scstep>
  <scstep>
   <time name="diag">    4.08    4.09</time>
   <time name="diis">   36.70   36.71</time>
   <time name="orth">    0.49    0.49</time>
   <time name="total">   43.69   43.70</time>
   <energy>
    <i name="e_fr_energy">   -832.42129537 </i>
    <i name="e_wo_entrp">   -832.36114539 </i>
    <i name="e_0_energy">   -832.40124538 </i>
   </energy>
  </scstep>
  <scstep>
   <time name="diag">    4.08    4.08</time>
   <time name="diis">   32.63   32.64</time>
   <time name="orth">    0.49    0.49</time>
   <time name="total">   39.61   39.62</time>
   <energy>
    <i name="e_fr_energy">   -831.80720673 </i>
    <i name="e_wo_entrp">   -831.74926883 </i>
    <i name="e_0_energy">   -831.78789410 </i>
   </energy>
  </scstep>
  <scstep>
   <time name="diag">    4.07    4.08</time>
   <time name="diis">   33.80   33.80</time>
   <time name="orth">    0.49    0.49</time>
   <time name="total">   40.77   40.78</time>
   <energy>
    <i name="e_fr_energy">   -831.64425937 </i>
    <i name="e_wo_entrp">   -831.58895708 </i>
    <i name="e_0_energy">   -831.62582527 </i>
   </energy>
  </scstep>
  <scstep>
   <time name="diag">    4.08    4.08</time>
   <time name="diis">   31.90   31.91</time>
   <time name="orth">    0.48    0.48</time>
   <time name="total">   38.85   38.87</time>
   <energy>
    <i name="e_fr_energy">   -831.51139482 </i>
    <i name="e_wo_entrp">   -831.46204628 </i>
    <i name="e_0_energy">   -831.49494531 </i>
   </energy>
  </scstep>
  <scstep>
   <time name="diag">    4.08    4.08</time>
   <time name="diis">   37.78   37.79</time>
   <time name="orth">    0.49    0.49</time>
   <time name="total">   44.75   44.76</time>
   <energy>
    <i name="e_fr_energy">   -831.50477785 </i>
    <i name="e_wo_entrp">   -831.45595349 </i>
    <i name="e_0_energy">   -831.48850306 </i>
   </energy>
  </scstep>
  <scstep>
   <time name="diag">    3.83    3.83</time>
   <time name="diis">   33.55   33.57</time>
   <time name="orth">    0.46    0.46</time>
   <time name="total">   40.14   40.17</time>
   <energy>
    <i name="e_fr_energy">   -831.49013422 </i>
    <i name="e_wo_entrp">   -831.44029321 </i>
    <i name="e_0_energy">   -831.47352055 </i>
   </energy>
  </scstep>
  <scstep>
   <time name="diag">    3.96    3.97</time>
   <time name="diis">   34.76   34.77</time>
   <time name="orth">    0.47    0.47</time>
   <time name="total">   41.51   41.52</time>
   <energy>
    <i name="e_fr_energy">   -831.48844802 </i>
    <i name="e_wo_entrp">   -831.43806130 </i>
    <i name="e_0_energy">   -831.47165245 </i>
   </energy>
  </scstep>
  <scstep>
   <time name="diag">    4.03    4.03</time>
   <time name="diis">   39.92   39.93</time>
   <time name="orth">    0.49    0.49</time>
   <time name="total">   46.82   46.83</time>
   <energy>
    <i name="e_fr_energy">   -831.48902281 </i>
    <i name="e_wo_entrp">   -831.43876875 </i>
    <i name="e_0_energy">   -831.47227146 </i>
   </energy>
  </scstep>
  <scstep>
   <time name="diag">    4.08    4.08</time>
   <time name="diis">   35.88   35.89</time>
   <time name="orth">    0.49    0.49</time>
   <time name="total">   42.82   42.83</time>
   <energy>
    <i name="e_fr_energy">   -831.48898833 </i>
    <i name="e_wo_entrp">   -831.43898739 </i>
    <i name="e_0_energy">   -831.47232135 </i>
   </energy>
  </scstep>
  <scstep>
   <time name="diag">    4.07    4.07</time>
   <time name="diis">   36.28   36.29</time>
   <time name="orth">    0.47    0.47</time>
   <time name="total">   43.12   43.13</time>
   <energy>
    <i name="e_fr_energy">   -831.48900373 </i>
    <i name="e_wo_entrp">   -831.43907965 </i>
    <i name="e_0_energy">   -831.47236237 </i>
   </energy>
  </scstep>
  <scstep>
   <time name="diag">    3.93    3.93</time>
   <time name="diis">   34.49   34.50</time>
   <time name="orth">    0.48    0.48</time>
   <time name="total">   41.29   41.30</time>
   <energy>
    <i name="e_fr_energy">   -831.48898893 </i>
    <i name="e_wo_entrp">   -831.43922670 </i>
    <i name="e_0_energy">   -831.47240152 </i>
   </energy>
  </scstep>
  <scstep>
   <time name="diag">    3.86    3.86</time>
   <time name="diis">   22.41   22.41</time>
   <time name="orth">    0.46    0.46</time>
   <time name="total">   29.10   29.11</time>
   <energy>
    <i name="e_fr_energy">   -831.48898586 </i>
    <i name="e_wo_entrp">   -831.43930641 </i>
    <i name="e_0_energy">   -831.47242604 </i>
   </energy>
  </scstep>
  <scstep>
   <time name="diag">    3.98    3.98</time>
   <time name="diis">   19.90   19.90</time>
   <time name="orth">    0.48    0.48</time>
   <time name="total">   26.71   26.72</time>
   <energy>
    <i name="e_fr_energy">   -831.48898044 </i>
    <i name="e_wo_entrp">   -831.43940615 </i>
    <i name="e_0_energy">   -831.47245568 </i>
   </energy>
  </scstep>
  <scstep>
   <time name="diag">    4.04    4.04</time>
   <time name="diis">   18.74   18.74</time>
   <time name="orth">    0.49    0.49</time>
   <time name="total">   25.66   25.67</time>
   <energy>
    <i name="e_fr_energy">   -831.48897573 </i>
    <i name="e_wo_entrp">   -831.43947053 </i>
    <i name="e_0_energy">   -831.47247400 </i>
   </energy>
  </scstep>
  <scstep>
   <time name="diag">    4.03    4.03</time>
   <time name="diis">   18.89   18.89</time>
   <time name="orth">    0.49    0.49</time>
   <time name="total">   25.79   25.79</time>
   <energy>
    <i name="e_fr_energy">   -831.48897016 </i>
    <i name="e_wo_entrp">   -831.43954936 </i>
    <i name="e_0_energy">   -831.47249656 </i>
   </energy>
  </scstep>
  <scstep>
   <time name="diag">    3.87    3.87</time>
   <time name="diis">   18.55   18.55</time>
   <time name="orth">    0.48    0.48</time>
   <time name="total">   25.20   25.21</time>
   <energy>
    <i name="e_fr_energy">   -831.48896597 </i>
    <i name="e_wo_entrp">   -831.43960440 </i>
    <i name="e_0_energy">   -831.47251212 </i>
   </energy>
  </scstep>
  <scstep>
   <time name="diag">    3.91    3.92</time>
   <time name="diis">   17.31   17.31</time>
   <time name="orth">    0.49    0.49</time>
   <time name="total">   24.05   24.05</time>
   <energy>
    <i name="e_fr_energy">   -831.48896100 </i>
    <i name="e_wo_entrp">   -831.43967140 </i>
    <i name="e_0_energy">   -831.47253113 </i>
   </energy>
  </scstep>
  <scstep>
   <time name="diag">    3.89    3.89</time>
   <time name="diis">   17.18   17.18</time>
   <time name="orth">    0.49    0.49</time>
   <time name="total">   23.93   23.93</time>
   <energy>
    <i name="e_fr_energy">   -831.48895738 </i>
    <i name="e_wo_entrp">   -831.43971814 </i>
    <i name="e_0_energy">   -831.47254430 </i>
   </energy>
  </scstep>
  <scstep>
   <time name="diag">    3.77    3.77</time>
   <time name="diis">   16.47   16.47</time>
   <time name="orth">    0.49    0.49</time>
   <time name="total">   23.06   23.07</time>
   <energy>
    <i name="e_fr_energy">   -831.48895318 </i>
    <i name="e_wo_entrp">   -831.43977370 </i>
    <i name="e_0_energy">   -831.47256002 </i>
   </energy>
  </scstep>
  <scstep>
   <time name="diag">    3.85    3.85</time>
   <time name="diis">   16.04   16.05</time>
   <time name="orth">    0.49    0.49</time>
   <time name="total">   22.68   22.69</time>
   <energy>
    <i name="e_fr_energy">   -831.48895016 </i>
    <i name="e_wo_entrp">   -831.43981335 </i>
    <i name="e_0_energy">   -831.47257122 </i>
   </energy>
  </scstep>
  <scstep>
   <time name="diag">    3.70    3.70</time>
   <time name="diis">   16.12   16.13</time>
   <time name="orth">    0.48    0.48</time>
   <time name="total">   22.51   22.52</time>
   <energy>
    <i name="e_fr_energy">   -831.48894666 </i>
    <i name="e_wo_entrp">   -831.43985967 </i>
    <i name="e_0_energy">   -831.47258433 </i>
   </energy>
  </scstep>
  <scstep>
   <time name="diag">    3.75    3.75</time>
   <time name="diis">   15.83   15.83</time>
   <time name="orth">    0.43    0.43</time>
   <time name="total">   22.26   22.27</time>
   <energy>
    <i name="e_fr_energy">   -831.48894364 </i>
    <i name="e_wo_entrp">   -831.43989851 </i>
    <i name="e_0_energy">   -831.47259527 </i>
   </energy>
  </scstep>
  <scstep>
   <time name="diag">    3.93    3.93</time>
   <time name="diis">   15.44   15.44</time>
   <time name="orth">    0.45    0.45</time>
   <time name="total">   22.12   22.13</time>
   <energy>
    <i name="e_fr_energy">   -831.48894075 </i>
    <i name="e_wo_entrp">   -831.43993686 </i>
    <i name="e_0_energy">   -831.47260612 </i>
   </energy>
  </scstep>
  <scstep>
   <time name="diag">    3.97    3.97</time>
   <time name="diis">   15.27   15.27</time>
   <time name="orth">    0.48    0.48</time>
   <time name="total">   22.06   22.06</time>
   <energy>
    <i name="e_fr_energy">   -831.48893812 </i>
    <i name="e_wo_entrp">   -831.43997061 </i>
    <i name="e_0_energy">   -831.47261562 </i>
   </energy>
  </scstep>
  <scstep>
   <time name="diag">    3.98    3.98</time>
   <time name="diis">   15.09   15.09</time>
   <time name="orth">    0.49    0.49</time>
   <time name="total">   21.89   21.90</time>
   <energy>
    <i name="e_fr_energy">   -831.48893575 </i>
    <i name="e_wo_entrp">   -831.44000218 </i>
    <i name="e_0_energy">   -831.47262456 </i>
   </energy>
  </scstep>
  <scstep>
   <time name="diag">    3.98    3.98</time>
   <time name="diis">   14.94   14.94</time>
   <time name="orth">    0.49    0.49</time>
   <time name="total">   21.74   21.74</time>
   <energy>
    <i name="e_fr_energy">   -831.48893400 </i>
    <i name="e_wo_entrp">   -831.44002592 </i>
    <i name="e_0_energy">   -831.47263131 </i>
   </energy>
  </scstep>
  <scstep>
   <time name="diag">    3.76    3.76</time>
   <time name="diis">   15.10   15.10</time>
   <time name="orth">    0.49    0.49</time>
   <time name="total">   21.65   21.66</time>
   <energy>
    <i name="e_fr_energy">   -831.48893211 </i>
    <i name="e_wo_entrp">   -831.44005142 </i>
    <i name="e_0_energy">   -831.47263855 </i>
   </energy>
  </scstep>
  <scstep>
   <time name="diag">    3.85    3.86</time>
   <time name="diis">   14.92   14.92</time>
   <time name="orth">    0.45    0.45</time>
   <time name="total">   21.54   21.54</time>
   <energy>
    <i name="e_fr_energy">   -831.48893062 </i>
    <i name="e_wo_entrp">   -831.44007157 </i>
    <i name="e_0_energy">   -831.47264427 </i>
   </energy>
  </scstep>
  <scstep>
   <time name="diag">    3.94    3.94</time>
   <time name="diis">   14.68   14.68</time>
   <time name="orth">    0.49    0.49</time>
   <time name="total">   21.45   21.46</time>
   <energy>
    <i name="e_fr_energy">   -831.48892904 </i>
    <i name="e_wo_entrp">   -831.44009290 </i>
    <i name="e_0_energy">   -831.47265033 </i>
   </energy>
  </scstep>
  <scstep>
   <time name="diag">    3.98    3.98</time>
   <time name="diis">   14.55   14.55</time>
   <time name="orth">    0.48    0.48</time>
   <time name="total">   21.34   21.35</time>
   <energy>
    <i name="e_fr_energy">   -831.48892778 </i>
    <i name="e_wo_entrp">   -831.44011003 </i>
    <i name="e_0_energy">   -831.47265520 </i>
   </energy>
  </scstep>
  <scstep>
   <time name="diag">    3.87    3.87</time>
   <time name="diis">   14.48   14.48</time>
   <time name="orth">    0.48    0.48</time>
   <time name="total">   21.15   21.16</time>
   <energy>
    <i name="e_fr_energy">   -831.48892647 </i>
    <i name="e_wo_entrp">   -831.44012787 </i>
    <i name="e_0_energy">   -831.47266027 </i>
   </energy>
  </scstep>
  <scstep>
   <time name="diag">    3.89    3.89</time>
   <time name="diis">   14.52   14.52</time>
   <time name="orth">    0.48    0.48</time>
   <time name="total">   21.22   21.23</time>
   <energy>
    <i name="e_fr_energy">   -831.48892541 </i>
    <i name="e_wo_entrp">   -831.44014242 </i>
    <i name="e_0_energy">   -831.47266441 </i>
   </energy>
  </scstep>
  <scstep>
   <time name="diag">    3.72    3.72</time>
   <time name="diis">   14.62   14.63</time>
   <time name="orth">    0.48    0.48</time>
   <time name="total">   21.18   21.18</time>
   <energy>
    <i name="e_fr_energy">   -831.48892432 </i>
    <i name="e_wo_entrp">   -831.44015736 </i>
    <i name="e_0_energy">   -831.47266866 </i>
   </energy>
  </scstep>
  <scstep>
   <time name="diag">    3.91    3.91</time>
   <time name="diis">   14.47   14.47</time>
   <time name="orth">    0.48    0.48</time>
   <time name="total">   19.23   19.24</time>
   <energy>
    <i name="alphaZ">   7300.31925852 </i>
    <i name="ewald"> -66232.83996889 </i>
    <i name="hartreedc">  -9271.44526336 </i>
    <i name="XCdc">    350.62644304 </i>
    <i name="pawpsdc">  60186.37915394 </i>
    <i name="pawaedc"> -60912.54966051 </i>
    <i name="eentropy">     -0.04875371 </i>
    <i name="bandstr">   3617.50687101 </i>
    <i name="atom">  64130.56299653 </i>
    <i name="e_fr_energy">   -831.48892342 </i>
    <i name="e_wo_entrp">   -831.44016971 </i>
    <i name="e_0_energy">   -831.47267218 </i>
   </energy>
  </scstep>
  <structure>
   <crystal>
    <varray name="basis" >
     <v>      10.33484705       0.00000000       0.00000000 </v>
     <v>       0.00000000      10.33484705       0.00000000 </v>
     <v>       0.00000000       0.00000000      10.33484705 </v>
    </varray>
    <i name="volume">   1103.85533447 </i>
    <varray name="rec_basis" >
     <v>       0.09676002       0.00000000       0.00000000 </v>
     <v>       0.00000000       0.09676002       0.00000000 </v>
     <v>       0.00000000       0.00000000       0.09676002 </v>
    </varray>
   </crystal>
   <varray name="positions" >
    <v>       0.00000000       0.00000000       0.00000000 </v>
    <v>       0.00000000       0.16666893       0.16666893 </v>
    <v>       0.16666893       0.00000000       0.16666893 </v>
    <v>       0.16666893       0.16666893       0.00000000 </v>
    <v>       0.33333106       0.00000000       0.00000000 </v>
    <v>       0.33333107       0.16666893       0.16666893 </v>
    <v>       0.50000000       0.00000000       0.16666894 </v>
    <v>       0.50000000       0.16666894       0.00000000 </v>
    <v>       0.66666897       0.00000000       0.00000000 </v>
    <v>       0.66666896       0.16666893       0.16666893 </v>
    <v>       0.83333104       0.00000000       0.16666893 </v>
    <v>       0.83333104       0.16666893       0.00000000 </v>
    <v>       0.00000000       0.33333106       0.00000000 </v>
    <v>       0.00000000       0.50000000       0.16666894 </v>
    <v>       0.16666893       0.33333107       0.16666893 </v>
    <v>       0.16666894       0.50000000       0.00000000 </v>
    <v>       0.33333107       0.33333107       0.00000000 </v>
    <v>       0.33333107       0.50000000       0.16666893 </v>
    <v>       0.50000000       0.33333107       0.16666893 </v>
    <v>       0.50000000       0.50000000       0.00000000 </v>
    <v>       0.66666896       0.33333107       0.00000000 </v>
    <v>       0.66666896       0.50000000       0.16666893 </v>
    <v>       0.83333104       0.33333107       0.16666893 </v>
    <v>       0.83333103       0.50000000       0.00000000 </v>
    <v>       0.00000000       0.66666897       0.00000000 </v>
    <v>       0.00000000       0.83333104       0.16666893 </v>
    <v>       0.16666893       0.66666896       0.16666893 </v>
    <v>       0.16666893       0.83333104       0.00000000 </v>
    <v>       0.33333107       0.66666896       0.00000000 </v>
    <v>       0.33333107       0.83333104       0.16666893 </v>
    <v>       0.50000000       0.66666896       0.16666893 </v>
    <v>       0.50000000       0.83333103       0.00000000 </v>
    <v>       0.66666896       0.66666896       0.00000000 </v>
    <v>       0.66666896       0.83333104       0.16666893 </v>
    <v>       0.83333104       0.66666896       0.16666893 </v>
    <v>       0.83333104       0.83333104       0.00000000 </v>
    <v>       0.00000000       0.00000000       0.33333106 </v>
    <v>       0.00000000       0.16666894       0.50000000 </v>
    <v>       0.16666894       0.00000000       0.50000000 </v>
    <v>       0.16666893       0.16666893       0.33333107 </v>
    <v>       0.33333107       0.00000000       0.33333107 </v>
    <v>       0.33333107       0.16666893       0.50000000 </v>
    <v>       0.50000000       0.00000000       0.50000000 </v>
    <v>       0.50000000       0.16666893       0.33333107 </v>
    <v>       0.66666896       0.00000000       0.33333107 </v>
    <v>       0.66666896       0.16666893       0.50000000 </v>
    <v>       0.83333103       0.00000000       0.50000000 </v>
    <v>       0.83333104       0.16666893       0.33333107 </v>
    <v>       0.00000000       0.33333107       0.33333107 </v>
    <v>       0.00000000       0.50000000       0.50000000 </v>
    <v>       0.16666893       0.33333107       0.50000000 </v>
    <v>       0.16666893       0.50000000       0.33333107 </v>
    <v>       0.33333107       0.33333107       0.33333107 </v>
    <v>       0.33333106       0.50000000       0.50000000 </v>
    <v>       0.50000000       0.33333106       0.50000000 </v>
    <v>       0.50000000       0.50000000       0.33333106 </v>
    <v>       0.66666896       0.33333107       0.33333107 </v>
    <v>       0.66666897       0.50000000       0.50000000 </v>
    <v>       0.83333104       0.33333107       0.50000000 </v>
    <v>       0.83333104       0.50000000       0.33333107 </v>
    <v>       0.00000000       0.66666896       0.33333107 </v>
    <v>       0.00000000       0.83333103       0.50000000 </v>
    <v>       0.16666893       0.66666896       0.50000000 </v>
    <v>       0.16666893       0.83333104       0.33333107 </v>
    <v>       0.33333107       0.66666896       0.33333107 </v>
    <v>       0.33333107       0.83333104       0.50000000 </v>
    <v>       0.50000000       0.66666897       0.50000000 </v>
    <v>       0.50000000       0.83333104       0.33333107 </v>
    <v>       0.66666896       0.66666896       0.33333107 </v>
    <v>       0.66666896       0.83333104       0.50000000 </v>
    <v>       0.83333104       0.66666896       0.50000000 </v>
    <v>       0.83333104       0.83333104       0.33333107 </v>
    <v>       0.00000000       0.00000000       0.66666897 </v>
    <v>       0.00000000       0.16666893       0.83333104 </v>
    <v>       0.16666893       0.00000000       0.83333104 </v>
    <v>       0.16666893       0.16666893       0.66666896 </v>
    <v>       0.33333107       0.00000000       0.66666896 </v>
    <v>       0.33333107       0.16666893       0.83333104 </v>
    <v>       0.50000000       0.00000000       0.83333103 </v>
    <v>       0.50000000       0.16666893       0.66666896 </v>
    <v>       0.66666896       0.00000000       0.66666896 </v>
    <v>       0.66666896       0.16666893       0.83333104 </v>
    <v>       0.83333104       0.00000000       0.83333104 </v>
    <v>       0.83333104       0.16666893       0.66666896 </v>
    <v>       0.00000000       0.33333107       0.66666896 </v>
    <v>       0.00000000       0.50000000       0.83333103 </v>
    <v>       0.16666893       0.33333107       0.83333104 </v>
    <v>       0.16666893       0.50000000       0.66666896 </v>
    <v>       0.33333107       0.33333107       0.66666896 </v>
    <v>       0.33333107       0.50000000       0.83333104 </v>
    <v>       0.50000000       0.33333107       0.83333104 </v>
    <v>       0.50000000       0.50000000       0.66666897 </v>
    <v>       0.66666896       0.33333107       0.66666896 </v>
    <v>       0.66666896       0.50000000       0.83333104 </v>
    <v>       0.83333104       0.33333107       0.83333104 </v>
    <v>       0.83333104       0.50000000       0.66666896 </v>
    <v>       0.00000000       0.66666896       0.66666896 </v>
    <v>       0.00000000       0.83333104       0.83333104 </v>
    <v>       0.16666893       0.66666896       0.83333104 </v>
    <v>       0.16666893       0.83333104       0.66666896 </v>
    <v>       0.33333107       0.66666896       0.66666896 </v>
    <v>       0.33333107       0.83333104       0.83333104 </v>
    <v>       0.50000000       0.66666896       0.83333104 </v>
    <v>       0.50000000       0.83333104       0.66666896 </v>
    <v>       0.66666896       0.66666896       0.66666896 </v>
    <v>       0.66666896       0.83333104       0.83333104 </v>
    <v>       0.83333104       0.66666896       0.83333104 </v>
    <v>       0.83333104       0.83333104       0.66666896 </v>
   </varray>
  </structure>
  <varray name="forces" >
   <v>       0.00000000      -0.00000000       0.00000000 </v>
   <v>      -0.00000000       0.00000000       0.00000000 </v>
   <v>      -0.00000000      -0.00000000       0.00000000 </v>
   <v>       0.00000000       0.00000000      -0.00000000 </v>
   <v>       0.00000000      -0.00000000       0.00000000 </v>
   <v>       0.00000000      -0.00000000      -0.00000000 </v>
   <v>      -0.00000000      -0.00000000       0.00000000 </v>
   <v>      -0.00000000      -0.00000000       0.00000000 </v>
   <v>       0.00000000       0.00000000       0.00000000 </v>
   <v>      -0.00000000       0.00000000      -0.00000000 </v>
   <v>      -0.00000000       0.00000000       0.00000000 </v>
   <v>       0.00000000      -0.00000000      -0.00000000 </v>
   <v>       0.00000000       0.00000000       0.00000000 </v>
   <v>      -0.00000000       0.00000000       0.00000000 </v>
   <v>       0.00000000       0.00000000      -0.00000000 </v>
   <v>      -0.00000000      -0.00000000      -0.00000000 </v>
   <v>      -0.00000000       0.00000000       0.00000000 </v>
   <v>       0.00000000      -0.00000000      -0.00000000 </v>
   <v>       0.00000000      -0.00000000      -0.00000000 </v>
   <v>      -0.00000000      -0.00000000      -0.00000000 </v>
   <v>       0.00000000       0.00000000       0.00000000 </v>
   <v>      -0.00000000      -0.00000000      -0.00000000 </v>
   <v>      -0.00000000       0.00000000      -0.00000000 </v>
   <v>       0.00000000       0.00000000      -0.00000000 </v>
   <v>       0.00000000      -0.00000000       0.00000000 </v>
   <v>      -0.00000000       0.00000000       0.00000000 </v>
   <v>       0.00000000       0.00000000      -0.00000000 </v>
   <v>      -0.00000000       0.00000000      -0.00000000 </v>
   <v>       0.00000000      -0.00000000       0.00000000 </v>
   <v>       0.00000000      -0.00000000       0.00000000 </v>
   <v>       0.00000000      -0.00000000      -0.00000000 </v>
   <v>       0.00000000       0.00000000       0.00000000 </v>
   <v>       0.00000000       0.00000000      -0.00000000 </v>
   <v>      -0.00000000      -0.00000000      -0.00000000 </v>
   <v>      -0.00000000       0.00000000      -0.00000000 </v>
   <v>       0.00000000      -0.00000000      -0.00000000 </v>
   <v>      -0.00000000      -0.00000000      -0.00000000 </v>
   <v>       0.00000000      -0.00000000       0.00000000 </v>
   <v>      -0.00000000       0.00000000       0.00000000 </v>
   <v>       0.00000000       0.00000000       0.00000000 </v>
   <v>      -0.00000000      -0.00000000      -0.00000000 </v>
   <v>      -0.00000000      -0.00000000      -0.00000000 </v>
   <v>       0.00000000      -0.00000000       0.00000000 </v>
   <v>      -0.00000000       0.00000000      -0.00000000 </v>
   <v>      -0.00000000       0.00000000       0.00000000 </v>
   <v>       0.00000000      -0.00000000      -0.00000000 </v>
   <v>      -0.00000000      -0.00000000       0.00000000 </v>
   <v>      -0.00000000       0.00000000       0.00000000 </v>
   <v>      -0.00000000       0.00000000       0.00000000 </v>
   <v>       0.00000000       0.00000000       0.00000000 </v>
   <v>      -0.00000000      -0.00000000       0.00000000 </v>
   <v>      -0.00000000      -0.00000000       0.00000000 </v>
   <v>      -0.00000000       0.00000000      -0.00000000 </v>
   <v>      -0.00000000      -0.00000000      -0.00000000 </v>
   <v>      -0.00000000       0.00000000      -0.00000000 </v>
   <v>      -0.00000000       0.00000000       0.00000000 </v>
   <v>       0.00000000       0.00000000      -0.00000000 </v>
   <v>       0.00000000      -0.00000000      -0.00000000 </v>
   <v>      -0.00000000       0.00000000      -0.00000000 </v>
   <v>      -0.00000000       0.00000000       0.00000000 </v>
   <v>       0.00000000      -0.00000000      -0.00000000 </v>
   <v>      -0.00000000       0.00000000      -0.00000000 </v>
   <v>       0.00000000       0.00000000      -0.00000000 </v>
   <v>       0.00000000      -0.00000000       0.00000000 </v>
   <v>      -0.00000000      -0.00000000      -0.00000000 </v>
   <v>      -0.00000000      -0.00000000       0.00000000 </v>
   <v>       0.00000000      -0.00000000      -0.00000000 </v>
   <v>      -0.00000000       0.00000000      -0.00000000 </v>
   <v>      -0.00000000       0.00000000       0.00000000 </v>
   <v>       0.00000000       0.00000000      -0.00000000 </v>
   <v>      -0.00000000      -0.00000000      -0.00000000 </v>
   <v>      -0.00000000      -0.00000000       0.00000000 </v>
   <v>      -0.00000000      -0.00000000       0.00000000 </v>
   <v>      -0.00000000       0.00000000      -0.00000000 </v>
   <v>       0.00000000       0.00000000      -0.00000000 </v>
   <v>       0.00000000       0.00000000      -0.00000000 </v>
   <v>       0.00000000      -0.00000000       0.00000000 </v>
   <v>      -0.00000000      -0.00000000       0.00000000 </v>
   <v>      -0.00000000      -0.00000000      -0.00000000 </v>
   <v>       0.00000000      -0.00000000       0.00000000 </v>
   <v>      -0.00000000       0.00000000       0.00000000 </v>
   <v>      -0.00000000       0.00000000       0.00000000 </v>
   <v>      -0.00000000      -0.00000000       0.00000000 </v>
   <v>      -0.00000000      -0.00000000      -0.00000000 </v>
   <v>      -0.00000000       0.00000000      -0.00000000 </v>
   <v>      -0.00000000       0.00000000      -0.00000000 </v>
   <v>       0.00000000      -0.00000000       0.00000000 </v>
   <v>       0.00000000       0.00000000       0.00000000 </v>
   <v>       0.00000000       0.00000000       0.00000000 </v>
   <v>      -0.00000000      -0.00000000      -0.00000000 </v>
   <v>       0.00000000       0.00000000       0.00000000 </v>
   <v>       0.00000000       0.00000000      -0.00000000 </v>
   <v>      -0.00000000      -0.00000000       0.00000000 </v>
   <v>       0.00000000       0.00000000       0.00000000 </v>
   <v>      -0.00000000       0.00000000       0.00000000 </v>
   <v>      -0.00000000      -0.00000000      -0.00000000 </v>
   <v>      -0.00000000      -0.00000000       0.00000000 </v>
   <v>      -0.00000000       0.00000000      -0.00000000 </v>
   <v>      -0.00000000       0.00000000       0.00000000 </v>
   <v>       0.00000000       0.00000000      -0.00000000 </v>
   <v>      -0.00000000       0.00000000      -0.00000000 </v>
   <v>      -0.00000000      -0.00000000      -0.00000000 </v>
   <v>      -0.00000000      -0.00000000       0.00000000 </v>
   <v>       0.00000000       0.00000000      -0.00000000 </v>
   <v>       0.00000000      -0.00000000      -0.00000000 </v>
   <v>       0.00000000       0.00000000       0.00000000 </v>
   <v>      -0.00000000      -0.00000000       0.00000000 </v>
   <v>      -0.00000000      -0.00000000      -0.00000000 </v>
  </varray>
  <varray name="stress" >
   <v>   -1178.98695175       0.00000000       0.00000000 </v>
   <v>       0.00000000   -1178.98695175       0.00000000 </v>
   <v>      -0.00000000       0.00000000   -1178.98695175 </v>
  </varray>
  <energy>
   <i name="e_fr_energy">   -831.48892342 </i>
   <i name="e_wo_entrp">   -831.47267218 </i>
   <i name="e_0_energy">     -0.04875371 </i>
  </energy>
  <time name="totalsc"> 1422.70 1423.12</time>
 </calculation>
 <calculation>
  <scstep>
