 108 108   0   0
  0.1022088E+02  0.1033485E-08  0.1033485E-08  0.1033485E-08  0.5000000E-15
  1.000000000000000E-004
  CAR 
 Opt                                     
      9.70674521     -3.93264630  301      6.78731427      1.00000000
     -3.933  0.0000E+00  0.0000E+00
     -3.887  0.0000E+00  0.0000E+00
     -3.842  0.0000E+00  0.0000E+00
     -3.796  0.0000E+00  0.0000E+00
     -3.751  0.0000E+00  0.0000E+00
     -3.705  0.0000E+00  0.0000E+00
     -3.660  0.0000E+00  0.0000E+00
     -3.614  0.0000E+00  0.0000E+00
     -3.569 -0.1081E-29 -0.4914E-31
     -3.523 -0.4008E-28 -0.1871E-29
     -3.478 -0.1371E-26 -0.6422E-28
     -3.433 -0.4226E-25 -0.1986E-26
     -3.387 -0.1173E-23 -0.5532E-25
     -3.342 -0.2932E-22 -0.1388E-23
     -3.296 -0.6600E-21 -0.3139E-22
     -3.251 -0.1337E-19 -0.6394E-21
     -3.205 -0.2440E-18 -0.1173E-19
     -3.160 -0.4005E-17 -0.1938E-18
     -3.114 -0.5612E-16 -0.2746E-17
     -3.069 -0.7622E-15 -0.3740E-16
     -3.023 -0.9095E-14 -0.4509E-15
     -2.978 -0.9747E-13 -0.4882E-14
     -2.932 -0.9389E-12 -0.4757E-13
     -2.887 -0.8123E-11 -0.4169E-12
     -2.841 -0.6309E-10 -0.3285E-11
     -2.796 -0.4397E-09 -0.2327E-10
     -2.751 -0.2747E-08 -0.1482E-09
     -2.705 -0.1537E-07 -0.8470E-09
     -2.660 -0.7697E-07 -0.4346E-08
     -2.614 -0.3444E-06 -0.2000E-07
     -2.569 -0.1374E-05 -0.8249E-07
     -2.523 -0.4882E-05 -0.3044E-06
     -2.478 -0.1539E-04 -0.1004E-05
     -2.432 -0.4289E-04 -0.2954E-05
     -2.387 -0.1050E-03 -0.7730E-05
     -2.341 -0.2242E-03 -0.1792E-04
     -2.296 -0.4111E-03 -0.3661E-04
     -2.250 -0.6306E-03 -0.6528E-04
     -2.205 -0.7605E-03 -0.9985E-04
     -2.160 -0.5786E-03 -0.1262E-03
     -2.114  0.1847E-03 -0.1178E-03
     -2.069  0.1740E-02 -0.3866E-04
     -2.023  0.4159E-02  0.1504E-03
     -1.978  0.7416E-02  0.4876E-03
     -1.932  0.1150E-01  0.1011E-02
     -1.887  0.1646E-01  0.1759E-02
     -1.841  0.2214E-01  0.2765E-02
     -1.796  0.2802E-01  0.4039E-02
     -1.750  0.3317E-01  0.5547E-02
     -1.705  0.3679E-01  0.7220E-02
     -1.659  0.3867E-01  0.8978E-02
     -1.614  0.3933E-01  0.1077E-01
     -1.568  0.3963E-01  0.1257E-01
     -1.523  0.4035E-01  0.1440E-01
     -1.478  0.4200E-01  0.1631E-01
     -1.432  0.4484E-01  0.1835E-01
     -1.387  0.4900E-01  0.2058E-01
     -1.341  0.5442E-01  0.2305E-01
     -1.296  0.6074E-01  0.2581E-01
     -1.250  0.6708E-01  0.2886E-01
     -1.205  0.7185E-01  0.3213E-01
     -1.159  0.7321E-01  0.3546E-01
     -1.114  0.7016E-01  0.3865E-01
     -1.068  0.6353E-01  0.4154E-01
     -1.023  0.5599E-01  0.4408E-01
     -0.977  0.5092E-01  0.4640E-01
     -0.932  0.5089E-01  0.4871E-01
     -0.887  0.5670E-01  0.5129E-01
     -0.841  0.6742E-01  0.5435E-01
     -0.796  0.8108E-01  0.5804E-01
     -0.750  0.9521E-01  0.6237E-01
     -0.705  0.1071E+00  0.6724E-01
     -0.659  0.1136E+00  0.7240E-01
     -0.614  0.1124E+00  0.7751E-01
     -0.568  0.1031E+00  0.8220E-01
     -0.523  0.8827E-01  0.8621E-01
     -0.477  0.7343E-01  0.8955E-01
     -0.432  0.6429E-01  0.9248E-01
     -0.386  0.6428E-01  0.9540E-01
     -0.341  0.7329E-01  0.9873E-01
     -0.295  0.8815E-01  0.1027E+00
     -0.250  0.1043E+00  0.1075E+00
     -0.205  0.1176E+00  0.1128E+00
     -0.159  0.1253E+00  0.1185E+00
     -0.114  0.1264E+00  0.1243E+00
     -0.068  0.1224E+00  0.1298E+00
     -0.023  0.1165E+00  0.1351E+00
      0.023  0.1122E+00  0.1402E+00
      0.068  0.1122E+00  0.1453E+00
      0.114  0.1166E+00  0.1506E+00
      0.159  0.1238E+00  0.1563E+00
      0.205  0.1311E+00  0.1622E+00
      0.250  0.1368E+00  0.1684E+00
      0.296  0.1404E+00  0.1748E+00
      0.341  0.1416E+00  0.1813E+00
      0.386  0.1405E+00  0.1877E+00
      0.432  0.1371E+00  0.1939E+00
      0.477  0.1317E+00  0.1999E+00
      0.523  0.1254E+00  0.2056E+00
      0.568  0.1207E+00  0.2111E+00
      0.614  0.1212E+00  0.2166E+00
      0.659  0.1302E+00  0.2225E+00
      0.705  0.1486E+00  0.2293E+00
      0.750  0.1732E+00  0.2371E+00
      0.796  0.1969E+00  0.2461E+00
      0.841  0.2125E+00  0.2557E+00
      0.887  0.2164E+00  0.2656E+00
      0.932  0.2107E+00  0.2752E+00
      0.978  0.2011E+00  0.2843E+00
      1.023  0.1925E+00  0.2931E+00
      1.068  0.1857E+00  0.3015E+00
      1.114  0.1786E+00  0.3096E+00
      1.159  0.1697E+00  0.3173E+00
      1.205  0.1623E+00  0.3247E+00
      1.250  0.1634E+00  0.3321E+00
      1.296  0.1800E+00  0.3403E+00
      1.341  0.2137E+00  0.3500E+00
      1.387  0.2582E+00  0.3618E+00
      1.432  0.3013E+00  0.3755E+00
      1.478  0.3299E+00  0.3905E+00
      1.523  0.3357E+00  0.4057E+00
      1.569  0.3190E+00  0.4202E+00
      1.614  0.2891E+00  0.4334E+00
      1.660  0.2622E+00  0.4453E+00
      1.705  0.2563E+00  0.4570E+00
      1.750  0.2852E+00  0.4699E+00
      1.796  0.3539E+00  0.4860E+00
      1.841  0.4573E+00  0.5068E+00
      1.887  0.5818E+00  0.5333E+00
      1.932  0.7105E+00  0.5656E+00
      1.978  0.8290E+00  0.6033E+00
      2.023  0.9274E+00  0.6454E+00
      2.069  0.1000E+01  0.6909E+00
      2.114  0.1043E+01  0.7383E+00
      2.160  0.1057E+01  0.7864E+00
      2.205  0.1047E+01  0.8340E+00
      2.251  0.1026E+01  0.8807E+00
      2.296  0.1011E+01  0.9266E+00
      2.341  0.1014E+01  0.9727E+00
      2.387  0.1039E+01  0.1020E+01
      2.432  0.1078E+01  0.1069E+01
      2.478  0.1118E+01  0.1120E+01
      2.523  0.1149E+01  0.1172E+01
      2.569  0.1172E+01  0.1225E+01
      2.614  0.1198E+01  0.1280E+01
      2.660  0.1238E+01  0.1336E+01
      2.705  0.1296E+01  0.1395E+01
      2.751  0.1361E+01  0.1457E+01
      2.796  0.1423E+01  0.1522E+01
      2.842  0.1474E+01  0.1589E+01
      2.887  0.1520E+01  0.1658E+01
      2.933  0.1569E+01  0.1729E+01
      2.978  0.1624E+01  0.1803E+01
      3.023  0.1675E+01  0.1879E+01
      3.069  0.1708E+01  0.1957E+01
      3.114  0.1711E+01  0.2034E+01
      3.160  0.1686E+01  0.2111E+01
      3.205  0.1646E+01  0.2186E+01
      3.251  0.1602E+01  0.2259E+01
      3.296  0.1563E+01  0.2330E+01
      3.342  0.1531E+01  0.2399E+01
      3.387  0.1505E+01  0.2468E+01
      3.433  0.1492E+01  0.2536E+01
      3.478  0.1493E+01  0.2604E+01
      3.524  0.1504E+01  0.2672E+01
      3.569  0.1514E+01  0.2741E+01
      3.614  0.1507E+01  0.2809E+01
      3.660  0.1477E+01  0.2876E+01
      3.705  0.1429E+01  0.2941E+01
      3.751  0.1378E+01  0.3004E+01
      3.796  0.1340E+01  0.3065E+01
      3.842  0.1325E+01  0.3125E+01
      3.887  0.1328E+01  0.3186E+01
      3.933  0.1334E+01  0.3246E+01
      3.978  0.1325E+01  0.3307E+01
      4.024  0.1297E+01  0.3365E+01
      4.069  0.1263E+01  0.3423E+01
      4.115  0.1248E+01  0.3480E+01
      4.160  0.1268E+01  0.3537E+01
      4.206  0.1322E+01  0.3597E+01
      4.251  0.1397E+01  0.3661E+01
      4.296  0.1477E+01  0.3728E+01
      4.342  0.1560E+01  0.3799E+01
      4.387  0.1650E+01  0.3874E+01
      4.433  0.1745E+01  0.3953E+01
      4.478  0.1830E+01  0.4037E+01
      4.524  0.1882E+01  0.4122E+01
      4.569  0.1883E+01  0.4208E+01
      4.615  0.1835E+01  0.4291E+01
      4.660  0.1764E+01  0.4371E+01
      4.706  0.1707E+01  0.4449E+01
      4.751  0.1700E+01  0.4526E+01
      4.797  0.1763E+01  0.4606E+01
      4.842  0.1890E+01  0.4692E+01
      4.887  0.2049E+01  0.4785E+01
      4.933  0.2197E+01  0.4885E+01
      4.978  0.2298E+01  0.4990E+01
      5.024  0.2338E+01  0.5096E+01
      5.069  0.2326E+01  0.5202E+01
      5.115  0.2286E+01  0.5306E+01
      5.160  0.2245E+01  0.5408E+01
      5.206  0.2227E+01  0.5509E+01
      5.251  0.2247E+01  0.5611E+01
      5.297  0.2313E+01  0.5716E+01
      5.342  0.2420E+01  0.5826E+01
      5.388  0.2548E+01  0.5942E+01
      5.433  0.2654E+01  0.6063E+01
      5.479  0.2690E+01  0.6185E+01
      5.524  0.2626E+01  0.6305E+01
      5.569  0.2465E+01  0.6417E+01
      5.615  0.2247E+01  0.6519E+01
      5.660  0.2028E+01  0.6611E+01
      5.706  0.1850E+01  0.6695E+01
      5.751  0.1726E+01  0.6774E+01
      5.797  0.1639E+01  0.6848E+01
      5.842  0.1566E+01  0.6919E+01
      5.888  0.1494E+01  0.6987E+01
      5.933  0.1431E+01  0.7052E+01
      5.979  0.1397E+01  0.7116E+01
      6.024  0.1407E+01  0.7180E+01
      6.070  0.1464E+01  0.7246E+01
      6.115  0.1553E+01  0.7317E+01
      6.161  0.1651E+01  0.7392E+01
      6.206  0.1739E+01  0.7471E+01
      6.251  0.1809E+01  0.7553E+01
      6.297  0.1867E+01  0.7638E+01
      6.342  0.1927E+01  0.7726E+01
      6.388  0.1995E+01  0.7817E+01
      6.433  0.2064E+01  0.7911E+01
      6.479  0.2115E+01  0.8007E+01
      6.524  0.2129E+01  0.8103E+01
      6.570  0.2108E+01  0.8199E+01
      6.615  0.2072E+01  0.8293E+01
      6.661  0.2043E+01  0.8386E+01
      6.706  0.2026E+01  0.8478E+01
      6.752  0.2006E+01  0.8570E+01
      6.797  0.1958E+01  0.8659E+01
      6.842  0.1871E+01  0.8744E+01
      6.888  0.1766E+01  0.8824E+01
      6.933  0.1680E+01  0.8900E+01
      6.979  0.1646E+01  0.8975E+01
      7.024  0.1667E+01  0.9051E+01
      7.070  0.1724E+01  0.9129E+01
      7.115  0.1783E+01  0.9211E+01
      7.161  0.1824E+01  0.9293E+01
      7.206  0.1844E+01  0.9377E+01
      7.252  0.1856E+01  0.9462E+01
      7.297  0.1876E+01  0.9547E+01
      7.343  0.1916E+01  0.9634E+01
      7.388  0.1979E+01  0.9724E+01
      7.434  0.2056E+01  0.9818E+01
      7.479  0.2123E+01  0.9914E+01
      7.524  0.2140E+01  0.1001E+02
      7.570  0.2065E+01  0.1011E+02
      7.615  0.1869E+01  0.1019E+02
      7.661  0.1553E+01  0.1026E+02
      7.706  0.1158E+01  0.1031E+02
      7.752  0.7495E+00  0.1035E+02
      7.797  0.3957E+00  0.1037E+02
      7.843  0.1405E+00  0.1037E+02
      7.888 -0.6750E-02  0.1037E+02
      7.934 -0.6636E-01  0.1037E+02
      7.979 -0.7186E-01  0.1037E+02
      8.025 -0.5416E-01  0.1036E+02
      8.070 -0.3309E-01  0.1036E+02
      8.115 -0.1722E-01  0.1036E+02
      8.161 -0.7802E-02  0.1036E+02
      8.206 -0.3112E-02  0.1036E+02
      8.252 -0.1101E-02  0.1036E+02
      8.297 -0.3468E-03  0.1036E+02
      8.343 -0.9761E-04  0.1036E+02
      8.388 -0.2459E-04  0.1036E+02
      8.434 -0.5557E-05  0.1036E+02
      8.479 -0.1127E-05  0.1036E+02
      8.525 -0.2055E-06  0.1036E+02
      8.570 -0.3369E-07  0.1036E+02
      8.616 -0.4972E-08  0.1036E+02
      8.661 -0.6607E-09  0.1036E+02
      8.707 -0.7909E-10  0.1036E+02
      8.752 -0.8532E-11  0.1036E+02
      8.797 -0.8297E-12  0.1036E+02
      8.843 -0.7265E-13  0.1036E+02
      8.888 -0.5885E-14  0.1036E+02
      8.934 -0.3419E-15  0.1036E+02
      8.979  0.0000E+00  0.1036E+02
      9.025  0.0000E+00  0.1036E+02
      9.070  0.0000E+00  0.1036E+02
      9.116  0.0000E+00  0.1036E+02
      9.161  0.0000E+00  0.1036E+02
      9.207  0.0000E+00  0.1036E+02
      9.252  0.0000E+00  0.1036E+02
      9.298  0.0000E+00  0.1036E+02
      9.343  0.0000E+00  0.1036E+02
      9.388  0.0000E+00  0.1036E+02
      9.434  0.0000E+00  0.1036E+02
      9.479  0.0000E+00  0.1036E+02
      9.525  0.0000E+00  0.1036E+02
      9.570  0.0000E+00  0.1036E+02
      9.616  0.0000E+00  0.1036E+02
      9.661  0.0000E+00  0.1036E+02
      9.707  0.0000E+00  0.1036E+02
