  108  108  100    1
  0.1022088E+02  0.1033485E-08  0.1033485E-08  0.1033485E-08  0.5000000E-15
  1.000000000000000E-004
  CAR 
 Opt                                     
    864      4    518
 
  0.1250000E+00  0.1250000E+00  0.1250000E+00  0.1250000E+00
    1       -1.932646   1.000000
    2       -0.801135   1.000000
    3       -0.801135   1.000000
    4       -0.801135   1.000000
    5       -0.118139   1.000000
    6       -0.118139   1.000000
    7       -0.118139   1.000000
    8        0.214223   1.000000
    9        0.214223   1.000000
   10        0.214223   1.000000
   11        0.820698   1.000000
   12        0.820698   1.000000
   13        0.820698   1.000000
   14        0.820698   1.000000
   15        0.820698   1.000000
   16        0.820698   1.000000
   17        0.927165   1.000000
   18        1.322698   1.000000
   19        1.322698   1.000000
   20        1.322698   1.000000
   21        1.369856   1.000000
   22        1.369856   1.000000
   23        1.369856   1.000000
   24        1.590763   1.000000
   25        1.590763   1.000000
   26        1.590763   1.000000
   27        1.724126   1.000000
   28        1.795962   1.000000
   29        1.795962   1.000000
   30        1.795962   1.000000
   31        1.895645   1.000000
   32        1.895645   1.000000
   33        1.895646   1.000000
   34        1.991529   1.000000
   35        1.991529   1.000000
   36        1.991529   1.000000
   37        2.348692   1.000000
   38        2.348692   1.000000
   39        2.348692   1.000000
   40        2.471157   1.000000
   41        2.471157   1.000000
   42        2.471157   1.000000
   43        2.471157   1.000000
   44        2.471157   1.000000
   45        2.471157   1.000000
   46        2.485955   1.000000
   47        2.485955   1.000000
   48        2.485955   1.000000
   49        2.530362   1.000000
   50        2.530363   1.000000
   51        2.530363   1.000000
   52        2.530364   1.000000
   53        2.530364   1.000000
   54        2.530364   1.000000
   55        2.555353   1.000000
   56        2.555353   1.000000
   57        2.555353   1.000000
   58        2.555353   1.000000
   59        2.555353   1.000000
   60        2.555353   1.000000
   61        2.630513   1.000000
   62        2.630513   1.000000
   63        2.630513   1.000000
   64        2.633828   1.000000
   65        2.633828   1.000000
   66        2.633828   1.000000
   67        2.725947   1.000000
   68        2.725947   1.000000
   69        2.725947   1.000000
   70        2.725947   1.000000
   71        2.725947   1.000000
   72        2.725947   1.000000
   73        2.765165   1.000000
   74        2.765165   1.000000
   75        2.765165   1.000000
   76        2.765165   1.000000
   77        2.765166   1.000000
   78        2.765166   1.000000
   79        2.768087   1.000000
   80        2.768087   1.000000
   81        2.768087   1.000000
   82        2.822683   1.000000
   83        2.822683   1.000000
   84        2.822683   1.000000
   85        2.822684   1.000000
   86        2.822684   1.000000
   87        2.822684   1.000000
   88        2.934563   1.000000
   89        2.934563   1.000000
   90        2.934563   1.000000
   91        2.934563   1.000000
   92        2.934563   1.000000
   93        2.934563   1.000000
   94        3.048076   1.000000
   95        3.048076   1.000000
   96        3.048076   1.000000
   97        3.065631   1.000000
   98        3.065631   1.000000
   99        3.065631   1.000000
  100        3.098320   1.000000
  101        3.098320   1.000000
  102        3.098320   1.000000
  103        3.098320   1.000000
  104        3.098320   1.000000
  105        3.098320   1.000000
  106        3.159517   1.000000
  107        3.159517   1.000000
  108        3.159517   1.000000
  109        3.159517   1.000000
  110        3.159517   1.000000
  111        3.159517   1.000000
  112        3.323735   1.000000
  113        3.323735   1.000000
  114        3.323735   1.000000
  115        3.323739   1.000000
  116        3.323739   1.000000
  117        3.323740   1.000000
  118        3.332341   1.000000
  119        3.332341   1.000000
  120        3.332341   1.000000
  121        3.436223   1.000000
  122        3.436223   1.000000
  123        3.436223   1.000000
  124        3.439294   1.000000
  125        3.439294   1.000000
  126        3.439295   1.000000
  127        3.484090   1.000000
  128        3.484090   1.000000
  129        3.484090   1.000000
  130        3.484090   1.000000
  131        3.484090   1.000000
  132        3.484090   1.000000
  133        3.508733   1.000000
  134        3.508733   1.000000
  135        3.508733   1.000000
  136        3.508733   1.000000
  137        3.508733   1.000000
  138        3.508733   1.000000
  139        3.562814   1.000000
  140        3.562814   1.000000
  141        3.562815   1.000000
  142        3.562817   1.000000
  143        3.562817   1.000000
  144        3.562817   1.000000
  145        3.681213   1.000000
  146        3.681213   1.000000
  147        3.681213   1.000000
  148        3.681213   1.000000
  149        3.681213   1.000000
  150        3.681213   1.000000
  151        3.719919   1.000000
  152        3.719919   1.000000
  153        3.719920   1.000000
  154        3.743590   1.000000
  155        3.743590   1.000000
  156        3.743590   1.000000
  157        3.743590   1.000000
  158        3.743590   1.000000
  159        3.743590   1.000000
  160        3.896747   1.000000
  161        3.896747   1.000000
  162        3.896747   1.000000
  163        3.896748   1.000000
  164        3.896748   1.000000
  165        3.896748   1.000000
  166        3.913695   1.000000
  167        3.913695   1.000000
  168        3.913697   1.000000
  169        4.104706   1.000000
  170        4.104706   1.000000
  171        4.104706   1.000000
  172        4.104707   1.000000
  173        4.104708   1.000000
  174        4.104708   1.000000
  175        4.244686   1.000000
  176        4.244686   1.000000
  177        4.244686   1.000000
  178        4.262988   1.000000
  179        4.262988   1.000000
  180        4.262988   1.000000
  181        4.295972   1.000000
  182        4.295972   1.000000
  183        4.295972   1.000000
  184        4.310709   1.000000
  185        4.310709   1.000000
  186        4.310709   1.000000
  187        4.310711   1.000000
  188        4.310711   1.000000
  189        4.310711   1.000000
  190        4.319058   1.000000
  191        4.319058   1.000000
  192        4.319058   1.000000
  193        4.443619   1.000000
  194        4.443619   1.000000
  195        4.443619   1.000000
  196        4.443619   1.000000
  197        4.443619   1.000000
  198        4.443619   1.000000
  199        4.464068   1.000000
  200        4.464068   1.000000
  201        4.464068   1.000000
  202        4.470539   1.000000
  203        4.470539   1.000000
  204        4.470539   1.000000
  205        4.470540   1.000000
  206        4.470540   1.000000
  207        4.470540   1.000000
  208        4.483069   1.000000
  209        4.483069   1.000000
  210        4.483069   1.000000
  211        4.483069   1.000000
  212        4.483069   1.000000
  213        4.483069   1.000000
  214        4.600952   1.000000
  215        4.600952   1.000000
  216        4.600952   1.000000
  217        4.625816   1.000000
  218        4.625816   1.000000
  219        4.625816   1.000000
  220        4.640254   1.000000
  221        4.640254   1.000000
  222        4.640254   1.000000
  223        4.731088   1.000000
  224        4.812323   1.000000
  225        4.812323   1.000000
  226        4.812323   1.000000
  227        4.812323   1.000000
  228        4.812323   1.000000
  229        4.812323   1.000000
  230        4.820430   1.000000
  231        4.820430   1.000000
  232        4.820431   1.000000
  233        4.820433   1.000000
  234        4.820433   1.000000
  235        4.820433   1.000000
  236        4.826673   1.000000
  237        4.826673   1.000000
  238        4.826674   1.000000
  239        4.962828   1.000000
  240        4.962828   1.000000
  241        4.962828   1.000000
  242        4.962829   1.000000
  243        4.962830   1.000000
  244        4.962830   1.000000
  245        5.057643   1.000000
  246        5.057643   1.000000
  247        5.057643   1.000000
  248        5.062803   1.000000
  249        5.062804   1.000000
  250        5.062804   1.000000
  251        5.067045   1.000000
  252        5.067045   1.000000
  253        5.067045   1.000000
  254        5.067045   1.000000
  255        5.067045   1.000000
  256        5.067045   1.000000
  257        5.093436   1.000000
  258        5.093436   1.000000
  259        5.093436   1.000000
  260        5.120481   1.000000
  261        5.120481   1.000000
  262        5.120481   1.000000
  263        5.120482   1.000000
  264        5.120483   1.000000
  265        5.120483   1.000000
  266        5.134997   1.000000
  267        5.163441   1.000000
  268        5.163441   1.000000
  269        5.163441   1.000000
  270        5.164203   1.000000
  271        5.164203   1.000000
  272        5.164203   1.000000
  273        5.185198   1.000000
  274        5.185198   1.000000
  275        5.203301   1.000000
  276        5.203301   1.000000
  277        5.220741   1.000000
  278        5.220741   1.000000
  279        5.220741   1.000000
  280        5.220741   1.000000
  281        5.220742   1.000000
  282        5.220742   1.000000
  283        5.236318   1.000000
  284        5.236321   1.000000
  285        5.236321   1.000000
  286        5.282291   1.000000
  287        5.282291   1.000000
  288        5.282317   1.000000
  289        5.284264   1.000000
  290        5.284290   1.000000
  291        5.284290   1.000000
  292        5.301698   1.000000
  293        5.301698   1.000000
  294        5.301698   1.000000
  295        5.301698   1.000000
  296        5.301698   1.000000
  297        5.301698   1.000000
  298        5.330121   1.000000
  299        5.330121   1.000000
  300        5.330121   1.000000
  301        5.360639   1.000000
  302        5.360639   1.000000
  303        5.360640   1.000000
  304        5.373374   1.000000
  305        5.373374   1.000000
  306        5.414036   1.000000
  307        5.414036   1.000000
  308        5.414038   1.000000
  309        5.416135   1.000000
  310        5.416135   1.000000
  311        5.416135   1.000000
  312        5.552773   1.000000
  313        5.568714   1.000000
  314        5.568715   1.000000
  315        5.568715   1.000000
  316        5.584359   1.000000
  317        5.584359   1.000000
  318        5.584359   1.000000
  319        5.591826   1.000000
  320        5.591826   1.000000
  321        5.591827   1.000000
  322        5.591827   1.000000
  323        5.591828   1.000000
  324        5.591828   1.000000
  325        5.593839   1.000000
  326        5.593839   1.000000
  327        5.593839   1.000000
  328        5.618344   1.000000
  329        5.618344   1.000000
  330        5.618344   1.000000
  331        5.733854   1.000000
  332        5.733854   1.000000
  333        5.733854   1.000000
  334        5.736816   1.000000
  335        5.736816   1.000000
  336        5.736816   1.000000
  337        5.743453   1.000000
  338        5.743453   1.000000
  339        5.743453   1.000000
  340        5.743453   1.000000
  341        5.743453   1.000000
  342        5.743453   1.000000
  343        5.760921   1.000000
  344        5.760921   1.000000
  345        5.760921   1.000000
  346        5.810660   1.000000
  347        5.810660   1.000000
  348        5.810661   1.000000
  349        5.810662   1.000000
  350        5.810662   1.000000
  351        5.810662   1.000000
  352        5.855097   1.000000
  353        5.855097   1.000000
  354        5.855097   1.000000
  355        5.892537   1.000000
  356        5.892537   1.000000
  357        5.892537   1.000000
  358        5.892539   1.000000
  359        5.892539   1.000000
  360        5.892539   1.000000
  361        5.924839   1.000000
  362        5.924839   1.000000
  363        5.924839   1.000000
  364        5.971030   1.000000
  365        5.971030   1.000000
  366        5.971032   1.000000
  367        6.073527   1.000003
  368        6.073527   1.000003
  369        6.073528   1.000003
  370        6.100206   1.000007
  371        6.100206   1.000007
  372        6.100206   1.000007
  373        6.234419   1.000328
  374        6.234419   1.000328
  375        6.234419   1.000328
  376        6.234542   1.000329
  377        6.234542   1.000329
  378        6.234542   1.000329
  379        6.235969   1.000341
  380        6.235969   1.000341
  381        6.235969   1.000341
  382        6.239314   1.000371
  383        6.239314   1.000371
  384        6.239314   1.000371
  385        6.240942   1.000386
  386        6.240942   1.000386
  387        6.240942   1.000386
  388        6.318313   1.002250
  389        6.318314   1.002250
  390        6.318314   1.002250
  391        6.421375   1.013316
  392        6.421376   1.013316
  393        6.421376   1.013316
  394        6.421376   1.013316
  395        6.421376   1.013316
  396        6.421377   1.013317
  397        6.489242   1.028079
  398        6.489242   1.028079
  399        6.489243   1.028079
  400        6.489243   1.028079
  401        6.489243   1.028079
  402        6.489243   1.028079
  403        6.613829   1.005344
  404        6.613829   1.005344
  405        6.613829   1.005344
  406        6.613830   1.005343
  407        6.613830   1.005343
  408        6.613830   1.005343
  409        6.633819   0.981253
  410        6.633819   0.981253
  411        6.633819   0.981253
  412        6.633820   0.981252
  413        6.633820   0.981252
  414        6.633820   0.981252
  415        6.679911   0.889746
  416        6.679911   0.889746
  417        6.679926   0.889708
  418        6.690379   0.861565
  419        6.690393   0.861527
  420        6.690393   0.861527
  421        6.708981   0.804951
  422        6.708981   0.804951
  423        6.794517   0.469545
  424        6.794517   0.469545
  425        6.794517   0.469545
  426        6.794518   0.469538
  427        6.794518   0.469538
  428        6.794518   0.469538
  429        6.866997   0.190672
  430        6.866997   0.190672
  431        6.866997   0.190672
  432        6.866998   0.190669
  433        6.866998   0.190669
  434        6.866998   0.190668
  435        6.876526   0.160951
  436        6.876527   0.160949
  437        6.876527   0.160949
  438        6.913080   0.067469
  439        6.913080   0.067469
  440        6.913080   0.067469
  441        7.024706  -0.035226
  442        7.024706  -0.035226
  443        7.024706  -0.035226
  444        7.024707  -0.035226
  445        7.024707  -0.035226
  446        7.024707  -0.035226
  447        7.035393  -0.035421
  448        7.035393  -0.035421
  449        7.035393  -0.035421
  450        7.039449  -0.035268
  451        7.039449  -0.035268
  452        7.063645  -0.032422
  453        7.063645  -0.032422
  454        7.063645  -0.032422
  455        7.063645  -0.032422
  456        7.063645  -0.032422
  457        7.063645  -0.032422
  458        7.089348  -0.027196
  459        7.089348  -0.027196
  460        7.089348  -0.027196
  461        7.089350  -0.027195
  462        7.089350  -0.027195
  463        7.089350  -0.027195
  464        7.127434  -0.018521
  465        7.127434  -0.018521
  466        7.127435  -0.018521
  467        7.139654  -0.015946
  468        7.139654  -0.015946
  469        7.139654  -0.015946
  470        7.202251  -0.006234
  471        7.202252  -0.006234
  472        7.202252  -0.006234
  473        7.221852  -0.004400
  474        7.221853  -0.004400
  475        7.221853  -0.004400
  476        7.250030  -0.002557
  477        7.250030  -0.002557
  478        7.250030  -0.002557
  479        7.255014  -0.002311
  480        7.255014  -0.002311
  481        7.255014  -0.002311
  482        7.312872  -0.000642
  483        7.312872  -0.000642
  484        7.312874  -0.000642
  485        7.351607  -0.000245
  486        7.351608  -0.000245
  487        7.351609  -0.000245
  488        7.351610  -0.000245
  489        7.351612  -0.000245
  490        7.351612  -0.000245
  491        7.383889  -0.000103
  492        7.383890  -0.000103
  493        7.383890  -0.000103
  494        7.383895  -0.000103
  495        7.383904  -0.000103
  496        7.383914  -0.000103
  497        7.446379  -0.000016
  498        7.446380  -0.000016
  499        7.446389  -0.000016
  500        7.446431  -0.000016
  501        7.446505  -0.000016
  502        7.446612  -0.000016
  503        7.463946  -0.000009
  504        7.464197  -0.000009
  505        7.466449  -0.000009
  506        7.466513  -0.000009
  507        7.466802  -0.000009
  508        7.556148  -0.000000
  509        7.556554  -0.000000
  510        7.557156  -0.000000
  511        7.559197  -0.000000
  512        7.559304  -0.000000
  513        7.559362  -0.000000
  514        7.559472  -0.000000
  515        7.560434  -0.000000
  516        7.562196  -0.000000
  517        7.564162  -0.000000
  518        7.592346  -0.000000
 
  0.3750000E+00  0.1250000E+00  0.1250000E+00  0.3750000E+00
    1       -1.736502   1.000000
    2       -1.352820   1.000000
    3       -0.624050   1.000000
    4       -0.624050   1.000000
    5       -0.278967   1.000000
    6       -0.278967   1.000000
    7        0.047184   1.000000
    8        0.047184   1.000000
    9        0.343395   1.000000
   10        0.367510   1.000000
   11        0.367510   1.000000
   12        0.589245   1.000000
   13        0.628515   1.000000
   14        0.914722   1.000000
   15        0.914722   1.000000
   16        1.089513   1.000000
   17        1.089513   1.000000
   18        1.319073   1.000000
   19        1.410781   1.000000
   20        1.482757   1.000000
   21        1.482757   1.000000
   22        1.486376   1.000000
   23        1.737056   1.000000
   24        1.876763   1.000000
   25        1.876766   1.000000
   26        1.891820   1.000000
   27        1.936564   1.000000
   28        1.936564   1.000000
   29        1.940751   1.000000
   30        1.960007   1.000000
   31        1.960007   1.000000
   32        1.998286   1.000000
   33        2.015794   1.000000
   34        2.015795   1.000000
   35        2.099510   1.000000
   36        2.106560   1.000000
   37        2.106560   1.000000
   38        2.127183   1.000000
   39        2.127183   1.000000
   40        2.134419   1.000000
   41        2.172018   1.000000
   42        2.172019   1.000000
   43        2.201691   1.000000
   44        2.201691   1.000000
   45        2.239612   1.000000
   46        2.239613   1.000000
   47        2.283988   1.000000
   48        2.283989   1.000000
   49        2.383189   1.000000
   50        2.383189   1.000000
   51        2.485582   1.000000
   52        2.485582   1.000000
   53        2.514992   1.000000
   54        2.514992   1.000000
   55        2.515645   1.000000
   56        2.515645   1.000000
   57        2.538822   1.000000
   58        2.538822   1.000000
   59        2.541589   1.000000
   60        2.541589   1.000000
   61        2.595181   1.000000
   62        2.595181   1.000000
   63        2.628229   1.000000
   64        2.628230   1.000000
   65        2.635309   1.000000
   66        2.635310   1.000000
   67        2.690109   1.000000
   68        2.690109   1.000000
   69        2.705913   1.000000
   70        2.718998   1.000000
   71        2.718998   1.000000
   72        2.745199   1.000000
   73        2.745199   1.000000
   74        2.761985   1.000000
   75        2.761985   1.000000
   76        2.763136   1.000000
   77        2.763136   1.000000
   78        2.809159   1.000000
   79        2.809159   1.000000
   80        2.809583   1.000000
   81        2.809583   1.000000
   82        2.853273   1.000000
   83        2.895669   1.000000
   84        2.895669   1.000000
   85        2.903612   1.000000
   86        2.903612   1.000000
   87        2.913916   1.000000
   88        2.913916   1.000000
   89        2.923938   1.000000
   90        2.923938   1.000000
   91        2.939530   1.000000
   92        2.959571   1.000000
   93        3.016744   1.000000
   94        3.016746   1.000000
   95        3.030497   1.000000
   96        3.030497   1.000000
   97        3.034886   1.000000
   98        3.034886   1.000000
   99        3.039442   1.000000
  100        3.039442   1.000000
  101        3.043856   1.000000
  102        3.108451   1.000000
  103        3.108451   1.000000
  104        3.136482   1.000000
  105        3.136482   1.000000
  106        3.206891   1.000000
  107        3.206891   1.000000
  108        3.215514   1.000000
  109        3.215514   1.000000
  110        3.232793   1.000000
  111        3.241205   1.000000
  112        3.241213   1.000000
  113        3.248829   1.000000
  114        3.248829   1.000000
  115        3.277136   1.000000
  116        3.277136   1.000000
  117        3.302266   1.000000
  118        3.302266   1.000000
  119        3.325247   1.000000
  120        3.325247   1.000000
  121        3.391919   1.000000
  122        3.391919   1.000000
  123        3.416271   1.000000
  124        3.416271   1.000000
  125        3.417638   1.000000
  126        3.417638   1.000000
  127        3.486525   1.000000
  128        3.508398   1.000000
  129        3.508398   1.000000
  130        3.509517   1.000000
  131        3.509517   1.000000
  132        3.517262   1.000000
  133        3.517262   1.000000
  134        3.548413   1.000000
  135        3.548413   1.000000
  136        3.555304   1.000000
  137        3.555305   1.000000
  138        3.581994   1.000000
  139        3.581994   1.000000
  140        3.622875   1.000000
  141        3.622875   1.000000
  142        3.625980   1.000000
  143        3.625980   1.000000
  144        3.631503   1.000000
  145        3.631504   1.000000
  146        3.638967   1.000000
  147        3.645579   1.000000
  148        3.706414   1.000000
  149        3.706415   1.000000
  150        3.767319   1.000000
  151        3.767319   1.000000
  152        3.788754   1.000000
  153        3.788754   1.000000
  154        3.816282   1.000000
  155        3.816282   1.000000
  156        3.829894   1.000000
  157        3.895991   1.000000
  158        3.895991   1.000000
  159        3.897695   1.000000
  160        3.897695   1.000000
  161        3.911478   1.000000
  162        3.911479   1.000000
  163        3.934763   1.000000
  164        3.934763   1.000000
  165        3.941827   1.000000
  166        3.941828   1.000000
  167        3.967343   1.000000
  168        3.993186   1.000000
  169        3.993186   1.000000
  170        4.020239   1.000000
  171        4.020240   1.000000
  172        4.038938   1.000000
  173        4.046369   1.000000
  174        4.046369   1.000000
  175        4.087204   1.000000
  176        4.087205   1.000000
  177        4.114252   1.000000
  178        4.114252   1.000000
  179        4.171873   1.000000
  180        4.171873   1.000000
  181        4.207238   1.000000
  182        4.207239   1.000000
  183        4.207422   1.000000
  184        4.207422   1.000000
  185        4.221753   1.000000
  186        4.221753   1.000000
  187        4.253110   1.000000
  188        4.253110   1.000000
  189        4.307803   1.000000
  190        4.307803   1.000000
  191        4.319505   1.000000
  192        4.319505   1.000000
  193        4.396415   1.000000
  194        4.396421   1.000000
  195        4.401138   1.000000
  196        4.424313   1.000000
  197        4.424314   1.000000
  198        4.465978   1.000000
  199        4.465978   1.000000
  200        4.469035   1.000000
  201        4.469036   1.000000
  202        4.469088   1.000000
  203        4.469088   1.000000
  204        4.514007   1.000000
  205        4.516554   1.000000
  206        4.516554   1.000000
  207        4.556859   1.000000
  208        4.556859   1.000000
  209        4.571969   1.000000
  210        4.571969   1.000000
  211        4.577523   1.000000
  212        4.593692   1.000000
  213        4.593692   1.000000
  214        4.609683   1.000000
  215        4.627061   1.000000
  216        4.627062   1.000000
  217        4.646225   1.000000
  218        4.646225   1.000000
  219        4.670981   1.000000
  220        4.670981   1.000000
  221        4.682441   1.000000
  222        4.685145   1.000000
  223        4.685145   1.000000
  224        4.726903   1.000000
  225        4.726904   1.000000
  226        4.781041   1.000000
  227        4.781042   1.000000
  228        4.804772   1.000000
  229        4.823567   1.000000
  230        4.857656   1.000000
  231        4.859063   1.000000
  232        4.859063   1.000000
  233        4.879241   1.000000
  234        4.879241   1.000000
  235        4.888331   1.000000
  236        4.888331   1.000000
  237        4.891474   1.000000
  238        4.891475   1.000000
  239        4.892985   1.000000
  240        4.892986   1.000000
  241        4.901785   1.000000
  242        4.918393   1.000000
  243        4.918393   1.000000
  244        4.941870   1.000000
  245        4.941870   1.000000
  246        4.943488   1.000000
  247        4.943488   1.000000
  248        4.950859   1.000000
  249        4.950859   1.000000
  250        4.987192   1.000000
  251        4.987194   1.000000
  252        5.003786   1.000000
  253        5.003786   1.000000
  254        5.023384   1.000000
  255        5.023385   1.000000
  256        5.030545   1.000000
  257        5.030545   1.000000
  258        5.042974   1.000000
  259        5.054998   1.000000
  260        5.055001   1.000000
  261        5.074528   1.000000
  262        5.077531   1.000000
  263        5.091968   1.000000
  264        5.097821   1.000000
  265        5.097821   1.000000
  266        5.098558   1.000000
  267        5.133610   1.000000
  268        5.147703   1.000000
  269        5.187436   1.000000
  270        5.193293   1.000000
  271        5.193294   1.000000
  272        5.198869   1.000000
  273        5.219946   1.000000
  274        5.223422   1.000000
  275        5.223422   1.000000
  276        5.250345   1.000000
  277        5.254529   1.000000
  278        5.261507   1.000000
  279        5.261507   1.000000
  280        5.262821   1.000000
  281        5.262822   1.000000
  282        5.270745   1.000000
  283        5.279752   1.000000
  284        5.279753   1.000000
  285        5.306241   1.000000
  286        5.306242   1.000000
  287        5.307293   1.000000
  288        5.307293   1.000000
  289        5.320759   1.000000
  290        5.320759   1.000000
  291        5.321688   1.000000
  292        5.321689   1.000000
  293        5.388618   1.000000
  294        5.390437   1.000000
  295        5.390437   1.000000
  296        5.391791   1.000000
  297        5.407453   1.000000
  298        5.415678   1.000000
  299        5.418655   1.000000
  300        5.426419   1.000000
  301        5.426419   1.000000
  302        5.427674   1.000000
  303        5.427674   1.000000
  304        5.437746   1.000000
  305        5.451648   1.000000
  306        5.451658   1.000000
  307        5.452296   1.000000
  308        5.452296   1.000000
  309        5.453410   1.000000
  310        5.475454   1.000000
  311        5.475454   1.000000
  312        5.480059   1.000000
  313        5.480060   1.000000
  314        5.513173   1.000000
  315        5.513173   1.000000
  316        5.515011   1.000000
  317        5.515011   1.000000
  318        5.522500   1.000000
  319        5.522500   1.000000
  320        5.534248   1.000000
  321        5.534248   1.000000
  322        5.545442   1.000000
  323        5.558647   1.000000
  324        5.558647   1.000000
  325        5.585572   1.000000
  326        5.585572   1.000000
  327        5.588706   1.000000
  328        5.598498   1.000000
  329        5.598498   1.000000
  330        5.637272   1.000000
  331        5.637272   1.000000
  332        5.647789   1.000000
  333        5.647789   1.000000
  334        5.655644   1.000000
  335        5.662656   1.000000
  336        5.662664   1.000000
  337        5.676021   1.000000
  338        5.676022   1.000000
  339        5.716260   1.000000
  340        5.718783   1.000000
  341        5.718785   1.000000
  342        5.742848   1.000000
  343        5.765807   1.000000
  344        5.818154   1.000000
  345        5.818892   1.000000
  346        5.818892   1.000000
  347        5.837846   1.000000
  348        5.837846   1.000000
  349        5.846213   1.000000
  350        5.846213   1.000000
  351        5.858173   1.000000
  352        5.858173   1.000000
  353        5.865617   1.000000
  354        5.959571   1.000000
  355        5.959571   1.000000
  356        5.998663   1.000000
  357        5.998663   1.000000
  358        6.062416   1.000002
  359        6.062416   1.000002
  360        6.074586   1.000003
  361        6.074586   1.000003
  362        6.085736   1.000004
  363        6.085736   1.000004
  364        6.117426   1.000012
  365        6.117427   1.000012
  366        6.123108   1.000014
  367        6.133674   1.000019
  368        6.133675   1.000019
  369        6.166499   1.000052
  370        6.181545   1.000079
  371        6.181545   1.000079
  372        6.211822   1.000182
  373        6.211822   1.000182
  374        6.213902   1.000193
  375        6.213902   1.000193
  376        6.236319   1.000344
  377        6.252619   1.000515
  378        6.252619   1.000515
  379        6.262034   1.000646
  380        6.262034   1.000646
  381        6.262978   1.000661