 running on    8 total cores
 distrk:  each k-point on    8 cores,    1 groups
 distr:  one band on    4 cores,    2 groups
 using from now: INCAR     
 vasp.5.4.4.18Apr17-6-g9f103f2a35 (build Aug 17 2017 06:00:38) complex          
  
 POSCAR found type information on POSCAR  Fe
 POSCAR found :  1 types and     108 ions
 scaLAPACK will be used
 LDA part: xc-table for Pade appr. of Perdew
 POSCAR, INCAR and KPOINTS ok, starting setup
 FFT: planning ...
 WAVECAR not read
 entering main loop
       N       E                     dE             d eps       ncg     rms          rms(c)
DAV:   1     0.881862729781E+04    0.88186E+04   -0.35704E+05  4144   0.233E+03
DAV:   2     0.199623421641E+03   -0.86190E+04   -0.84622E+04  4144   0.513E+02
DAV:   3    -0.824274805299E+03   -0.10239E+04   -0.87495E+03  4144   0.227E+02
DAV:   4    -0.102712626169E+04   -0.20285E+03   -0.19074E+03  7504   0.641E+01
DAV:   5    -0.104507609274E+04   -0.17950E+02   -0.16966E+02  6696   0.245E+01    0.934E+01
RMM:   6    -0.877228580387E+03    0.16785E+03   -0.13531E+03  4144   0.111E+02    0.886E+00
RMM:   7    -0.880227130416E+03   -0.29986E+01   -0.11110E+02  4535   0.238E+01    0.340E+00
RMM:   8    -0.879334940676E+03    0.89219E+00   -0.13299E+01  4417   0.104E+01    0.416E+00
RMM:   9    -0.879712122433E+03   -0.37718E+00   -0.48425E+00  5786   0.197E+00    0.385E+00
RMM:  10    -0.879520983556E+03    0.19114E+00   -0.10820E+00  4998   0.164E+00    0.884E-01
RMM:  11    -0.879527011741E+03   -0.60282E-02   -0.19922E-01  5165   0.696E-01    0.458E-01
RMM:  12    -0.879526715233E+03    0.29651E-03   -0.49562E-02  5104   0.336E-01    0.114E-01
RMM:  13    -0.879527108264E+03   -0.39303E-03   -0.99702E-03  6052   0.844E-02    0.205E-02
RMM:  14    -0.879527121074E+03   -0.12810E-04   -0.25525E-04  6046   0.252E-02    0.209E-02
RMM:  15    -0.879527042519E+03    0.78555E-04    0.45643E-04  4789   0.178E-02    0.356E-03
RMM:  16    -0.879526990312E+03    0.52207E-04    0.40050E-04  5014   0.382E-03    0.273E-03
RMM:  17    -0.879526951147E+03    0.39165E-04    0.37106E-04  2913   0.298E-03    0.873E-04
RMM:  18    -0.879526926370E+03    0.24777E-04    0.20600E-04  2763   0.196E-03    0.635E-04
RMM:  19    -0.879526908253E+03    0.18117E-04    0.16386E-04  2689   0.182E-03    0.578E-04
RMM:  20    -0.879526892805E+03    0.15448E-04    0.14436E-04  2620   0.172E-03    0.578E-04
RMM:  21    -0.879526879326E+03    0.13479E-04    0.12856E-04  2563   0.103E-03    0.157E-04
RMM:  22    -0.879526867055E+03    0.12271E-04    0.11768E-04  2262   0.884E-04    0.348E-04
RMM:  23    -0.879526844070E+03    0.22986E-04    0.20841E-04  2226   0.777E-04    0.826E-05
RMM:  24    -0.879526832151E+03    0.11919E-04    0.10339E-04  1697   0.567E-04    0.168E-04
RMM:  25    -0.879526823266E+03    0.88846E-05    0.83113E-05  1677   0.573E-04    0.589E-05
RMM:  26    -0.879526815610E+03    0.76559E-05    0.72617E-05  1436   0.462E-04    0.121E-04
RMM:  27    -0.879526800344E+03    0.15266E-04    0.13877E-04  1453   0.465E-04    0.450E-05
RMM:  28    -0.879526793153E+03    0.71904E-05    0.62650E-05  1271   0.429E-04    0.156E-04
RMM:  29    -0.879526788100E+03    0.50533E-05    0.48518E-05  1136   0.400E-04    0.677E-05
RMM:  30    -0.879526783709E+03    0.43913E-05    0.42572E-05  1148   0.396E-04    0.172E-04
RMM:  31    -0.879526779753E+03    0.39553E-05    0.38598E-05  1053   0.369E-04    0.144E-04
RMM:  32    -0.879526776110E+03    0.36429E-05    0.35562E-05   925   0.361E-04    0.200E-04
RMM:  33    -0.879526772770E+03    0.33402E-05    0.32729E-05   955   0.342E-04    0.198E-04
RMM:  34    -0.879526769696E+03    0.30741E-05    0.30249E-05   835   0.332E-04    0.199E-04
RMM:  35    -0.879526766855E+03    0.28407E-05    0.27837E-05  1593   0.394E-04    0.352E-05
RMM:  36    -0.879526764224E+03    0.26319E-05    0.25705E-05   706   0.235E-04    0.294E-05
RMM:  37    -0.879526761808E+03    0.24156E-05    0.23630E-05   709   0.240E-04    0.520E-05
RMM:  38    -0.879526759594E+03    0.22144E-05    0.21755E-05   680   0.228E-04    0.410E-05
RMM:  39    -0.879526757567E+03    0.20267E-05    0.19959E-05   667   0.230E-04    0.395E-05
RMM:  40    -0.879526755713E+03    0.18541E-05    0.18329E-05   680   0.235E-04    0.312E-05
RMM:  41    -0.879526754020E+03    0.16922E-05    0.16783E-05   689   0.259E-04    0.473E-05
RMM:  42    -0.879526752466E+03    0.15542E-05    0.15379E-05   692   0.273E-04    0.644E-05
RMM:  43    -0.879526751047E+03    0.14191E-05    0.14060E-05   675   0.282E-04    0.803E-05
RMM:  44    -0.879526749747E+03    0.13007E-05    0.12860E-05   634   0.281E-04    0.902E-05
RMM:  45    -0.879526748559E+03    0.11877E-05    0.11741E-05   619   0.279E-04    0.951E-05
RMM:  46    -0.879526747474E+03    0.10844E-05    0.10725E-05   588   0.275E-04    0.970E-05
RMM:  47    -0.879526746489E+03    0.98519E-06    0.97814E-06   577   0.274E-04
   1 F= -.87952675E+03 E0= -.87950288E+03  d E =-.879527E+03
 curvature:   0.00 expect dE= 0.000E+00 dE for cont linesearch  0.000E+00
 trial: gam= 0.00000 g(F)=  0.364E-37 g(S)=  0.859E-02 ort = 0.000E+00 (trialstep = 0.100E+01)
 search vector abs. value=  0.859E-02
 bond charge predicted
       N       E                     dE             d eps       ncg     rms          rms(c)
DAV:   1    -0.879617741743E+03   -0.90994E-01   -0.23874E+00  4760   0.487E+00    0.231E+00
RMM:   2    -0.879527198026E+03    0.90544E-01   -0.78484E-01  4153   0.243E+00    0.285E-01
RMM:   3    -0.879526604152E+03    0.59387E-03   -0.62464E-02  4604   0.452E-01    0.227E-01
RMM:   4    -0.879525406939E+03    0.11972E-02   -0.25513E-02  4144   0.523E-01    0.257E-01
RMM:   5    -0.879525956385E+03   -0.54945E-03   -0.37242E-03  4240   0.141E-01    0.449E-01
RMM:   6    -0.879524623853E+03    0.13325E-02   -0.57128E-03  4155   0.208E-01    0.360E-02
RMM:   7    -0.879524670304E+03   -0.46451E-04   -0.74872E-04  5205   0.296E-02    0.487E-02
RMM:   8    -0.879524659366E+03    0.10938E-04   -0.82008E-05  4185   0.259E-02    0.267E-02
RMM:   9    -0.879524672798E+03   -0.13432E-04   -0.75059E-05  4184   0.208E-02    0.478E-03
RMM:  10    -0.879524673625E+03   -0.82778E-06   -0.13672E-05  3721   0.383E-03    0.203E-03
RMM:  11    -0.879524672222E+03    0.14035E-05   -0.59481E-07  2218   0.235E-03    0.660E-04
RMM:  12    -0.879524672155E+03    0.66320E-07   -0.46001E-07  2204   0.199E-03
   2 F= -.87952467E+03 E0= -.87950161E+03  d E =0.207433E-02
 trial-energy change:    0.002074  1 .order    0.002295   -0.008589    0.013179
 step:   0.4093(harm=  0.3946)  dis= 0.00000  next Energy=  -879.528519 (dE=-0.177E-02)
 bond charge predicted
       N       E                     dE             d eps       ncg     rms          rms(c)
DAV:   1    -0.879560442179E+03   -0.35770E-01   -0.82864E-01  4680   0.286E+00    0.136E+00
RMM:   2    -0.879529222329E+03    0.31220E-01   -0.27152E-01  4153   0.143E+00    0.169E-01
RMM:   3    -0.879529224611E+03   -0.22814E-05   -0.22182E-02  4601   0.265E-01    0.134E-01
RMM:   4    -0.879528906455E+03    0.31816E-03   -0.80845E-03  4144   0.292E-01    0.237E-01
RMM:   5    -0.879528826005E+03    0.80451E-04   -0.11557E-03  4270   0.813E-02    0.168E-01
RMM:   6    -0.879528522919E+03    0.30309E-03   -0.23953E-03  4164   0.133E-01    0.213E-02
RMM:   7    -0.879528535301E+03   -0.12381E-04   -0.28731E-04  4765   0.178E-02    0.329E-02
RMM:   8    -0.879528499922E+03    0.35379E-04   -0.83464E-05  4145   0.279E-02    0.967E-03
RMM:   9    -0.879528488705E+03    0.11217E-04   -0.21693E-05  4211   0.830E-03    0.143E-03
RMM:  10    -0.879528490458E+03   -0.17529E-05   -0.12959E-06  2341   0.130E-03    0.175E-03
RMM:  11    -0.879528490958E+03   -0.49949E-06   -0.21491E-07  2130   0.109E-03
   3 F= -.87952849E+03 E0= -.87950499E+03  d E =-.174447E-02
 curvature:  -0.20 expect dE=-0.323E-05 dE for cont linesearch -0.323E-05
 trial: gam= 0.00000 g(F)=  0.173E-37 g(S)=  0.164E-04 ort =-0.375E-03 (trialstep = 0.882E+00)
 search vector abs. value=  0.164E-04
 reached required accuracy - stopping structural energy minimisation
