 vasp.5.4.4.18Apr17-6-g9f103f2a35 (build Aug 17 2017 06:00:38) complex          
  
 executed on             LinuxIFC date 2019.07.12  14:47:01
 running on    8 total cores
 distrk:  each k-point on    8 cores,    1 groups
 distr:  one band on NCORES_PER_BAND=   4 cores,    2 groups


--------------------------------------------------------------------------------------------------------


 INCAR:
 POTCAR:   PAW_PBE Fe 06Sep2000                   
 POTCAR:   PAW_PBE Fe 06Sep2000                   
   VRHFIN =Fe:  d7 s1                                                           
   LEXCH  = PE                                                                  
   EATOM  =   594.4687 eV,   43.6922 Ry                                         
                                                                                
   TITEL  = PAW_PBE Fe 06Sep2000                                                
   LULTRA =        F    use ultrasoft PP ?                                      
   IUNSCR =        1    unscreen: 0-lin 1-nonlin 2-no                           
   RPACOR =    2.000    partial core radius                                     
   POMASS =   55.847; ZVAL   =    8.000    mass and valenz                      
   RCORE  =    2.300    outmost cutoff radius                                   
   RWIGS  =    2.460; RWIGS  =    1.302    wigner-seitz radius (au A)           
   ENMAX  =  267.883; ENMIN  =  200.912 eV                                      
   RCLOC  =    1.701    cutoff for local pot                                    
   LCOR   =        T    correct aug charges                                     
   LPAW   =        T    paw PP                                                  
   EAUG   =  511.368                                                            
   DEXC   =    -.022                                                            
   RMAX   =    2.817    core radius for proj-oper                               
   RAUG   =    1.300    factor for augmentation sphere                          
   RDEP   =    2.442    radius for radial grids                                 
   QCUT   =   -4.437; QGAM   =    8.874    optimization parameters              
                                                                                
   Description                                                                  
     l     E      TYP  RCUT    TYP  RCUT                                        
     2   .000     23  2.300                                                     
     2   .000     23  2.300                                                     
     0   .000     23  2.300                                                     
     0   .000     23  2.300                                                     
     1  -.200     23  2.300                                                     
     1   .000     23  2.300                                                     
     3   .000      7   .000                                                     
  local pseudopotential read in
  partial core-charges read in
  atomic valenz-charges read in
  non local Contribution for L=           2  read in
    real space projection operators read in
  non local Contribution for L=           2  read in
    real space projection operators read in
  non local Contribution for L=           0  read in
    real space projection operators read in
  non local Contribution for L=           0  read in
    real space projection operators read in
  non local Contribution for L=           1  read in
    real space projection operators read in
  non local Contribution for L=           1  read in
    real space projection operators read in
    PAW grid and wavefunctions read in
 
   number of l-projection  operators is LMAX  =           6
   number of lm-projection operators is LMMAX =          18
 
 Optimization of the real space projectors (new method)

 maximal supplied QI-value         = 16.25
 optimisation between [QCUT,QGAM] = [ 11.86, 23.89] = [ 39.41,159.82] Ry 
 Optimized for a Real-space Cutoff    1.36 Angstroem

   l    n(q)    QCUT    max X(q) W(low)/X(q) W(high)/X(q)  e(spline) 
   2      9    11.864     4.378    0.71E-05    0.50E-04    0.47E-07
   2      9    11.864    23.237    0.34E-03    0.52E-03    0.26E-06
   0     10    11.864    17.641    0.11E-04    0.56E-05    0.22E-07
   0     10    11.864    50.908    0.13E-03    0.20E-04    0.20E-06
   1      9    11.864     6.148    0.58E-04    0.58E-04    0.11E-07
   1      9    11.864     8.345    0.18E-03    0.23E-03    0.11E-06
 PAW_PBE Fe 06Sep2000                   :
 energy of atom  1       EATOM= -594.4687
 kinetic energy error for atom=    0.0024 (will be added to EATOM!!)
 
 
 POSCAR: fcc_Fe_CON_333                          
  positions in direct lattice
  velocities in cartesian coordinates
 exchange correlation table for  LEXCH =        8
   RHO(1)=    0.500       N(1)  =     2000
   RHO(2)=  100.500       N(2)  =     4000
 


--------------------------------------------------------------------------------------------------------


 ion  position               nearest neighbor table
   1  0.000  0.000  0.000-   2 2.44   3 2.44   4 2.44  11 2.44  12 2.44  26 2.44  28 2.44  74 2.44
                            75 2.44  36 2.44  83 2.44  98 2.44
   2  0.000  0.167  0.167-  49 2.44  37 2.44  13 2.44  40 2.44  15 2.44  48 2.44  23 2.44   3 2.44
                             4 2.44   1 2.44  12 2.44  11 2.44
   3  0.167  0.000  0.167-  41 2.44  37 2.44   5 2.44  40 2.44   6 2.44  30 2.44  64 2.44   2 2.44
                             4 2.44   1 2.44  28 2.44  26 2.44
   4  0.167  0.167  0.000-  17 2.44  13 2.44   5 2.44  15 2.44   6 2.44  78 2.44  87 2.44   2 2.44
                             3 2.44   1 2.44  74 2.44  75 2.44
   5  0.333  0.000  0.000-   3 2.44   4 2.44  28 2.44  75 2.44   6 2.44   7 2.44   8 2.44  30 2.44
                            78 2.44  32 2.44  79 2.44 102 2.44
   6  0.333  0.167  0.167-  15 2.44  40 2.44  53 2.44  17 2.44  19 2.44   4 2.44  41 2.44  44 2.44
                             3 2.44   7 2.44   8 2.44   5 2.44
   7  0.500  0.000  0.167-  41 2.44  44 2.44  45 2.44  68 2.44   6 2.44   5 2.44   8 2.44  10 2.44
                            30 2.44   9 2.44  32 2.44  34 2.44
   8  0.500  0.167  0.000-  17 2.44  19 2.44  21 2.44  91 2.44   6 2.44   5 2.44   7 2.44  78 2.44
                            10 2.44  79 2.44   9 2.44  82 2.44
   9  0.667  0.000  0.000-  11 2.44  12 2.44  36 2.44  83 2.44  10 2.44  82 2.44  34 2.44   8 2.44
                             7 2.44 106 2.44  79 2.44  32 2.44
  10  0.667  0.167  0.167-  23 2.44  48 2.44  57 2.44  12 2.44  11 2.44  21 2.44  45 2.44  44 2.44
                            19 2.44   9 2.44   7 2.44   8 2.44
  11  0.833  0.000  0.167-  45 2.44   9 2.44  10 2.44  34 2.44  48 2.44  37 2.44  72 2.44  12 2.44
                             2 2.44  36 2.44   1 2.44  26 2.44
  12  0.833  0.167  0.000-  21 2.44   9 2.44  10 2.44  82 2.44  23 2.44  13 2.44  95 2.44  11 2.44
                             1 2.44  83 2.44   2 2.44  74 2.44
  13  0.000  0.333  0.000-   2 2.44   4 2.44  12 2.44  74 2.44  15 2.44  16 2.44  14 2.44  23 2.44
                            87 2.44  86 2.44  24 2.44  95 2.44
  14  0.000  0.500  0.167-  49 2.44  52 2.44  60 2.44  61 2.44  15 2.44  13 2.44  16 2.44  23 2.44
                            27 2.44  25 2.44  24 2.44  35 2.44
  15  0.167  0.333  0.167-   6 2.44  40 2.44  53 2.44  17 2.44  18 2.44   4 2.44  49 2.44  52 2.44
                             2 2.44  13 2.44  14 2.44  16 2.44
  16  0.167  0.500  0.000-  17 2.44  18 2.44  29 2.44  90 2.44  15 2.44  14 2.44  13 2.44  87 2.44
                            27 2.44  25 2.44  86 2.44  99 2.44
  17  0.333  0.333  0.000-   4 2.44   8 2.44  16 2.44  15 2.44   6 2.44  78 2.44  87 2.44  20 2.44
                            18 2.44  19 2.44  90 2.44  91 2.44
  18  0.333  0.500  0.167-  52 2.44  16 2.44  56 2.44  53 2.44  15 2.44  27 2.44  65 2.44  20 2.44
                            17 2.44  19 2.44  29 2.44  31 2.44
  19  0.500  0.333  0.167-  44 2.44   8 2.44  56 2.44  53 2.44   6 2.44  10 2.44  57 2.44  18 2.44
                            20 2.44  17 2.44  21 2.44  22 2.44
  20  0.500  0.500  0.000-  17 2.44  18 2.44  19 2.44  21 2.44  22 2.44  29 2.44  31 2.44  90 2.44
                            91 2.44  33 2.44  94 2.44 103 2.44
  21  0.667  0.333  0.000-  12 2.44  24 2.44  23 2.44  95 2.44  10 2.44   8 2.44  82 2.44  22 2.44
                            20 2.44  94 2.44  19 2.44  91 2.44
  22  0.667  0.500  0.167-  60 2.44  24 2.44  23 2.44  35 2.44  57 2.44  56 2.44  69 2.44  21 2.44
                            33 2.44  20 2.44  19 2.44  31 2.44
  23  0.833  0.333  0.167-  10 2.44  57 2.44  48 2.44  21 2.44  22 2.44  12 2.44  60 2.44   2 2.44
                            49 2.44  24 2.44  14 2.44  13 2.44
  24  0.833  0.500  0.000-  21 2.44  22 2.44  33 2.44  94 2.44  23 2.44  35 2.44  95 2.44  14 2.44
                            13 2.44 107 2.44  86 2.44  25 2.44
  25  0.000  0.667  0.000-  26 2.44  28 2.44  36 2.44  98 2.44  27 2.44  35 2.44  99 2.44  16 2.44
                            14 2.44 107 2.44  86 2.44  24 2.44
  26  0.000  0.833  0.167-  61 2.44  25 2.44  27 2.44  35 2.44  64 2.44  37 2.44  72 2.44  28 2.44
                             3 2.44  36 2.44   1 2.44  11 2.44
  27  0.167  0.667  0.167-  30 2.44  64 2.44  65 2.44  28 2.44  26 2.44  29 2.44  61 2.44  52 2.44
                            18 2.44  25 2.44  14 2.44  16 2.44
  28  0.167  0.833  0.000-  29 2.44  25 2.44  27 2.44  99 2.44  30 2.44   5 2.44 102 2.44  26 2.44
                            98 2.44   1 2.44   3 2.44  75 2.44
  29  0.333  0.667  0.000-  28 2.44  32 2.44  30 2.44 102 2.44  27 2.44  16 2.44  99 2.44  31 2.44
                            20 2.44  18 2.44 103 2.44  90 2.44
  30  0.333  0.833  0.167-  27 2.44  65 2.44  64 2.44  29 2.44  31 2.44  28 2.44  68 2.44  41 2.44
                             3 2.44  32 2.44   7 2.44   5 2.44
  31  0.500  0.667  0.167-  68 2.44  32 2.44  30 2.44  34 2.44  65 2.44  56 2.44  69 2.44  29 2.44
                            33 2.44  20 2.44  18 2.44  22 2.44
  32  0.500  0.833  0.000-  29 2.44  31 2.44  33 2.44 103 2.44  30 2.44 102 2.44  34 2.44   7 2.44
                             5 2.44 106 2.44  79 2.44   9 2.44
  33  0.667  0.667  0.000-  36 2.44  35 2.44  34 2.44  32 2.44  24 2.44 106 2.44 107 2.44  22 2.44
                            31 2.44 103 2.44  20 2.44  94 2.44
  34  0.667  0.833  0.167-  35 2.44  69 2.44  72 2.44  33 2.44  36 2.44  31 2.44  11 2.44  45 2.44
                            68 2.44  32 2.44   9 2.44   7 2.44
  35  0.833  0.667  0.167-  34 2.44  69 2.44  72 2.44  33 2.44  36 2.44  26 2.44  22 2.44  60 2.44
                            61 2.44  24 2.44  25 2.44  14 2.44
  36  0.833  0.833  0.000-  33 2.44  34 2.44  35 2.44  25 2.44   9 2.44 106 2.44 107 2.44  26 2.44
                            11 2.44  98 2.44   1 2.44  83 2.44
  37  0.000  0.000  0.333-   2 2.44   3 2.44  11 2.44  26 2.44  40 2.44  39 2.44  38 2.44  48 2.44
                            64 2.44  62 2.44  47 2.44  72 2.44
  38  0.000  0.167  0.500-  49 2.44  51 2.44  59 2.44  85 2.44  40 2.44  39 2.44  37 2.44  76 2.44
                            48 2.44  47 2.44  73 2.44  84 2.44
  39  0.167  0.000  0.500-  41 2.44  42 2.44  66 2.44  77 2.44  40 2.44  38 2.44  37 2.44  76 2.44
                            64 2.44  62 2.44  73 2.44 100 2.44
  40  0.167  0.167  0.333-   6 2.44  15 2.44  53 2.44   3 2.44  41 2.44  42 2.44  49 2.44  51 2.44
                             2 2.44  39 2.44  37 2.44  38 2.44
  41  0.333  0.000  0.333-   3 2.44   7 2.44  39 2.44   6 2.44  40 2.44  30 2.44  64 2.44  43 2.44
                            44 2.44  42 2.44  66 2.44  68 2.44
  42  0.333  0.167  0.500-  51 2.44  39 2.44  55 2.44  53 2.44  40 2.44  76 2.44  89 2.44  44 2.44
                            41 2.44  43 2.44  80 2.44  77 2.44
  43  0.500  0.000  0.500-  41 2.44  42 2.44  44 2.44  45 2.44  46 2.44  66 2.44  68 2.44  77 2.44
                            80 2.44  70 2.44  81 2.44 104 2.44
  44  0.500  0.167  0.333-  19 2.44   7 2.44  55 2.44  53 2.44   6 2.44  10 2.44  57 2.44  41 2.44
                            42 2.44  43 2.44  46 2.44  45 2.44
  45  0.667  0.000  0.333-  11 2.44  47 2.44  48 2.44  72 2.44  10 2.44   7 2.44  34 2.44  46 2.44
                            43 2.44  70 2.44  44 2.44  68 2.44
  46  0.667  0.167  0.500-  59 2.44  47 2.44  48 2.44  84 2.44  57 2.44  55 2.44  93 2.44  45 2.44
                            81 2.44  43 2.44  44 2.44  80 2.44
  47  0.833  0.000  0.500-  45 2.44  46 2.44  70 2.44  81 2.44  48 2.44  72 2.44  84 2.44  38 2.44
                            37 2.44 108 2.44  73 2.44  62 2.44
  48  0.833  0.167  0.333-  10 2.44  57 2.44  23 2.44  46 2.44  45 2.44  11 2.44  59 2.44   2 2.44
                            49 2.44  47 2.44  37 2.44  38 2.44
  49  0.000  0.333  0.333-   2 2.44  14 2.44  38 2.44  15 2.44  40 2.44  23 2.44  48 2.44  50 2.44
                            51 2.44  52 2.44  59 2.44  60 2.44
  50  0.000  0.500  0.500-  49 2.44  51 2.44  52 2.44  59 2.44  60 2.44  61 2.44  63 2.44  85 2.44
                            88 2.44  71 2.44  96 2.44  97 2.44
  51  0.167  0.333  0.500-  42 2.44  38 2.44  54 2.44  53 2.44  40 2.44  76 2.44  89 2.44  50 2.44
                            52 2.44  49 2.44  88 2.44  85 2.44
  52  0.167  0.500  0.333-  18 2.44  14 2.44  54 2.44  53 2.44  15 2.44  27 2.44  65 2.44  49 2.44
                            50 2.44  51 2.44  63 2.44  61 2.44
  53  0.333  0.333  0.333-   6 2.44  15 2.44  40 2.44  19 2.44  18 2.44  42 2.44  44 2.44  51 2.44
                            52 2.44  54 2.44  55 2.44  56 2.44
  54  0.333  0.500  0.500-  51 2.44  52 2.44  63 2.44  88 2.44  53 2.44  55 2.44  56 2.44  65 2.44
                            89 2.44  67 2.44  92 2.44 101 2.44
  55  0.500  0.333  0.500-  42 2.44  44 2.44  46 2.44  80 2.44  53 2.44  56 2.44  54 2.44  57 2.44
                            89 2.44  58 2.44  92 2.44  93 2.44
  56  0.500  0.500  0.333-  18 2.44  19 2.44  22 2.44  31 2.44  53 2.44  54 2.44  55 2.44  57 2.44
                            65 2.44  58 2.44  67 2.44  69 2.44
  57  0.667  0.333  0.333-  23 2.44  48 2.44  10 2.44  59 2.44  60 2.44  46 2.44  22 2.44  19 2.44
                            44 2.44  58 2.44  56 2.44  55 2.44
  58  0.667  0.500  0.500-  59 2.44  60 2.44  71 2.44  96 2.44  57 2.44  93 2.44  69 2.44  56 2.44
                            55 2.44 105 2.44  92 2.44  67 2.44
  59  0.833  0.333  0.500-  46 2.44  58 2.44  57 2.44  93 2.44  48 2.44  38 2.44  84 2.44  60 2.44
                            50 2.44  49 2.44  96 2.44  85 2.44
  60  0.833  0.500  0.333-  22 2.44  58 2.44  57 2.44  69 2.44  23 2.44  14 2.44  35 2.44  59 2.44
                            49 2.44  50 2.44  71 2.44  61 2.44
  61  0.000  0.667  0.333-  26 2.44  62 2.44  64 2.44  72 2.44  27 2.44  14 2.44  35 2.44  63 2.44
                            50 2.44  71 2.44  52 2.44  60 2.44
  62  0.000  0.833  0.500-  61 2.44  63 2.44  71 2.44  97 2.44  64 2.44  72 2.44 100 2.44  39 2.44
                            37 2.44 108 2.44  73 2.44  47 2.44
  63  0.167  0.667  0.500-  66 2.44  62 2.44  64 2.44 100 2.44  65 2.44  54 2.44 101 2.44  61 2.44
                            97 2.44  50 2.44  52 2.44  88 2.44
  64  0.167  0.833  0.333-  27 2.44  65 2.44  30 2.44  63 2.44  61 2.44  26 2.44  66 2.44   3 2.44
                            41 2.44  62 2.44  37 2.44  39 2.44
  65  0.333  0.667  0.333-  30 2.44  64 2.44  27 2.44  66 2.44  68 2.44  63 2.44  31 2.44  18 2.44
                            52 2.44  67 2.44  56 2.44  54 2.44
  66  0.333  0.833  0.500-  63 2.44  67 2.44  65 2.44 101 2.44  64 2.44  39 2.44 100 2.44  68 2.44
                            43 2.44  41 2.44 104 2.44  77 2.44
  67  0.500  0.667  0.500-  66 2.44  68 2.44  70 2.44 104 2.44  65 2.44 101 2.44  69 2.44  56 2.44
                            54 2.44 105 2.44  92 2.44  58 2.44
  68  0.500  0.833  0.333-  31 2.44  67 2.44  65 2.44  69 2.44  30 2.44   7 2.44  34 2.44  66 2.44
                            41 2.44  43 2.44  70 2.44  45 2.44
  69  0.667  0.667  0.333-  72 2.44  35 2.44  34 2.44  71 2.44  70 2.44  68 2.44  60 2.44  31 2.44
                            22 2.44  58 2.44  67 2.44  56 2.44
  70  0.667  0.833  0.500-  71 2.44  69 2.44  72 2.44  67 2.44  47 2.44 105 2.44 108 2.44  68 2.44
                            45 2.44 104 2.44  43 2.44  81 2.44
  71  0.833  0.667  0.500-  70 2.44  69 2.44  72 2.44  62 2.44  58 2.44 105 2.44 108 2.44  60 2.44
                            61 2.44  97 2.44  50 2.44  96 2.44
  72  0.833  0.833  0.333-  69 2.44  35 2.44  34 2.44  70 2.44  71 2.44  61 2.44  45 2.44  26 2.44
                            11 2.44  62 2.44  47 2.44  37 2.44
  73  0.000  0.000  0.667-  74 2.44  75 2.44  83 2.44  98 2.44  76 2.44  84 2.44 100 2.44  39 2.44
                            38 2.44 108 2.44  47 2.44  62 2.44
  74  0.000  0.167  0.833-  85 2.44  73 2.44  76 2.44  84 2.44  87 2.44  13 2.44  95 2.44  75 2.44
                             4 2.44  83 2.44   1 2.44  12 2.44
  75  0.167  0.000  0.833-  77 2.44  73 2.44  76 2.44 100 2.44  78 2.44   5 2.44 102 2.44  74 2.44
                            98 2.44   1 2.44   4 2.44  28 2.44
  76  0.167  0.167  0.667-  78 2.44  87 2.44  89 2.44  75 2.44  74 2.44  77 2.44  85 2.44  51 2.44
                            42 2.44  73 2.44  38 2.44  39 2.44
  77  0.333  0.000  0.667-  75 2.44  79 2.44  78 2.44 102 2.44  76 2.44  39 2.44 100 2.44  80 2.44
                            43 2.44  42 2.44 104 2.44  66 2.44
  78  0.333  0.167  0.833-  76 2.44  89 2.44  87 2.44  77 2.44  80 2.44  75 2.44  91 2.44  17 2.44
                             4 2.44  79 2.44   8 2.44   5 2.44
  79  0.500  0.000  0.833-  77 2.44  80 2.44  81 2.44 104 2.44  78 2.44 102 2.44  82 2.44   8 2.44
                             5 2.44 106 2.44   9 2.44  32 2.44
  80  0.500  0.167  0.667-  91 2.44  79 2.44  78 2.44  82 2.44  89 2.44  55 2.44  93 2.44  77 2.44
                            43 2.44  81 2.44  42 2.44  46 2.44
  81  0.667  0.000  0.667-  83 2.44  82 2.44  84 2.44  79 2.44  47 2.44 106 2.44 108 2.44  80 2.44
                            46 2.44 104 2.44  70 2.44  43 2.44
  82  0.667  0.167  0.833-  84 2.44  93 2.44  95 2.44  83 2.44  81 2.44  80 2.44  12 2.44  21 2.44
                            91 2.44  79 2.44   9 2.44   8 2.44
  83  0.833  0.000  0.833-  81 2.44  82 2.44  84 2.44  73 2.44   9 2.44 106 2.44 108 2.44  74 2.44
                            12 2.44  98 2.44  36 2.44   1 2.44
  84  0.833  0.167  0.667-  82 2.44  93 2.44  95 2.44  81 2.44  83 2.44  74 2.44  46 2.44  59 2.44
                            85 2.44  73 2.44  47 2.44  38 2.44
  85  0.000  0.333  0.667-  74 2.44  86 2.44  87 2.44  95 2.44  76 2.44  38 2.44  84 2.44  88 2.44
                            51 2.44  50 2.44  96 2.44  59 2.44
  86  0.000  0.500  0.833-  85 2.44  88 2.44  96 2.44  97 2.44  87 2.44  95 2.44  99 2.44  16 2.44
                            13 2.44 107 2.44  24 2.44  25 2.44
  87  0.167  0.333  0.833-  76 2.44  89 2.44  78 2.44  88 2.44  85 2.44  74 2.44  90 2.44  17 2.44
                             4 2.44  86 2.44  16 2.44  13 2.44
  88  0.167  0.500  0.667-  90 2.44  86 2.44  87 2.44  99 2.44  89 2.44  54 2.44 101 2.44  85 2.44
                            97 2.44  50 2.44  51 2.44  63 2.44
  89  0.333  0.333  0.667-  78 2.44  87 2.44  76 2.44  90 2.44  91 2.44  80 2.44  88 2.44  51 2.44
                            42 2.44  92 2.44  54 2.44  55 2.44
  90  0.333  0.500  0.833-  88 2.44  92 2.44  89 2.44 101 2.44  87 2.44  16 2.44  99 2.44  91 2.44
                            20 2.44  17 2.44 103 2.44  29 2.44
  91  0.500  0.333  0.833-  80 2.44  92 2.44  89 2.44  93 2.44  78 2.44   8 2.44  82 2.44  90 2.44
                            20 2.44  17 2.44  94 2.44  21 2.44
  92  0.500  0.500  0.667-  90 2.44  91 2.44  94 2.44 103 2.44  89 2.44 101 2.44  93 2.44  55 2.44
                            54 2.44 105 2.44  58 2.44  67 2.44
  93  0.667  0.333  0.667-  95 2.44  84 2.44  82 2.44  94 2.44  96 2.44  91 2.44  59 2.44  46 2.44
                            80 2.44  92 2.44  58 2.44  55 2.44
  94  0.667  0.500  0.833-  96 2.44  95 2.44  93 2.44  92 2.44  24 2.44 105 2.44 107 2.44  21 2.44
                            91 2.44 103 2.44  33 2.44  20 2.44
  95  0.833  0.333  0.833-  93 2.44  84 2.44  82 2.44  94 2.44  96 2.44  85 2.44  21 2.44  12 2.44
                            74 2.44  86 2.44  24 2.44  13 2.44
  96  0.833  0.500  0.667-  94 2.44  93 2.44  95 2.44  86 2.44  58 2.44 105 2.44 107 2.44  59 2.44
                            85 2.44  97 2.44  71 2.44  50 2.44
  97  0.000  0.667  0.667-  98 2.44  99 2.44 100 2.44  86 2.44  62 2.44 107 2.44 108 2.44  88 2.44
                            63 2.44  96 2.44  50 2.44  71 2.44
  98  0.000  0.833  0.833-  97 2.44  99 2.44 100 2.44  73 2.44  25 2.44 107 2.44 108 2.44  75 2.44
                            28 2.44  83 2.44   1 2.44  36 2.44
  99  0.167  0.667  0.833- 100 2.44 101 2.44 102 2.44  98 2.44  97 2.44  88 2.44  28 2.44  90 2.44
                            29 2.44  86 2.44  25 2.44  16 2.44
 100  0.167  0.833  0.667-  99 2.44 101 2.44 102 2.44  98 2.44  97 2.44  75 2.44  63 2.44  77 2.44
                            66 2.44  73 2.44  62 2.44  39 2.44
 101  0.333  0.667  0.667- 102 2.44 100 2.44  99 2.44 103 2.44 104 2.44  90 2.44  66 2.44  63 2.44
                            88 2.44  92 2.44  67 2.44  54 2.44
 102  0.333  0.833  0.833- 101 2.44 100 2.44  99 2.44 103 2.44 104 2.44  77 2.44  29 2.44  28 2.44
                            75 2.44  79 2.44  32 2.44   5 2.44
 103  0.500  0.667  0.833- 104 2.44 102 2.44 101 2.44  92 2.44  32 2.44 105 2.44 106 2.44  29 2.44
                            90 2.44  94 2.44  20 2.44  33 2.44
 104  0.500  0.833  0.667- 103 2.44 102 2.44 101 2.44  79 2.44  67 2.44 105 2.44 106 2.44  66 2.44
                            77 2.44  81 2.44  43 2.44  70 2.44
 105  0.667  0.667  0.667- 106 2.44 107 2.44 108 2.44  96 2.44 103 2.44 104 2.44  70 2.44  71 2.44
                            94 2.44  67 2.44  92 2.44  58 2.44
 106  0.667  0.833  0.833- 105 2.44 107 2.44 108 2.44  83 2.44 103 2.44 104 2.44  33 2.44  36 2.44
                            81 2.44  32 2.44  79 2.44   9 2.44
 107  0.833  0.667  0.833- 105 2.44 106 2.44 108 2.44  96 2.44  97 2.44  98 2.44  33 2.44  36 2.44
                            94 2.44  25 2.44  86 2.44  24 2.44
 108  0.833  0.833  0.667- 105 2.44 106 2.44 107 2.44  83 2.44  97 2.44  98 2.44  70 2.44  71 2.44
                            81 2.44  62 2.44  73 2.44  47 2.44
 
  LATTYP: Found a simple cubic cell.
 ALAT       =    10.3348470474
  
  Lattice vectors:
  
 A1 = (  10.3348470474,   0.0000000000,   0.0000000000)
 A2 = (   0.0000000000,  10.3348470474,   0.0000000000)
 A3 = (   0.0000000000,   0.0000000000,  10.3348470474)


Analysis of symmetry for initial positions (statically):
=====================================================================
 Subroutine PRICEL returns following result:
 
  LATTYP: Found a simple cubic cell.
 ALAT       =     3.4449252899
  
  Lattice vectors:
  
 A1 = (   3.4449252899,   0.0000000000,   0.0000000000)
 A2 = (   0.0000000000,   3.4449252899,   0.0000000000)
 A3 = (   0.0000000000,   0.0000000000,   3.4449252443)
 
  27 primitive cells build up your supercell.
 

 Routine SETGRP: Setting up the symmetry group for a 
 simple cubic supercell.


 Subroutine GETGRP returns: Found 48 space group operations
 (whereof 48 operations were pure point group operations)
 out of a pool of 48 trial point group operations.


The static configuration has the point symmetry O_h .


Analysis of symmetry for dynamics (positions and initial velocities):
=====================================================================
 Subroutine PRICEL returns following result:
 
  LATTYP: Found a simple cubic cell.
 ALAT       =     3.4449252899
  
  Lattice vectors:
  
 A1 = (   3.4449252899,   0.0000000000,   0.0000000000)
 A2 = (   0.0000000000,   3.4449252899,   0.0000000000)
 A3 = (   0.0000000000,   0.0000000000,   3.4449252443)
 
  27 primitive cells build up your supercell.
 

 Routine SETGRP: Setting up the symmetry group for a 
 simple cubic supercell.


 Subroutine GETGRP returns: Found 48 space group operations
 (whereof 48 operations were pure point group operations)
 out of a pool of 48 trial point group operations.


The dynamic configuration has the point symmetry O_h .


 Subroutine INISYM returns: Found 48 space group operations
 (whereof 48 operations are pure point group operations),
 and found    27 'primitive' translations

 
 
 KPOINTS: pymatgen generated KPOINTS with grid den

Automatic generation of k-mesh.
Space group operators:
 irot       det(A)        alpha          n_x          n_y          n_z        tau_x        tau_y        tau_z
    1     1.000000     0.000000     1.000000     0.000000     0.000000     0.000000     0.000000     0.000000
    2    -1.000000     0.000000     1.000000     0.000000     0.000000     0.000000     0.000000     0.000000
    3     1.000000   120.000000    -0.577350    -0.577350    -0.577350     0.000000     0.000000     0.000000
    4    -1.000000   120.000000    -0.577350    -0.577350    -0.577350     0.000000     0.000000     0.000000
    5     1.000000   120.000000     0.577350     0.577350     0.577350     0.000000     0.000000     0.000000
    6    -1.000000   120.000000     0.577350     0.577350     0.577350     0.000000     0.000000     0.000000
    7     1.000000    90.000000     0.000000     0.000000    -1.000000     0.000000     0.000000     0.000000
    8    -1.000000    90.000000     0.000000     0.000000    -1.000000     0.000000     0.000000     0.000000
    9     1.000000   180.000000     0.000000     0.707107     0.707107     0.000000     0.000000     0.000000
   10    -1.000000   180.000000     0.000000     0.707107     0.707107     0.000000     0.000000     0.000000
   11     1.000000    90.000000     0.000000     1.000000     0.000000     0.000000     0.000000     0.000000
   12    -1.000000    90.000000     0.000000     1.000000     0.000000     0.000000     0.000000     0.000000
   13     1.000000   180.000000     0.000000     0.000000     1.000000     0.000000     0.000000     0.000000
   14    -1.000000   180.000000     0.000000     0.000000     1.000000     0.000000     0.000000     0.000000
   15     1.000000   120.000000    -0.577350     0.577350     0.577350     0.000000     0.000000     0.000000
   16    -1.000000   120.000000    -0.577350     0.577350     0.577350     0.000000     0.000000     0.000000
   17     1.000000   120.000000    -0.577350     0.577350    -0.577350     0.000000     0.000000     0.000000
   18    -1.000000   120.000000    -0.577350     0.577350    -0.577350     0.000000     0.000000     0.000000
   19     1.000000    90.000000     0.000000     0.000000     1.000000     0.000000     0.000000     0.000000
   20    -1.000000    90.000000     0.000000     0.000000     1.000000     0.000000     0.000000     0.000000
   21     1.000000    90.000000    -1.000000     0.000000     0.000000     0.000000     0.000000     0.000000
   22    -1.000000    90.000000    -1.000000     0.000000     0.000000     0.000000     0.000000     0.000000
   23     1.000000   180.000000     0.707107     0.000000     0.707107     0.000000     0.000000     0.000000
   24    -1.000000   180.000000     0.707107     0.000000     0.707107     0.000000     0.000000     0.000000
   25     1.000000   120.000000     0.577350    -0.577350     0.577350     0.000000     0.000000     0.000000
   26    -1.000000   120.000000     0.577350    -0.577350     0.577350     0.000000     0.000000     0.000000
   27     1.000000   120.000000    -0.577350    -0.577350     0.577350     0.000000     0.000000     0.000000
   28    -1.000000   120.000000    -0.577350    -0.577350     0.577350     0.000000     0.000000     0.000000
   29     1.000000   180.000000     1.000000     0.000000     0.000000     0.000000     0.000000     0.000000
   30    -1.000000   180.000000     1.000000     0.000000     0.000000     0.000000     0.000000     0.000000
   31     1.000000    90.000000     0.000000    -1.000000     0.000000     0.000000     0.000000     0.000000
   32    -1.000000    90.000000     0.000000    -1.000000     0.000000     0.000000     0.000000     0.000000
   33     1.000000   180.000000     0.707107     0.707107     0.000000     0.000000     0.000000     0.000000
   34    -1.000000   180.000000     0.707107     0.707107     0.000000     0.000000     0.000000     0.000000
   35     1.000000    90.000000     1.000000     0.000000     0.000000     0.000000     0.000000     0.000000
   36    -1.000000    90.000000     1.000000     0.000000     0.000000     0.000000     0.000000     0.000000
   37     1.000000   120.000000     0.577350    -0.577350    -0.577350     0.000000     0.000000     0.000000
   38    -1.000000   120.000000     0.577350    -0.577350    -0.577350     0.000000     0.000000     0.000000
   39     1.000000   180.000000     0.000000     1.000000     0.000000     0.000000     0.000000     0.000000
   40    -1.000000   180.000000     0.000000     1.000000     0.000000     0.000000     0.000000     0.000000
   41     1.000000   120.000000     0.577350     0.577350    -0.577350     0.000000     0.000000     0.000000
   42    -1.000000   120.000000     0.577350     0.577350    -0.577350     0.000000     0.000000     0.000000
   43     1.000000   180.000000     0.000000    -0.707107     0.707107     0.000000     0.000000     0.000000
   44    -1.000000   180.000000     0.000000    -0.707107     0.707107     0.000000     0.000000     0.000000
   45     1.000000   180.000000     0.707107    -0.707107     0.000000     0.000000     0.000000     0.000000
   46    -1.000000   180.000000     0.707107    -0.707107     0.000000     0.000000     0.000000     0.000000
   47     1.000000   180.000000     0.707107     0.000000    -0.707107     0.000000     0.000000     0.000000
   48    -1.000000   180.000000     0.707107     0.000000    -0.707107     0.000000     0.000000     0.000000
 
 Subroutine IBZKPT returns following result:
 ===========================================
 
 Found      4 irreducible k-points:
 
 Following reciprocal coordinates:
            Coordinates               Weight
  0.125000  0.125000  0.125000      8.000000
  0.375000  0.125000  0.125000     24.000000
  0.375000  0.375000  0.125000     24.000000
  0.375000  0.375000  0.375000      8.000000
 
 Following cartesian coordinates:
            Coordinates               Weight
  0.012095  0.012095  0.012095      8.000000
  0.036285  0.012095  0.012095     24.000000
  0.036285  0.036285  0.012095     24.000000
  0.036285  0.036285  0.036285      8.000000
 


--------------------------------------------------------------------------------------------------------




 Dimension of arrays:
   k-points           NKPTS =      4   k-points in BZ     NKDIM =      4   number of bands    NBANDS=    518
   number of dos      NEDOS =    301   number of ions     NIONS =    108
   non local maximal  LDIM  =      6   non local SUM 2l+1 LMDIM =     18
   total plane-waves  NPLWV = 373248
   max r-space proj   IRMAX =   3650   max aug-charges    IRDMAX=  12243
   dimension x,y,z NGX =    72 NGY =   72 NGZ =   72
   dimension x,y,z NGXF=   144 NGYF=  144 NGZF=  144
   support grid    NGXF=   144 NGYF=  144 NGZF=  144
   ions per type =             108
   NGX,Y,Z   is equivalent  to a cutoff of  11.58, 11.58, 11.58 a.u.
   NGXF,Y,Z  is equivalent  to a cutoff of  23.16, 23.16, 23.16 a.u.

 Based on PREC, I would recommend the following setting:
   dimension x,y,z NGX =    60 NGY =   60 NGZ =   60

 SYSTEM =  Opt                                     
 POSCAR =  fcc_Fe_CON_333                          

 Startparameter for this run:
   NWRITE =      2    write-flag & timer
   PREC   = normal    normal or accurate (medium, high low for compatibility)
   ISTART =      0    job   : 0-new  1-cont  2-samecut
   ICHARG =      2    charge: 1-file 2-atom 10-const
   ISPIN  =      1    spin polarized calculation?
   LNONCOLLINEAR =      F non collinear calculations
   LSORBIT =      F    spin-orbit coupling
   INIWAV =      1    electr: 0-lowe 1-rand  2-diag
   LASPH  =      F    aspherical Exc in radial PAW
   METAGGA=      F    non-selfconsistent MetaGGA calc.

 Electronic Relaxation 1
   ENCUT  =  550.0 eV  40.42 Ry    6.36 a.u.  19.76 19.76 19.76*2*pi/ulx,y,z
   ENINI  =  550.0     initial cutoff
   ENAUG  =  511.4 eV  augmentation charge cutoff
   NELM   =    400;   NELMIN=  2; NELMDL= -5     # of ELM steps 
   EDIFF  = 0.1E-05   stopping-criterion for ELM
   LREAL  =      T    real-space projection
   NLSPLINE    = F    spline interpolate recip. space projectors
   LCOMPAT=      F    compatible to vasp.4.4
   GGA_COMPAT  = T    GGA compatible to vasp.4.4-vasp.4.6
   LMAXPAW     = -100 max onsite density
   LMAXMIX     =    2 max onsite mixed and CHGCAR
   VOSKOWN=      0    Vosko Wilk Nusair interpolation
   ROPT   =   -0.00050
 Ionic relaxation
   EDIFFG = -.1E-01   stopping-criterion for IOM
   NSW    =    100    number of steps for IOM
   NBLOCK =      1;   KBLOCK =    100    inner block; outer block 
   IBRION =      2    ionic relax: 0-MD 1-quasi-New 2-CG
   NFREE  =      1    steps in history (QN), initial steepest desc. (CG)
   ISIF   =      3    stress and relaxation
   IWAVPR =     11    prediction:  0-non 1-charg 2-wave 3-comb
   ISYM   =      2    0-nonsym 1-usesym 2-fastsym
   LCORR  =      T    Harris-Foulkes like correction to forces

   POTIM  = 0.5000    time-step for ionic-motion
   TEIN   =    0.0    initial temperature
   TEBEG  =    0.0;   TEEND  =   0.0 temperature during run
   SMASS  =  -3.00    Nose mass-parameter (am)
   estimated Nose-frequenzy (Omega)   =  0.10E-29 period in steps =****** mass=  -0.244E-26a.u.
   SCALEE = 1.0000    scale energy and forces
   NPACO  =    256;   APACO  = 16.0  distance and # of slots for P.C.
   PSTRESS=    0.0 pullay stress

  Mass of Ions in am
   POMASS =  55.85
  Ionic Valenz
   ZVAL   =   8.00
  Atomic Wigner-Seitz radii
   RWIGS  =  -1.00
  virtual crystal weights 
   VCA    =   1.00
   NELECT =     864.0000    total number of electrons
   NUPDOWN=      -1.0000    fix difference up-down

 DOS related values:
   EMIN   =  10.00;   EMAX   =-10.00  energy-range for DOS
   EFERMI =   0.00
   ISMEAR =     1;   SIGMA  =   0.20  broadening in eV -4-tet -1-fermi 0-gaus

 Electronic relaxation 2 (details)
   IALGO  =     68    algorithm
   LDIAG  =      T    sub-space diagonalisation (order eigenvalues)
   LSUBROT=      F    optimize rotation matrix (better conditioning)
   TURBO    =      0    0=normal 1=particle mesh
   IRESTART =      0    0=no restart 2=restart with 2 vectors
   NREBOOT  =      0    no. of reboots
   NMIN     =      0    reboot dimension
   EREF     =   0.00    reference energy to select bands
   IMIX   =      4    mixing-type and parameters
     AMIX     =   0.40;   BMIX     =  1.00
     AMIX_MAG =   1.60;   BMIX_MAG =  1.00
     AMIN     =   0.10
     WC   =   100.;   INIMIX=   1;  MIXPRE=   1;  MAXMIX= -45

 Intra band minimization:
   WEIMIN = 0.0010     energy-eigenvalue tresh-hold
   EBREAK =  0.48E-09  absolut break condition
   DEPER  =   0.30     relativ break condition  

   TIME   =   0.40     timestep for ELM

  volume/ion in A,a.u.               =      10.22        68.97
  Fermi-wavevector in a.u.,A,eV,Ry     =   1.508720  2.851068 30.970078  2.276236
  Thomas-Fermi vector in A             =   2.619137
 
 Write flags
   LWAVE        =      F    write WAVECAR
   LDOWNSAMPLE  =      F    k-point downsampling of WAVECAR
   LCHARG       =      F    write CHGCAR
   LVTOT        =      F    write LOCPOT, total local potential
   LVHAR        =      F    write LOCPOT, Hartree potential only
   LELF         =      F    write electronic localiz. function (ELF)
   LORBIT       =      0    0 simple, 1 ext, 2 COOP (PROOUT), +10 PAW based schemes


 Dipole corrections
   LMONO  =      F    monopole corrections only (constant potential shift)
   LDIPOL =      F    correct potential (dipole corrections)
   IDIPOL =      0    1-x, 2-y, 3-z, 4-all directions 
   EPSILON=  1.0000000 bulk dielectric constant

 Exchange correlation treatment:
   GGA     =    --    GGA type
   LEXCH   =     8    internal setting for exchange type
   VOSKOWN=      0    Vosko Wilk Nusair interpolation
   LHFCALC =     F    Hartree Fock is set to
   LHFONE  =     F    Hartree Fock one center treatment
   AEXX    =    0.0000 exact exchange contribution

 Linear response parameters
   LEPSILON=     F    determine dielectric tensor
   LRPA    =     F    only Hartree local field effects (RPA)
   LNABLA  =     F    use nabla operator in PAW spheres
   LVEL    =     F    velocity operator in full k-point grid
   LINTERFAST=   F  fast interpolation
   KINTER  =     0    interpolate to denser k-point grid
   CSHIFT  =0.1000    complex shift for real part using Kramers Kronig
   OMEGAMAX=  -1.0    maximum frequency
   DEG_THRESHOLD= 0.2000000E-02 threshold for treating states as degnerate
   RTIME   =   -0.100 relaxation time in fs
  (WPLASMAI=    0.000 imaginary part of plasma frequency in eV, 0.658/RTIME)
   DFIELD  = 0.0000000 0.0000000 0.0000000 field for delta impulse in time
 
 Orbital magnetization related:
   ORBITALMAG=     F  switch on orbital magnetization
   LCHIMAG   =     F  perturbation theory with respect to B field
   DQ        =  0.001000  dq finite difference perturbation B field
   LLRAUG    =     F  two centre corrections for induced B field



--------------------------------------------------------------------------------------------------------


 conjugate gradient relaxation of ions
 charge density and potential will be updated during run
 non-spin polarized calculation
 RMM-DIIS sequential band-by-band and
  variant of blocked Davidson during initial phase
 perform sub-space diagonalisation
    before iterative eigenvector-optimisation
 modified Broyden-mixing scheme, WC =      100.0
 initial mixing is a Kerker type mixing with AMIX =  0.4000 and BMIX =      1.0000
 Hartree-type preconditioning will be used
 using additional bands           86
 real space projection scheme for non local part
 use partial core corrections
 calculate Harris-corrections to forces 
   (improved forces if not selfconsistent)
 use gradient corrections 
 use of overlap-Matrix (Vanderbilt PP)
 Methfessel and Paxton  Order N= 1 SIGMA  =   0.20


--------------------------------------------------------------------------------------------------------


  energy-cutoff  :      550.00
  volume of cell :     1103.86
      direct lattice vectors                 reciprocal lattice vectors
    10.334847047  0.000000000  0.000000000     0.096760019  0.000000000  0.000000000
     0.000000000 10.334847047  0.000000000     0.000000000  0.096760019  0.000000000
     0.000000000  0.000000000 10.334847047     0.000000000  0.000000000  0.096760019

  length of vectors
    10.334847047 10.334847047 10.334847047     0.096760019  0.096760019  0.096760019


 
 k-points in units of 2pi/SCALE and weight: pymatgen generated KPOINTS with grid den
   0.01209500  0.01209500  0.01209500       0.125
   0.03628501  0.01209500  0.01209500       0.375
   0.03628501  0.03628501  0.01209500       0.375
   0.03628501  0.03628501  0.03628501       0.125
 
 k-points in reciprocal lattice and weights: pymatgen generated KPOINTS with grid den
   0.12500000  0.12500000  0.12500000       0.125
   0.37500000  0.12500000  0.12500000       0.375
   0.37500000  0.37500000  0.12500000       0.375
   0.37500000  0.37500000  0.37500000       0.125
 
 position of ions in fractional coordinates (direct lattice) 
   0.00000000  0.00000000  0.00000000
   0.00000000  0.16666893  0.16666893
   0.16666893  0.00000000  0.16666893
   0.16666893  0.16666893  0.00000000
   0.33333106  0.00000000  0.00000000
   0.33333107  0.16666893  0.16666893
   0.50000000  0.00000000  0.16666894
   0.50000000  0.16666894  0.00000000
   0.66666897  0.00000000  0.00000000
   0.66666896  0.16666893  0.16666893
   0.83333104  0.00000000  0.16666893
   0.83333104  0.16666893  0.00000000
   0.00000000  0.33333106  0.00000000
   0.00000000  0.50000000  0.16666894
   0.16666893  0.33333107  0.16666893
   0.16666894  0.50000000  0.00000000
   0.33333107  0.33333107  0.00000000
   0.33333107  0.50000000  0.16666893
   0.50000000  0.33333107  0.16666893
   0.50000000  0.50000000  0.00000000
   0.66666896  0.33333107  0.00000000
   0.66666896  0.50000000  0.16666893
   0.83333104  0.33333107  0.16666893
   0.83333103  0.50000000  0.00000000
   0.00000000  0.66666897  0.00000000
   0.00000000  0.83333104  0.16666893
   0.16666893  0.66666896  0.16666893
   0.16666893  0.83333104  0.00000000
   0.33333107  0.66666896  0.00000000
   0.33333107  0.83333104  0.16666893
   0.50000000  0.66666896  0.16666893
   0.50000000  0.83333103  0.00000000
   0.66666896  0.66666896  0.00000000
   0.66666896  0.83333104  0.16666893
   0.83333104  0.66666896  0.16666893
   0.83333104  0.83333104  0.00000000
   0.00000000  0.00000000  0.33333106
   0.00000000  0.16666894  0.50000000
   0.16666894  0.00000000  0.50000000
   0.16666893  0.16666893  0.33333107
   0.33333107  0.00000000  0.33333107
   0.33333107  0.16666893  0.50000000
   0.50000000  0.00000000  0.50000000
   0.50000000  0.16666893  0.33333107
   0.66666896  0.00000000  0.33333107
   0.66666896  0.16666893  0.50000000
   0.83333103  0.00000000  0.50000000
   0.83333104  0.16666893  0.33333107
   0.00000000  0.33333107  0.33333107
   0.00000000  0.50000000  0.50000000
   0.16666893  0.33333107  0.50000000
   0.16666893  0.50000000  0.33333107
   0.33333107  0.33333107  0.33333107
   0.33333106  0.50000000  0.50000000
   0.50000000  0.33333106  0.50000000
   0.50000000  0.50000000  0.33333106
   0.66666896  0.33333107  0.33333107
   0.66666897  0.50000000  0.50000000
   0.83333104  0.33333107  0.50000000
   0.83333104  0.50000000  0.33333107
   0.00000000  0.66666896  0.33333107
   0.00000000  0.83333103  0.50000000
   0.16666893  0.66666896  0.50000000
   0.16666893  0.83333104  0.33333107
   0.33333107  0.66666896  0.33333107
   0.33333107  0.83333104  0.50000000
   0.50000000  0.66666897  0.50000000
   0.50000000  0.83333104  0.33333107
   0.66666896  0.66666896  0.33333107
   0.66666896  0.83333104  0.50000000
   0.83333104  0.66666896  0.50000000
   0.83333104  0.83333104  0.33333107
   0.00000000  0.00000000  0.66666897
   0.00000000  0.16666893  0.83333104
   0.16666893  0.00000000  0.83333104
   0.16666893  0.16666893  0.66666896
   0.33333107  0.00000000  0.66666896
   0.33333107  0.16666893  0.83333104
   0.50000000  0.00000000  0.83333103
   0.50000000  0.16666893  0.66666896
   0.66666896  0.00000000  0.66666896
   0.66666896  0.16666893  0.83333104
   0.83333104  0.00000000  0.83333104
   0.83333104  0.16666893  0.66666896
   0.00000000  0.33333107  0.66666896
   0.00000000  0.50000000  0.83333103
   0.16666893  0.33333107  0.83333104
   0.16666893  0.50000000  0.66666896
   0.33333107  0.33333107  0.66666896
   0.33333107  0.50000000  0.83333104
   0.50000000  0.33333107  0.83333104
   0.50000000  0.50000000  0.66666897
   0.66666896  0.33333107  0.66666896
   0.66666896  0.50000000  0.83333104
   0.83333104  0.33333107  0.83333104
   0.83333104  0.50000000  0.66666896
   0.00000000  0.66666896  0.66666896
   0.00000000  0.83333104  0.83333104
   0.16666893  0.66666896  0.83333104
   0.16666893  0.83333104  0.66666896
   0.33333107  0.66666896  0.66666896
   0.33333107  0.83333104  0.83333104
   0.50000000  0.66666896  0.83333104
   0.50000000  0.83333104  0.66666896
   0.66666896  0.66666896  0.66666896
   0.66666896  0.83333104  0.83333104
   0.83333104  0.66666896  0.83333104
   0.83333104  0.83333104  0.66666896
 
 position of ions in cartesian coordinates  (Angst):
   0.00000000  0.00000000  0.00000000
   0.00000000  1.72249793  1.72249793
   1.72249793  0.00000000  1.72249793
   1.72249793  1.72249793  0.00000000
   3.44492554  0.00000000  0.00000000
   3.44492559  1.72249794  1.72249794
   5.16742352  0.00000000  1.72249798
   5.16742352  1.72249798  0.00000000
   6.88992180  0.00000000  0.00000000
   6.88992176  1.72249794  1.72249794
   8.61234881  0.00000000  1.72249793
   8.61234881  1.72249793  0.00000000
   0.00000000  3.44492554  0.00000000
   0.00000000  5.16742352  1.72249798
   1.72249794  3.44492559  1.72249794
   1.72249798  5.16742352  0.00000000
   3.44492559  3.44492559  0.00000000
   3.44492559  5.16742352  1.72249793
   5.16742352  3.44492559  1.72249793
   5.16742352  5.16742352  0.00000000
   6.88992176  3.44492559  0.00000000
   6.88992176  5.16742352  1.72249793
   8.61234881  3.44492559  1.72249794
   8.61234877  5.16742352  0.00000000
   0.00000000  6.88992180  0.00000000
   0.00000000  8.61234881  1.72249793
   1.72249794  6.88992176  1.72249794
   1.72249793  8.61234881  0.00000000
   3.44492559  6.88992176  0.00000000
   3.44492559  8.61234881  1.72249794
   5.16742352  6.88992176  1.72249793
   5.16742352  8.61234877  0.00000000
   6.88992176  6.88992176  0.00000000
   6.88992176  8.61234881  1.72249794
   8.61234881  6.88992176  1.72249794
   8.61234881  8.61234881  0.00000000
   0.00000000  0.00000000  3.44492554
   0.00000000  1.72249798  5.16742352
   1.72249798  0.00000000  5.16742352
   1.72249794  1.72249794  3.44492559
   3.44492559  0.00000000  3.44492559
   3.44492559  1.72249793  5.16742352
   5.16742352  0.00000000  5.16742352
   5.16742352  1.72249793  3.44492559
   6.88992176  0.00000000  3.44492559
   6.88992176  1.72249793  5.16742352
   8.61234877  0.00000000  5.16742352
   8.61234881  1.72249794  3.44492559
   0.00000000  3.44492559  3.44492559
   0.00000000  5.16742352  5.16742352
   1.72249793  3.44492559  5.16742352
   1.72249793  5.16742352  3.44492559
   3.44492559  3.44492559  3.44492559
   3.44492554  5.16742352  5.16742352
   5.16742352  3.44492554  5.16742352
   5.16742352  5.16742352  3.44492554
   6.88992176  3.44492559  3.44492559
   6.88992180  5.16742352  5.16742352
   8.61234881  3.44492559  5.16742352
   8.61234881  5.16742352  3.44492559
   0.00000000  6.88992176  3.44492559
   0.00000000  8.61234877  5.16742352
   1.72249793  6.88992176  5.16742352
   1.72249794  8.61234881  3.44492559
   3.44492559  6.88992176  3.44492559
   3.44492559  8.61234881  5.16742352
   5.16742352  6.88992180  5.16742352
   5.16742352  8.61234881  3.44492559
   6.88992176  6.88992176  3.44492559
   6.88992176  8.61234881  5.16742352
   8.61234881  6.88992176  5.16742352
   8.61234881  8.61234881  3.44492559
   0.00000000  0.00000000  6.88992180
   0.00000000  1.72249793  8.61234881
   1.72249793  0.00000000  8.61234881
   1.72249794  1.72249794  6.88992176
   3.44492559  0.00000000  6.88992176
   3.44492559  1.72249794  8.61234881
   5.16742352  0.00000000  8.61234877
   5.16742352  1.72249793  6.88992176
   6.88992176  0.00000000  6.88992176
   6.88992176  1.72249794  8.61234881
   8.61234881  0.00000000  8.61234881
   8.61234881  1.72249794  6.88992176
   0.00000000  3.44492559  6.88992176
   0.00000000  5.16742352  8.61234877
   1.72249794  3.44492559  8.61234881
   1.72249793  5.16742352  6.88992176
   3.44492559  3.44492559  6.88992176
   3.44492559  5.16742352  8.61234881
   5.16742352  3.44492559  8.61234881
   5.16742352  5.16742352  6.88992180
   6.88992176  3.44492559  6.88992176
   6.88992176  5.16742352  8.61234881
   8.61234881  3.44492559  8.61234881
   8.61234881  5.16742352  6.88992176
   0.00000000  6.88992176  6.88992176
   0.00000000  8.61234881  8.61234881
   1.72249794  6.88992176  8.61234881
   1.72249794  8.61234881  6.88992176
   3.44492559  6.88992176  6.88992176
   3.44492559  8.61234881  8.61234881
   5.16742352  6.88992176  8.61234881
   5.16742352  8.61234881  6.88992176
   6.88992176  6.88992176  6.88992176
   6.88992176  8.61234881  8.61234881
   8.61234881  6.88992176  8.61234881
   8.61234881  8.61234881  6.88992176
 


--------------------------------------------------------------------------------------------------------


 k-point  1 :   0.1250 0.1250 0.1250  plane waves:   32294
 k-point  2 :   0.3750 0.1250 0.1250  plane waves:   32351
 k-point  3 :   0.3750 0.3750 0.1250  plane waves:   32345
 k-point  4 :   0.3750 0.3750 0.3750  plane waves:   32327

 maximum and minimum number of plane-waves per node :      8105     8057

 maximum number of plane-waves:     32351
 maximum index in each direction: 
   IXMAX=   19   IYMAX=   19   IZMAX=   19
   IXMIN=  -20   IYMIN=  -20   IZMIN=  -20


 real space projection operators:
  total allocation   :      52108.31 KBytes
  max/ min on nodes  :      13137.19      12954.94


 parallel 3D FFT for wavefunctions:
    minimum data exchange during FFTs selected (reduces bandwidth)
 parallel 3D FFT for charge:
    minimum data exchange during FFTs selected (reduces bandwidth)


 total amount of memory used by VASP MPI-rank0   232619. kBytes
=======================================================================

   base      :      30000. kBytes
   nonlr-proj:      22663. kBytes
   fftplans  :      15480. kBytes
   grid      :      21835. kBytes
   one-center:        419. kBytes
   wavefun   :     142222. kBytes
 
     INWAV:  cpu time    0.0000: real time    0.0001
 Broyden mixing: mesh for mixing (old mesh)
   NGX = 39   NGY = 39   NGZ = 39
  (NGX  =144   NGY  =144   NGZ  =144)
  gives a total of  59319 points

 initial charge density was supplied:
 charge density of overlapping atoms calculated
 number of electron     864.0000000 magnetization 
 keeping initial charge density in first step


--------------------------------------------------------------------------------------------------------


 Maximum index for non-local projection operator          865
 Maximum index for augmentation-charges         1463 (set IRDMAX)


--------------------------------------------------------------------------------------------------------


 First call to EWALD:  gamma=   0.172
 Maximum number of real-space cells 3x 3x 3
 Maximum number of reciprocal cells 3x 3x 3

    FEWALD:  cpu time    0.0114: real time    0.0115


--------------------------------------- Iteration      1(   1)  ---------------------------------------


    POTLOK:  cpu time    0.2901: real time    0.2910
    SETDIJ:  cpu time    0.0530: real time    0.0530
     EDDAV:  cpu time   46.0805: real time   46.1009
       DOS:  cpu time    0.0040: real time    0.0040
    --------------------------------------------
      LOOP:  cpu time   46.4276: real time   46.4489

 eigenvalue-minimisations  :  4144
 total energy-change (2. order) : 0.8818627E+04  (-0.3570426E+05)
 number of electron     864.0000000 magnetization 
 augmentation part      864.0000000 magnetization 

 Free energy of the ion-electron system (eV)
  ---------------------------------------------------
  alpha Z        PSCENC =      7300.31925852
  Ewald energy   TEWEN  =    -66232.83996889
  -Hartree energ DENC   =    -11197.02572337
  -exchange      EXHF   =         0.00000000
  -V(xc)+E(xc)   XCENC  =       446.63038354
  PAW double counting   =     51723.88885462   -52548.28121372
  entropy T*S    EENTRO =        -0.01468557
  eigenvalues    EBANDS =     15123.59116090
  atomic energy  EATOM  =     64202.35923177
  Solvation  Ediel_sol  =         0.00000000
  ---------------------------------------------------
  free energy    TOTEN  =      8818.62729781 eV

  energy without entropy =     8818.64198337  energy(sigma->0) =     8818.63219299


--------------------------------------------------------------------------------------------------------




--------------------------------------- Iteration      1(   2)  ---------------------------------------


     EDDAV:  cpu time   46.2685: real time   46.2672
       DOS:  cpu time    0.0059: real time    0.0059
    --------------------------------------------
      LOOP:  cpu time   46.2744: real time   46.2730

 eigenvalue-minimisations  :  4144
 total energy-change (2. order) :-0.8619004E+04  (-0.8462205E+04)
 number of electron     864.0000000 magnetization 
 augmentation part      864.0000000 magnetization 

 Free energy of the ion-electron system (eV)
  ---------------------------------------------------
  alpha Z        PSCENC =      7300.31925852
  Ewald energy   TEWEN  =    -66232.83996889
  -Hartree energ DENC   =    -11197.02572337
  -exchange      EXHF   =         0.00000000
  -V(xc)+E(xc)   XCENC  =       446.63038354
  PAW double counting   =     51723.88885462   -52548.28121372
  entropy T*S    EENTRO =         0.02280707
  eigenvalues    EBANDS =      6504.54979209
  atomic energy  EATOM  =     64202.35923177
  Solvation  Ediel_sol  =         0.00000000
  ---------------------------------------------------
  free energy    TOTEN  =       199.62342164 eV

  energy without entropy =      199.60061457  energy(sigma->0) =      199.61581928


--------------------------------------------------------------------------------------------------------




--------------------------------------- Iteration      1(   3)  ---------------------------------------


     EDDAV:  cpu time   46.2056: real time   46.2030
       DOS:  cpu time    0.0071: real time    0.0071
    --------------------------------------------
      LOOP:  cpu time   46.2127: real time   46.2101

 eigenvalue-minimisations  :  4144
 total energy-change (2. order) :-0.1023898E+04  (-0.8749507E+03)
 number of electron     864.0000000 magnetization 
 augmentation part      864.0000000 magnetization 

 Free energy of the ion-electron system (eV)
  ---------------------------------------------------
  alpha Z        PSCENC =      7300.31925852
  Ewald energy   TEWEN  =    -66232.83996889
  -Hartree energ DENC   =    -11197.02572337
  -exchange      EXHF   =         0.00000000
  -V(xc)+E(xc)   XCENC  =       446.63038354
  PAW double counting   =     51723.88885462   -52548.28121372
  entropy T*S    EENTRO =         0.00958870
  eigenvalues    EBANDS =      5480.66478353
  atomic energy  EATOM  =     64202.35923177
  Solvation  Ediel_sol  =         0.00000000
  ---------------------------------------------------
  free energy    TOTEN  =      -824.27480530 eV

  energy without entropy =     -824.28439400  energy(sigma->0) =     -824.27800153


--------------------------------------------------------------------------------------------------------




--------------------------------------- Iteration      1(   4)  ---------------------------------------


     EDDAV:  cpu time   75.3061: real time   75.3032
       DOS:  cpu time    0.0073: real time    0.0073
    --------------------------------------------
      LOOP:  cpu time   75.3134: real time   75.3106

 eigenvalue-minimisations  :  7504
 total energy-change (2. order) :-0.2028515E+03  (-0.1907353E+03)
 number of electron     864.0000000 magnetization 
 augmentation part      864.0000000 magnetization 

 Free energy of the ion-electron system (eV)
  ---------------------------------------------------
  alpha Z        PSCENC =      7300.31925852
  Ewald energy   TEWEN  =    -66232.83996889
  -Hartree energ DENC   =    -11197.02572337
  -exchange      EXHF   =         0.00000000
  -V(xc)+E(xc)   XCENC  =       446.63038354
  PAW double counting   =     51723.88885462   -52548.28121372
  entropy T*S    EENTRO =        -0.04415669
  eigenvalues    EBANDS =      5277.86707252
  atomic energy  EATOM  =     64202.35923177
  Solvation  Ediel_sol  =         0.00000000
  ---------------------------------------------------
  free energy    TOTEN  =     -1027.12626169 eV

  energy without entropy =    -1027.08210500  energy(sigma->0) =    -1027.11154279


--------------------------------------------------------------------------------------------------------




--------------------------------------- Iteration      1(   5)  ---------------------------------------


     EDDAV:  cpu time   68.2172: real time   68.2148
       DOS:  cpu time    0.0074: real time    0.0074
    CHARGE:  cpu time    2.4801: real time    2.4799
    MIXING:  cpu time    0.0080: real time    0.0080
    --------------------------------------------
      LOOP:  cpu time   70.7128: real time   70.7102

 eigenvalue-minimisations  :  6696
 total energy-change (2. order) :-0.1794983E+02  (-0.1696561E+02)
 number of electron     864.0000691 magnetization 
 augmentation part      382.8150592 magnetization 

 Broyden mixing:
  rms(total) = 0.93450E+01    rms(broyden)= 0.93449E+01
  rms(prec ) = 0.11651E+02
  weight for this iteration     100.00

 Free energy of the ion-electron system (eV)
  ---------------------------------------------------
  alpha Z        PSCENC =      7300.31925852
  Ewald energy   TEWEN  =    -66232.83996889
  -Hartree energ DENC   =    -11197.02572337
  -exchange      EXHF   =         0.00000000
  -V(xc)+E(xc)   XCENC  =       446.63038354
  PAW double counting   =     51723.88885462   -52548.28121372
  entropy T*S    EENTRO =        -0.10072002
  eigenvalues    EBANDS =      5259.97380481
  atomic energy  EATOM  =     64202.35923177
  Solvation  Ediel_sol  =         0.00000000
  ---------------------------------------------------
  free energy    TOTEN  =     -1045.07609274 eV

  energy without entropy =    -1044.97537272  energy(sigma->0) =    -1045.04251940


--------------------------------------------------------------------------------------------------------




--------------------------------------- Iteration      1(   6)  ---------------------------------------


    POTLOK:  cpu time    0.2986: real time    0.2989
    SETDIJ:  cpu time    0.0551: real time    0.0551
    EDDIAG:  cpu time    6.5109: real time    6.5105
  RMM-DIIS:  cpu time   23.9491: real time   23.9511
    ORTHCH:  cpu time    1.6150: real time    1.6149
       DOS:  cpu time    0.0083: real time    0.0083
    CHARGE:  cpu time    2.5823: real time    2.5820
    MIXING:  cpu time    0.0097: real time    0.0097
    --------------------------------------------
      LOOP:  cpu time   35.0290: real time   35.0306

 eigenvalue-minimisations  :  4144
 total energy-change (2. order) : 0.1678475E+03  (-0.1353132E+03)
 number of electron     864.0000778 magnetization 
 augmentation part      447.6870203 magnetization 

 Broyden mixing:
  rms(total) = 0.88625E+00    rms(broyden)= 0.88578E+00
  rms(prec ) = 0.95778E+00
  weight for this iteration     100.00

 eigenvalues of (default mixing * dielectric matrix)
  average eigenvalue GAMMA=   0.9500
  0.9500

 Free energy of the ion-electron system (eV)
  ---------------------------------------------------
  alpha Z        PSCENC =      7300.31925852
  Ewald energy   TEWEN  =    -66232.83996889
  -Hartree energ DENC   =     -9342.68098493
  -exchange      EXHF   =         0.00000000
  -V(xc)+E(xc)   XCENC  =       355.84248006
  PAW double counting   =     52454.44471554   -53034.97811545
  entropy T*S    EENTRO =        -0.06044784
  eigenvalues    EBANDS =      3420.36525082
  atomic energy  EATOM  =     64202.35923177
  Solvation  Ediel_sol  =         0.00000000
  ---------------------------------------------------
  free energy    TOTEN  =      -877.22858039 eV

  energy without entropy =     -877.16813255  energy(sigma->0) =     -877.20843111


--------------------------------------------------------------------------------------------------------




--------------------------------------- Iteration      1(   7)  ---------------------------------------


    POTLOK:  cpu time    0.3105: real time    0.3108
    SETDIJ:  cpu time    0.0542: real time    0.0542
    EDDIAG:  cpu time    6.7596: real time    6.7592
  RMM-DIIS:  cpu time   26.4618: real time   26.4602
    ORTHCH:  cpu time    1.6126: real time    1.6125
       DOS:  cpu time    0.0083: real time    0.0083
    CHARGE:  cpu time    2.5851: real time    2.5849
    MIXING:  cpu time    0.0095: real time    0.0095
    --------------------------------------------
      LOOP:  cpu time   37.8016: real time   37.7996

 eigenvalue-minimisations  :  4535
 total energy-change (2. order) :-0.2998550E+01  (-0.1110990E+02)
 number of electron     864.0000752 magnetization 
 augmentation part      447.0503482 magnetization 

 Broyden mixing:
  rms(total) = 0.34018E+00    rms(broyden)= 0.34007E+00
  rms(prec ) = 0.37963E+00
  weight for this iteration     100.00

 eigenvalues of (default mixing * dielectric matrix)
  average eigenvalue GAMMA=   1.0987
  1.0987  1.0987

 Free energy of the ion-electron system (eV)
  ---------------------------------------------------
  alpha Z        PSCENC =      7300.31925852
  Ewald energy   TEWEN  =    -66232.83996889
  -Hartree energ DENC   =     -9381.23948798
  -exchange      EXHF   =         0.00000000
  -V(xc)+E(xc)   XCENC  =       360.13649769
  PAW double counting   =     54337.26380917   -55113.99229674
  entropy T*S    EENTRO =        -0.14108492
  eigenvalues    EBANDS =      3647.90691096
  atomic energy  EATOM  =     64202.35923177
  Solvation  Ediel_sol  =         0.00000000
  ---------------------------------------------------
  free energy    TOTEN  =      -880.22713042 eV

  energy without entropy =     -880.08604550  energy(sigma->0) =     -880.18010211


--------------------------------------------------------------------------------------------------------




--------------------------------------- Iteration      1(   8)  ---------------------------------------


    POTLOK:  cpu time    0.3144: real time    0.3148
    SETDIJ:  cpu time    0.0538: real time    0.0538
    EDDIAG:  cpu time    6.7642: real time    6.7637
  RMM-DIIS:  cpu time   25.8578: real time   25.8568
    ORTHCH:  cpu time    1.6191: real time    1.6190
       DOS:  cpu time    0.0083: real time    0.0083
    CHARGE:  cpu time    2.5818: real time    2.5818
    MIXING:  cpu time    0.0090: real time    0.0090
    --------------------------------------------
      LOOP:  cpu time   37.2084: real time   37.2071

 eigenvalue-minimisations  :  4417
 total energy-change (2. order) : 0.8921897E+00  (-0.1329863E+01)
 number of electron     864.0000748 magnetization 
 augmentation part      443.0159684 magnetization 

 Broyden mixing:
  rms(total) = 0.41600E+00    rms(broyden)= 0.41597E+00
  rms(prec ) = 0.54576E+00
  weight for this iteration     100.00

 eigenvalues of (default mixing * dielectric matrix)
  average eigenvalue GAMMA=   0.8513
  1.0029  1.2289  0.3221

 Free energy of the ion-electron system (eV)
  ---------------------------------------------------
  alpha Z        PSCENC =      7300.31925852
  Ewald energy   TEWEN  =    -66232.83996889
  -Hartree energ DENC   =     -9418.79406018
  -exchange      EXHF   =         0.00000000
  -V(xc)+E(xc)   XCENC  =       363.05389812
  PAW double counting   =     56149.61662639   -57035.55188641
  entropy T*S    EENTRO =        -0.07235481
  eigenvalues    EBANDS =      3792.57431481
  atomic energy  EATOM  =     64202.35923177
  Solvation  Ediel_sol  =         0.00000000
  ---------------------------------------------------
  free energy    TOTEN  =      -879.33494068 eV

  energy without entropy =     -879.26258586  energy(sigma->0) =     -879.31082241


--------------------------------------------------------------------------------------------------------




--------------------------------------- Iteration      1(   9)  ---------------------------------------


    POTLOK:  cpu time    0.3125: real time    0.3130
    SETDIJ:  cpu time    0.0537: real time    0.0537
    EDDIAG:  cpu time    6.7564: real time    6.7562
  RMM-DIIS:  cpu time   33.6988: real time   33.6970
    ORTHCH:  cpu time    1.6161: real time    1.6161
       DOS:  cpu time    0.0082: real time    0.0082
    CHARGE:  cpu time    2.5888: real time    2.5886
    MIXING:  cpu time    0.0098: real time    0.0098
    --------------------------------------------
      LOOP:  cpu time   45.0444: real time   45.0425

 eigenvalue-minimisations  :  5786
 total energy-change (2. order) :-0.3771818E+00  (-0.4842469E+00)
 number of electron     864.0000751 magnetization 
 augmentation part      443.7828971 magnetization 

 Broyden mixing:
  rms(total) = 0.38460E+00    rms(broyden)= 0.38457E+00
  rms(prec ) = 0.51597E+00
  weight for this iteration     100.00

 eigenvalues of (default mixing * dielectric matrix)
  average eigenvalue GAMMA=   1.1484
  2.4394  1.0227  1.0227  0.1087

 Free energy of the ion-electron system (eV)
  ---------------------------------------------------
  alpha Z        PSCENC =      7300.31925852
  Ewald energy   TEWEN  =    -66232.83996889
  -Hartree energ DENC   =     -9407.19581673
  -exchange      EXHF   =         0.00000000
  -V(xc)+E(xc)   XCENC  =       362.58454668
  PAW double counting   =     56356.48752536   -57249.90279341
  entropy T*S    EENTRO =        -0.07541207
  eigenvalues    EBANDS =      3788.55130633
  atomic energy  EATOM  =     64202.35923177
  Solvation  Ediel_sol  =         0.00000000
  ---------------------------------------------------
  free energy    TOTEN  =      -879.71212243 eV

  energy without entropy =     -879.63671036  energy(sigma->0) =     -879.68698508


--------------------------------------------------------------------------------------------------------




--------------------------------------- Iteration      1(  10)  ---------------------------------------


    POTLOK:  cpu time    0.3116: real time    0.3120
    SETDIJ:  cpu time    0.0544: real time    0.0544
    EDDIAG:  cpu time    6.7612: real time    6.7608
  RMM-DIIS:  cpu time   29.3430: real time   29.3412
    ORTHCH:  cpu time    1.6148: real time    1.6148
       DOS:  cpu time    0.0083: real time    0.0083
    CHARGE:  cpu time    2.5740: real time    2.5738
    MIXING:  cpu time    0.0101: real time    0.0101
    --------------------------------------------
      LOOP:  cpu time   40.6774: real time   40.6754

 eigenvalue-minimisations  :  4998
 total energy-change (2. order) : 0.1911389E+00  (-0.1081974E+00)
 number of electron     864.0000752 magnetization 
 augmentation part      445.0343526 magnetization 

 Broyden mixing:
  rms(total) = 0.88366E-01    rms(broyden)= 0.88326E-01
  rms(prec ) = 0.11066E+00
  weight for this iteration     100.00

 eigenvalues of (default mixing * dielectric matrix)
  average eigenvalue GAMMA=   1.2723
  2.7109  1.6375  0.9524  0.9524  0.1084

 Free energy of the ion-electron system (eV)
  ---------------------------------------------------
  alpha Z        PSCENC =      7300.31925852
  Ewald energy   TEWEN  =    -66232.83996889
  -Hartree energ DENC   =     -9324.59445018
  -exchange      EXHF   =         0.00000000
  -V(xc)+E(xc)   XCENC  =       359.24763277
  PAW double counting   =     57850.23428516   -58791.87081338
  entropy T*S    EENTRO =        -0.08498319
  eigenvalues    EBANDS =      3757.70882387
  atomic energy  EATOM  =     64202.35923177
  Solvation  Ediel_sol  =         0.00000000
  ---------------------------------------------------
  free energy    TOTEN  =      -879.52098356 eV

  energy without entropy =     -879.43600036  energy(sigma->0) =     -879.49265582


--------------------------------------------------------------------------------------------------------




--------------------------------------- Iteration      1(  11)  ---------------------------------------


    POTLOK:  cpu time    0.3151: real time    0.3159
    SETDIJ:  cpu time    0.0533: real time    0.0533
    EDDIAG:  cpu time    6.7525: real time    6.7521
  RMM-DIIS:  cpu time   30.2782: real time   30.2772
    ORTHCH:  cpu time    1.6187: real time    1.6186
       DOS:  cpu time    0.0082: real time    0.0082
    CHARGE:  cpu time    2.5510: real time    2.5509
    MIXING:  cpu time    0.0110: real time    0.0110
    --------------------------------------------
      LOOP:  cpu time   41.5879: real time   41.5871

 eigenvalue-minimisations  :  5165
 total energy-change (2. order) :-0.6028185E-02  (-0.1992179E-01)
 number of electron     864.0000752 magnetization 
 augmentation part      444.8482537 magnetization 

 Broyden mixing:
  rms(total) = 0.45823E-01    rms(broyden)= 0.45823E-01
  rms(prec ) = 0.58103E-01
  weight for this iteration     100.00

 eigenvalues of (default mixing * dielectric matrix)
  average eigenvalue GAMMA=   1.2554
  2.7210  2.0212  0.9559  0.9559  0.7701  0.1084

 Free energy of the ion-electron system (eV)
  ---------------------------------------------------
  alpha Z        PSCENC =      7300.31925852
  Ewald energy   TEWEN  =    -66232.83996889
  -Hartree energ DENC   =     -9336.56009259
  -exchange      EXHF   =         0.00000000
  -V(xc)+E(xc)   XCENC  =       359.81877184
  PAW double counting   =     58050.48298375   -58991.71150903
  entropy T*S    EENTRO =        -0.08049298
  eigenvalues    EBANDS =      3768.68480587
  atomic energy  EATOM  =     64202.35923177
  Solvation  Ediel_sol  =         0.00000000
  ---------------------------------------------------
  free energy    TOTEN  =      -879.52701174 eV

  energy without entropy =     -879.44651876  energy(sigma->0) =     -879.50018075


--------------------------------------------------------------------------------------------------------




--------------------------------------- Iteration      1(  12)  ---------------------------------------


    POTLOK:  cpu time    0.3120: real time    0.3124
    SETDIJ:  cpu time    0.0548: real time    0.0548
    EDDIAG:  cpu time    6.7512: real time    6.7507
  RMM-DIIS:  cpu time   29.9066: real time   29.9050
    ORTHCH:  cpu time    1.6167: real time    1.6166
       DOS:  cpu time    0.0082: real time    0.0082
    CHARGE:  cpu time    2.5685: real time    2.5684
    MIXING:  cpu time    0.0119: real time    0.0119
    --------------------------------------------
      LOOP:  cpu time   41.2301: real time   41.2280

 eigenvalue-minimisations  :  5104
 total energy-change (2. order) : 0.2965078E-03  (-0.4956176E-02)
 number of electron     864.0000752 magnetization 
 augmentation part      444.6688285 magnetization 

 Broyden mixing:
  rms(total) = 0.11426E-01    rms(broyden)= 0.11425E-01
  rms(prec ) = 0.14569E-01
  weight for this iteration     100.00

 eigenvalues of (default mixing * dielectric matrix)
  average eigenvalue GAMMA=   1.2854
  2.6000  2.3260  0.9775  0.9775  1.0042  1.0042  0.1084

 Free energy of the ion-electron system (eV)
  ---------------------------------------------------
  alpha Z        PSCENC =      7300.31925852
  Ewald energy   TEWEN  =    -66232.83996889
  -Hartree energ DENC   =     -9345.79120657
  -exchange      EXHF   =         0.00000000
  -V(xc)+E(xc)   XCENC  =       360.22046682
  PAW double counting   =     58050.77968809   -58988.62279952
  entropy T*S    EENTRO =        -0.07766444
  eigenvalues    EBANDS =      3774.12627898
  atomic energy  EATOM  =     64202.35923177
  Solvation  Ediel_sol  =         0.00000000
  ---------------------------------------------------
  free energy    TOTEN  =      -879.52671523 eV

  energy without entropy =     -879.44905079  energy(sigma->0) =     -879.50082709


--------------------------------------------------------------------------------------------------------




--------------------------------------- Iteration      1(  13)  ---------------------------------------


    POTLOK:  cpu time    0.3106: real time    0.3110
    SETDIJ:  cpu time    0.0548: real time    0.0548
    EDDIAG:  cpu time    6.7379: real time    6.7373
  RMM-DIIS:  cpu time   35.4545: real time   35.4526
    ORTHCH:  cpu time    1.6106: real time    1.6105
       DOS:  cpu time    0.0085: real time    0.0085
    CHARGE:  cpu time    2.5740: real time    2.5738
    MIXING:  cpu time    0.0124: real time    0.0124
    --------------------------------------------
      LOOP:  cpu time   46.7633: real time   46.7609

 eigenvalue-minimisations  :  6052
 total energy-change (2. order) :-0.3930304E-03  (-0.9970233E-03)
 number of electron     864.0000752 magnetization 
 augmentation part      444.6195020 magnetization 

 Broyden mixing:
  rms(total) = 0.20494E-02    rms(broyden)= 0.20485E-02
  rms(prec ) = 0.27458E-02
  weight for this iteration     100.00

 eigenvalues of (default mixing * dielectric matrix)
  average eigenvalue GAMMA=   1.4428
  2.7993  2.3954  2.3954  0.9692  0.9692  1.0282  0.8772  0.1084

 Free energy of the ion-electron system (eV)
  ---------------------------------------------------
  alpha Z        PSCENC =      7300.31925852
  Ewald energy   TEWEN  =    -66232.83996889
  -Hartree energ DENC   =     -9348.62924541
  -exchange      EXHF   =         0.00000000
  -V(xc)+E(xc)   XCENC  =       360.33800827
  PAW double counting   =     58038.71075083   -58974.80253353
  entropy T*S    EENTRO =        -0.07649799
  eigenvalues    EBANDS =      3775.09388816
  atomic energy  EATOM  =     64202.35923177
  Solvation  Ediel_sol  =         0.00000000
  ---------------------------------------------------
  free energy    TOTEN  =      -879.52710826 eV

  energy without entropy =     -879.45061027  energy(sigma->0) =     -879.50160893


--------------------------------------------------------------------------------------------------------




--------------------------------------- Iteration      1(  14)  ---------------------------------------


    POTLOK:  cpu time    0.3084: real time    0.3090
    SETDIJ:  cpu time    0.0557: real time    0.0557
    EDDIAG:  cpu time    6.7418: real time    6.7414
  RMM-DIIS:  cpu time   35.4562: real time   35.4560
    ORTHCH:  cpu time    1.6094: real time    1.6093
       DOS:  cpu time    0.0084: real time    0.0084
    CHARGE:  cpu time    2.5587: real time    2.5585
    MIXING:  cpu time    0.0118: real time    0.0118
    --------------------------------------------
      LOOP:  cpu time   46.7504: real time   46.7501

 eigenvalue-minimisations  :  6046
 total energy-change (2. order) :-0.1281015E-04  (-0.2552512E-04)
 number of electron     864.0000752 magnetization 
 augmentation part      444.6284277 magnetization 

 Broyden mixing:
  rms(total) = 0.20919E-02    rms(broyden)= 0.20915E-02
  rms(prec ) = 0.26673E-02
  weight for this iteration     100.00

 eigenvalues of (default mixing * dielectric matrix)
  average eigenvalue GAMMA=   1.3964
  2.5369  2.3639  2.3639  0.1084  1.3613  0.9718  0.9718  0.9995  0.8905

 Free energy of the ion-electron system (eV)
  ---------------------------------------------------
  alpha Z        PSCENC =      7300.31925852
  Ewald energy   TEWEN  =    -66232.83996889
  -Hartree energ DENC   =     -9348.62144365
  -exchange      EXHF   =         0.00000000
  -V(xc)+E(xc)   XCENC  =       360.33939076
  PAW double counting   =     58037.42058744   -58973.33740247
  entropy T*S    EENTRO =        -0.07594303
  eigenvalues    EBANDS =      3774.90916847
  atomic energy  EATOM  =     64202.35923177
  Solvation  Ediel_sol  =         0.00000000
  ---------------------------------------------------
  free energy    TOTEN  =      -879.52712107 eV

  energy without entropy =     -879.45117804  energy(sigma->0) =     -879.50180673


--------------------------------------------------------------------------------------------------------




--------------------------------------- Iteration      1(  15)  ---------------------------------------


    POTLOK:  cpu time    0.3129: real time    0.3132
    SETDIJ:  cpu time    0.0549: real time    0.0549
    EDDIAG:  cpu time    6.7406: real time    6.7407
  RMM-DIIS:  cpu time   27.9495: real time   27.9501
    ORTHCH:  cpu time    1.6146: real time    1.6144
       DOS:  cpu time    0.0084: real time    0.0083
    CHARGE:  cpu time    2.5759: real time    2.5759
    MIXING:  cpu time    0.0148: real time    0.0148
    --------------------------------------------
      LOOP:  cpu time   39.2716: real time   39.2724

 eigenvalue-minimisations  :  4789
 total energy-change (2. order) : 0.7855465E-04  ( 0.4564304E-04)
 number of electron     864.0000752 magnetization 
 augmentation part      444.6172957 magnetization 

 Broyden mixing:
  rms(total) = 0.35615E-03    rms(broyden)= 0.35603E-03
  rms(prec ) = 0.48455E-03
  weight for this iteration     100.00

 eigenvalues of (default mixing * dielectric matrix)
  average eigenvalue GAMMA=   1.4291
  2.5211  2.5211  2.1654  2.1654  0.1084  0.9701  0.9701  1.0622  0.9313  0.8756

 Free energy of the ion-electron system (eV)
  ---------------------------------------------------
  alpha Z        PSCENC =      7300.31925852
  Ewald energy   TEWEN  =    -66232.83996889
  -Hartree energ DENC   =     -9348.96043308
  -exchange      EXHF   =         0.00000000
  -V(xc)+E(xc)   XCENC  =       360.35509349
  PAW double counting   =     58036.00298283   -58971.89806455
  entropy T*S    EENTRO =        -0.07524061
  eigenvalues    EBANDS =      3775.21009799
  atomic energy  EATOM  =     64202.35923177
  Solvation  Ediel_sol  =         0.00000000
  ---------------------------------------------------
  free energy    TOTEN  =      -879.52704252 eV

  energy without entropy =     -879.45180191  energy(sigma->0) =     -879.50196231


--------------------------------------------------------------------------------------------------------




--------------------------------------- Iteration      1(  16)  ---------------------------------------


    POTLOK:  cpu time    0.3177: real time    0.3180
    SETDIJ:  cpu time    0.0540: real time    0.0540
    EDDIAG:  cpu time    6.7305: real time    6.7303
  RMM-DIIS:  cpu time   29.2520: real time   29.2506
    ORTHCH:  cpu time    1.6121: real time    1.6119
       DOS:  cpu time    0.0081: real time    0.0081
    CHARGE:  cpu time    2.5829: real time    2.5827
    MIXING:  cpu time    0.0125: real time    0.0125
    --------------------------------------------
      LOOP:  cpu time   40.5699: real time   40.5682

 eigenvalue-minimisations  :  5014
 total energy-change (2. order) : 0.5220689E-04  ( 0.4004985E-04)
 number of electron     864.0000752 magnetization 
 augmentation part      444.6147459 magnetization 

 Broyden mixing:
  rms(total) = 0.27321E-03    rms(broyden)= 0.27319E-03
  rms(prec ) = 0.35255E-03
  weight for this iteration     100.00

 eigenvalues of (default mixing * dielectric matrix)
  average eigenvalue GAMMA=   1.4173
  2.6191  2.5383  2.5383  1.8312  0.1084  1.2181  0.9721  0.9721  0.9583  0.9172
  0.9172

 Free energy of the ion-electron system (eV)
  ---------------------------------------------------
  alpha Z        PSCENC =      7300.31925852
  Ewald energy   TEWEN  =    -66232.83996889
  -Hartree energ DENC   =     -9349.03573927
  -exchange      EXHF   =         0.00000000
  -V(xc)+E(xc)   XCENC  =       360.35837972
  PAW double counting   =     58036.02457828   -58971.86936323
  entropy T*S    EENTRO =        -0.07470290
  eigenvalues    EBANDS =      3775.23133569
  atomic energy  EATOM  =     64202.35923177
  Solvation  Ediel_sol  =         0.00000000
  ---------------------------------------------------
  free energy    TOTEN  =      -879.52699031 eV

  energy without entropy =     -879.45228741  energy(sigma->0) =     -879.50208935


--------------------------------------------------------------------------------------------------------




--------------------------------------- Iteration      1(  17)  ---------------------------------------


    POTLOK:  cpu time    0.3121: real time    0.3125
    SETDIJ:  cpu time    0.0553: real time    0.0553
    EDDIAG:  cpu time    6.7289: real time    6.7284
  RMM-DIIS:  cpu time   18.2978: real time   18.2990
    ORTHCH:  cpu time    1.5943: real time    1.5941
       DOS:  cpu time    0.0082: real time    0.0082
    CHARGE:  cpu time    2.4254: real time    2.4252
    MIXING:  cpu time    0.0123: real time    0.0123
    --------------------------------------------
      LOOP:  cpu time   29.4342: real time   29.4349

 eigenvalue-minimisations  :  2913
[...]
   0.105E-01 0.103E-01 0.143E-04   -.205E-01 -.202E-01 -.277E-04   -.101E-20 -.222E-19 0.305E-19   -.116E-06 -.127E-06 0.122E-07
   -.105E-01 -.143E-04 0.143E-04   0.205E-01 0.277E-04 -.277E-04   -.730E-25 -.123E-19 -.381E-19   0.116E-06 -.122E-07 0.122E-07
   -.105E-01 0.103E-01 -.103E-01   0.205E-01 -.202E-01 0.202E-01   0.455E-25 -.141E-19 0.280E-19   0.115E-06 -.127E-06 0.128E-06
   -.143E-04 -.103E-01 -.103E-01   0.277E-04 0.202E-01 0.202E-01   -.127E-20 0.339E-20 -.144E-19   -.122E-07 0.127E-06 0.127E-06
   -.143E-04 0.143E-04 0.143E-04   0.277E-04 -.277E-04 -.277E-04   0.169E-20 -.212E-20 -.191E-19   -.122E-07 0.122E-07 0.122E-07
   0.103E-01 -.103E-01 0.143E-04   -.202E-01 0.202E-01 -.277E-04   -.153E-20 0.144E-19 -.224E-19   -.127E-06 0.128E-06 0.122E-07
   0.103E-01 0.143E-04 -.103E-01   -.202E-01 -.277E-04 0.202E-01   0.910E-22 0.889E-20 0.169E-20   -.127E-06 0.122E-07 0.128E-06
   -.103E-01 -.103E-01 -.103E-01   0.202E-01 0.202E-01 0.202E-01   0.746E-25 0.212E-20 -.254E-20   0.127E-06 0.127E-06 0.127E-06
   -.104E-01 0.143E-04 0.143E-04   0.203E-01 -.277E-04 -.277E-04   0.847E-21 0.593E-20 -.288E-19   0.128E-06 0.122E-07 0.122E-07
   0.143E-04 -.104E-01 0.143E-04   -.277E-04 0.203E-01 -.277E-04   -.424E-21 0.110E-19 -.212E-20   0.122E-07 0.128E-06 0.122E-07
   0.143E-04 0.143E-04 -.104E-01   -.277E-04 -.277E-04 0.203E-01   0.847E-21 0.296E-20 0.847E-20   0.122E-07 0.122E-07 0.128E-06
   0.105E-01 -.103E-01 -.103E-01   -.205E-01 0.202E-01 0.202E-01   -.384E-21 0.424E-21 -.246E-19   -.116E-06 0.127E-06 0.127E-06
   0.105E-01 0.143E-04 0.143E-04   -.205E-01 -.277E-04 -.277E-04   0.595E-22 -.212E-20 -.148E-19   -.116E-06 0.122E-07 0.122E-07
   -.105E-01 -.103E-01 0.142E-04   0.205E-01 0.202E-01 -.277E-04   -.151E-25 -.847E-21 0.678E-20   0.115E-06 0.128E-06 0.122E-07
   -.105E-01 0.143E-04 -.103E-01   0.205E-01 -.277E-04 0.202E-01   0.162E-25 0.593E-20 -.127E-19   0.115E-06 0.122E-07 0.128E-06
   -.143E-04 0.105E-01 -.103E-01   0.277E-04 -.205E-01 0.202E-01   0.847E-21 -.150E-20 -.500E-19   -.122E-07 -.116E-06 0.127E-06
   -.143E-04 -.105E-01 0.143E-04   0.277E-04 0.205E-01 -.277E-04   -.166E-25 0.182E-19 0.127E-19   -.122E-07 0.116E-06 0.122E-07
   0.103E-01 0.105E-01 0.143E-04   -.202E-01 -.205E-01 -.277E-04   0.119E-21 0.574E-20 0.203E-19   -.127E-06 -.116E-06 0.122E-07
   0.103E-01 -.105E-01 -.103E-01   -.202E-01 0.205E-01 0.202E-01   -.132E-22 -.296E-20 0.136E-19   -.127E-06 0.115E-06 0.128E-06
   -.103E-01 0.105E-01 -.103E-01   0.202E-01 -.205E-01 0.202E-01   0.453E-25 0.528E-20 -.432E-19   0.127E-06 -.116E-06 0.127E-06
   -.103E-01 -.105E-01 0.142E-04   0.202E-01 0.205E-01 -.277E-04   -.847E-21 0.178E-19 0.220E-19   0.128E-06 0.115E-06 0.122E-07
   0.143E-04 0.105E-01 0.143E-04   -.277E-04 -.205E-01 -.277E-04   -.424E-21 -.654E-20 0.237E-19   0.122E-07 -.116E-06 0.122E-07
   0.143E-04 -.105E-01 -.103E-01   -.277E-04 0.205E-01 0.202E-01   -.847E-21 0.212E-19 -.165E-19   0.122E-07 0.115E-06 0.128E-06
   0.105E-01 0.105E-01 -.103E-01   -.205E-01 -.205E-01 0.202E-01   -.787E-21 -.112E-19 -.364E-19   -.116E-06 -.116E-06 0.127E-06
   0.105E-01 -.105E-01 0.143E-04   -.205E-01 0.205E-01 -.277E-04   0.903E-21 -.127E-20 -.678E-20   -.116E-06 0.115E-06 0.122E-07
   -.105E-01 0.105E-01 0.143E-04   0.205E-01 -.205E-01 -.277E-04   -.443E-25 0.193E-20 0.237E-19   0.115E-06 -.116E-06 0.122E-07
   -.105E-01 -.105E-01 -.103E-01   0.205E-01 0.205E-01 0.202E-01   0.742E-25 -.212E-20 -.635E-20   0.115E-06 0.115E-06 0.128E-06
   -.143E-04 -.143E-04 0.105E-01   0.277E-04 0.277E-04 -.205E-01   -.296E-25 0.424E-20 -.732E-19   -.122E-07 -.122E-07 -.116E-06
   -.143E-04 0.103E-01 -.105E-01   0.277E-04 -.202E-01 0.205E-01   0.169E-20 -.694E-20 0.889E-20   -.122E-07 -.127E-06 0.115E-06
   0.103E-01 -.143E-04 -.105E-01   -.202E-01 0.277E-04 0.205E-01   0.745E-22 -.805E-20 0.352E-19   -.127E-06 -.122E-07 0.115E-06
   0.103E-01 0.103E-01 0.105E-01   -.202E-01 -.202E-01 -.205E-01   -.789E-21 -.136E-19 -.411E-20   -.127E-06 -.127E-06 -.116E-06
   -.103E-01 -.143E-04 0.105E-01   0.202E-01 0.277E-04 -.205E-01   -.284E-25 0.296E-20 -.546E-19   0.127E-06 -.122E-07 -.116E-06
   -.103E-01 0.103E-01 -.105E-01   0.202E-01 -.202E-01 0.205E-01   -.847E-21 -.150E-19 0.847E-20   0.128E-06 -.127E-06 0.115E-06
   0.143E-04 -.143E-04 -.105E-01   -.277E-04 0.277E-04 0.205E-01   -.424E-21 -.593E-20 0.186E-19   0.122E-07 -.122E-07 0.116E-06
   0.143E-04 0.103E-01 0.105E-01   -.277E-04 -.202E-01 -.205E-01   0.127E-20 -.503E-21 -.113E-19   0.122E-07 -.127E-06 -.116E-06
   0.105E-01 -.143E-04 0.105E-01   -.205E-01 0.277E-04 -.205E-01   0.331E-21 0.974E-20 -.220E-19   -.116E-06 -.122E-07 -.116E-06
   0.105E-01 0.103E-01 -.105E-01   -.205E-01 -.202E-01 0.205E-01   0.761E-21 -.313E-20 -.123E-19   -.116E-06 -.127E-06 0.115E-06
   -.105E-01 -.143E-04 -.105E-01   0.205E-01 0.277E-04 0.205E-01   0.160E-25 -.212E-20 0.589E-19   0.115E-06 -.122E-07 0.115E-06
   -.105E-01 0.103E-01 0.105E-01   0.205E-01 -.202E-01 -.205E-01   0.511E-27 -.643E-20 -.143E-19   0.115E-06 -.127E-06 -.116E-06
   -.143E-04 -.103E-01 0.105E-01   0.277E-04 0.202E-01 -.205E-01   0.424E-21 -.339E-20 -.110E-19   -.122E-07 0.127E-06 -.116E-06
   -.143E-04 0.143E-04 -.105E-01   0.277E-04 -.277E-04 0.205E-01   0.847E-21 -.847E-20 0.178E-19   -.122E-07 0.122E-07 0.116E-06
   0.103E-01 -.103E-01 -.105E-01   -.202E-01 0.202E-01 0.205E-01   0.702E-21 0.165E-19 0.847E-21   -.127E-06 0.128E-06 0.115E-06
   0.103E-01 0.143E-04 0.105E-01   -.202E-01 -.277E-04 -.205E-01   0.983E-21 0.339E-20 -.240E-20   -.127E-06 0.122E-07 -.116E-06
   -.103E-01 -.103E-01 0.105E-01   0.202E-01 0.202E-01 -.205E-01   0.296E-25 0.847E-21 -.929E-20   0.127E-06 0.127E-06 -.116E-06
   -.103E-01 0.143E-04 -.105E-01   0.202E-01 -.277E-04 0.205E-01   -.847E-21 0.424E-21 0.280E-19   0.128E-06 0.122E-07 0.115E-06
   0.143E-04 -.103E-01 -.105E-01   -.277E-04 0.202E-01 0.205E-01   -.423E-21 0.932E-20 -.195E-19   0.122E-07 0.128E-06 0.115E-06
   0.143E-04 0.143E-04 0.105E-01   -.277E-04 -.277E-04 -.205E-01   -.300E-25 0.127E-20 -.409E-20   0.122E-07 0.122E-07 -.116E-06
   0.105E-01 -.103E-01 0.105E-01   -.205E-01 0.202E-01 -.205E-01   -.503E-21 -.169E-20 0.178E-19   -.116E-06 0.127E-06 -.116E-06
   0.105E-01 0.143E-04 -.105E-01   -.205E-01 -.277E-04 0.205E-01   0.425E-20 -.635E-20 0.330E-19   -.116E-06 0.122E-07 0.115E-06
   -.105E-01 -.103E-01 -.105E-01   0.205E-01 0.202E-01 0.205E-01   0.740E-25 0.296E-20 0.212E-19   0.115E-06 0.128E-06 0.115E-06
   -.105E-01 0.143E-04 0.105E-01   0.205E-01 -.277E-04 -.205E-01   -.288E-25 -.148E-19 0.564E-20   0.115E-06 0.122E-07 -.116E-06
   -.143E-04 0.105E-01 0.105E-01   0.277E-04 -.205E-01 -.205E-01   -.847E-21 0.938E-20 0.496E-19   -.122E-07 -.116E-06 -.116E-06
   -.143E-04 -.105E-01 -.105E-01   0.277E-04 0.205E-01 0.205E-01   -.847E-21 0.508E-20 0.347E-19   -.122E-07 0.115E-06 0.115E-06
   0.103E-01 0.105E-01 -.105E-01   -.202E-01 -.205E-01 0.205E-01   -.774E-21 0.158E-19 -.470E-19   -.127E-06 -.116E-06 0.115E-06
   0.103E-01 -.105E-01 0.105E-01   -.202E-01 0.205E-01 -.205E-01   0.386E-21 -.508E-20 -.371E-19   -.127E-06 0.115E-06 -.116E-06
   -.103E-01 0.105E-01 0.105E-01   0.202E-01 -.205E-01 -.205E-01   0.296E-27 0.472E-20 0.674E-19   0.127E-06 -.116E-06 -.116E-06
   -.103E-01 -.105E-01 -.105E-01   0.202E-01 0.205E-01 0.205E-01   0.847E-21 0.932E-20 0.182E-19   0.128E-06 0.115E-06 0.115E-06
   0.143E-04 0.105E-01 -.105E-01   -.277E-04 -.205E-01 0.205E-01   -.423E-21 -.242E-20 -.174E-19   0.122E-07 -.116E-06 0.115E-06
   0.143E-04 -.105E-01 0.105E-01   -.277E-04 0.205E-01 -.205E-01   -.847E-21 0.254E-20 0.277E-19   0.122E-07 0.115E-06 -.116E-06
   0.105E-01 0.105E-01 0.105E-01   -.205E-01 -.205E-01 -.205E-01   0.134E-21 -.139E-19 0.458E-19   -.116E-06 -.116E-06 -.116E-06
   0.105E-01 -.105E-01 -.105E-01   -.205E-01 0.205E-01 0.205E-01   0.177E-20 0.102E-19 -.212E-20   -.116E-06 0.115E-06 0.115E-06
   -.105E-01 0.105E-01 -.105E-01   0.205E-01 -.205E-01 0.205E-01   0.447E-25 -.304E-21 -.373E-19   0.115E-06 -.116E-06 0.115E-06
   -.105E-01 -.105E-01 0.105E-01   0.205E-01 0.205E-01 -.205E-01   0.292E-25 0.102E-19 0.154E-19   0.115E-06 0.115E-06 -.116E-06
 -----------------------------------------------------------------------------------------------
   -.721E-09 -.685E-09 -.771E-09   0.828E-13 0.168E-12 -.345E-12   0.661E-20 0.835E-19 0.204E-19   0.777E-09 0.777E-09 0.775E-09
 
 
 POSITION                                       TOTAL-FORCE (eV/Angst)
 -----------------------------------------------------------------------------------
      0.00000      0.00000     -0.00000         0.000000     -0.000000      0.000000
      0.00000      1.72330      1.72330         0.000000      0.000000     -0.000000
      1.72330      0.00000      1.72330         0.000000     -0.000000      0.000000
      1.72330      1.72330     -0.00000        -0.000000      0.000000      0.000000
      3.44652     -0.00000     -0.00000        -0.000000      0.000000     -0.000000
      3.44652      1.72330      1.72330        -0.000000     -0.000000      0.000000
      5.16982     -0.00000      1.72330        -0.000000      0.000000      0.000000
      5.16982      1.72330     -0.00000         0.000000      0.000000     -0.000000
      6.89311     -0.00000     -0.00000         0.000000      0.000000     -0.000000
      6.89311      1.72330      1.72330        -0.000000     -0.000000     -0.000000
      8.61633     -0.00000      1.72330         0.000000     -0.000000     -0.000000
      8.61633      1.72330     -0.00000         0.000000     -0.000000      0.000000
      0.00000      3.44652     -0.00000         0.000000     -0.000000     -0.000000
      0.00000      5.16982      1.72330         0.000000     -0.000000      0.000000
      1.72330      3.44652      1.72330         0.000000     -0.000000     -0.000000
      1.72330      5.16982     -0.00000         0.000000     -0.000000     -0.000000
      3.44652      3.44652     -0.00000         0.000000     -0.000000      0.000000
      3.44652      5.16982      1.72330        -0.000000     -0.000000      0.000000
      5.16982      3.44652      1.72330        -0.000000     -0.000000      0.000000
      5.16982      5.16982     -0.00000        -0.000000      0.000000     -0.000000
      6.89311      3.44652     -0.00000        -0.000000     -0.000000      0.000000
      6.89311      5.16982      1.72330        -0.000000     -0.000000      0.000000
      8.61633      3.44652      1.72330        -0.000000     -0.000000     -0.000000
      8.61633      5.16982     -0.00000         0.000000     -0.000000     -0.000000
      0.00000      6.89311     -0.00000         0.000000     -0.000000      0.000000
      0.00000      8.61633      1.72330         0.000000      0.000000      0.000000
      1.72330      6.89311      1.72330         0.000000      0.000000     -0.000000
      1.72330      8.61633     -0.00000         0.000000     -0.000000     -0.000000
      3.44652      6.89311     -0.00000        -0.000000      0.000000      0.000000
      3.44652      8.61633      1.72330        -0.000000      0.000000     -0.000000
      5.16982      6.89311      1.72330        -0.000000      0.000000     -0.000000
      5.16982      8.61633     -0.00000        -0.000000      0.000000     -0.000000
      6.89311      6.89311     -0.00000        -0.000000      0.000000     -0.000000
      6.89311      8.61633      1.72330        -0.000000      0.000000     -0.000000
      8.61633      6.89311      1.72330        -0.000000      0.000000     -0.000000
      8.61633      8.61633     -0.00000        -0.000000     -0.000000      0.000000
      0.00000      0.00000      3.44652         0.000000     -0.000000      0.000000
      0.00000      1.72330      5.16982         0.000000     -0.000000     -0.000000
      1.72330      0.00000      5.16982         0.000000      0.000000      0.000000
      1.72330      1.72330      3.44652        -0.000000     -0.000000     -0.000000
      3.44652      0.00000      3.44652        -0.000000      0.000000      0.000000
      3.44652      1.72330      5.16982        -0.000000      0.000000      0.000000
      5.16982      0.00000      5.16982         0.000000     -0.000000      0.000000
      5.16982      1.72330      3.44652        -0.000000      0.000000     -0.000000
      6.89311      0.00000      3.44652        -0.000000      0.000000     -0.000000
      6.89311      1.72330      5.16982        -0.000000     -0.000000     -0.000000
      8.61633      0.00000      5.16982         0.000000     -0.000000     -0.000000
      8.61633      1.72330      3.44652        -0.000000     -0.000000     -0.000000
      0.00000      3.44652      3.44652         0.000000     -0.000000      0.000000
      0.00000      5.16982      5.16982         0.000000     -0.000000      0.000000
      1.72330      3.44652      5.16982         0.000000      0.000000     -0.000000
      1.72330      5.16982      3.44652         0.000000     -0.000000      0.000000
      3.44652      3.44652      3.44652        -0.000000     -0.000000     -0.000000
      3.44652      5.16982      5.16982        -0.000000     -0.000000     -0.000000
      5.16982      3.44652      5.16982        -0.000000      0.000000      0.000000
      5.16982      5.16982      3.44652         0.000000      0.000000      0.000000
      6.89311      3.44652      3.44652        -0.000000     -0.000000      0.000000
      6.89311      5.16982      5.16982        -0.000000      0.000000     -0.000000
      8.61633      3.44652      5.16982         0.000000     -0.000000      0.000000
      8.61633      5.16982      3.44652        -0.000000     -0.000000      0.000000
      0.00000      6.89311      3.44652        -0.000000      0.000000     -0.000000
      0.00000      8.61633      5.16982         0.000000      0.000000      0.000000
      1.72330      6.89311      5.16982         0.000000     -0.000000     -0.000000
      1.72330      8.61633      3.44652        -0.000000      0.000000      0.000000
      3.44652      6.89311      3.44652         0.000000      0.000000     -0.000000
      3.44652      8.61633      5.16982         0.000000      0.000000      0.000000
      5.16982      6.89311      5.16982         0.000000      0.000000     -0.000000
      5.16982      8.61633      3.44652        -0.000000      0.000000      0.000000
      6.89311      6.89311      3.44652        -0.000000      0.000000      0.000000
      6.89311      8.61633      5.16982        -0.000000      0.000000      0.000000
      8.61633      6.89311      5.16982         0.000000      0.000000      0.000000
      8.61633      8.61633      3.44652        -0.000000      0.000000     -0.000000
      0.00000      0.00000      6.89311         0.000000     -0.000000      0.000000
      0.00000      1.72330      8.61633         0.000000      0.000000      0.000000
      1.72330      0.00000      8.61633         0.000000      0.000000     -0.000000
      1.72330      1.72330      6.89311         0.000000     -0.000000      0.000000
      3.44652      0.00000      6.89311        -0.000000     -0.000000     -0.000000
      3.44652      1.72330      8.61633        -0.000000      0.000000     -0.000000
      5.16982      0.00000      8.61633         0.000000     -0.000000     -0.000000
      5.16982      1.72330      6.89311        -0.000000      0.000000      0.000000
      6.89311      0.00000      6.89311         0.000000      0.000000      0.000000
      6.89311      1.72330      8.61633        -0.000000     -0.000000      0.000000
      8.61633      0.00000      8.61633        -0.000000     -0.000000      0.000000
      8.61633      1.72330      6.89311        -0.000000     -0.000000      0.000000
      0.00000      3.44652      6.89311         0.000000      0.000000     -0.000000
      0.00000      5.16982      8.61633         0.000000      0.000000      0.000000
      1.72330      3.44652      8.61633         0.000000     -0.000000      0.000000
      1.72330      5.16982      6.89311         0.000000     -0.000000      0.000000
      3.44652      3.44652      6.89311         0.000000      0.000000     -0.000000
      3.44652      5.16982      8.61633        -0.000000      0.000000      0.000000
      5.16982      3.44652      8.61633        -0.000000     -0.000000      0.000000
      5.16982      5.16982      6.89311         0.000000     -0.000000     -0.000000
      6.89311      3.44652      6.89311        -0.000000      0.000000      0.000000
      6.89311      5.16982      8.61633        -0.000000     -0.000000     -0.000000
      8.61633      3.44652      8.61633         0.000000     -0.000000     -0.000000
      8.61633      5.16982      6.89311         0.000000      0.000000     -0.000000
      0.00000      6.89311      6.89311        -0.000000     -0.000000     -0.000000
      0.00000      8.61633      8.61633         0.000000      0.000000      0.000000
      1.72330      6.89311      8.61633        -0.000000     -0.000000      0.000000
      1.72330      8.61633      6.89311         0.000000      0.000000      0.000000
      3.44652      6.89311      6.89311        -0.000000      0.000000      0.000000
      3.44652      8.61633      8.61633        -0.000000      0.000000     -0.000000
      5.16982      6.89311      8.61633         0.000000     -0.000000      0.000000
      5.16982      8.61633      6.89311        -0.000000      0.000000     -0.000000
      6.89311      6.89311      6.89311        -0.000000      0.000000      0.000000
      6.89311      8.61633      8.61633        -0.000000      0.000000     -0.000000
      8.61633      6.89311      8.61633        -0.000000      0.000000      0.000000
      8.61633      8.61633      6.89311         0.000000     -0.000000     -0.000000
 -----------------------------------------------------------------------------------
    total drift:                                0.000000      0.000000      0.000000


--------------------------------------------------------------------------------------------------------



  FREE ENERGIE OF THE ION-ELECTRON SYSTEM (eV)
  ---------------------------------------------------
  free  energy   TOTEN  =      -879.52849096 eV

  energy  without entropy=     -879.45797757  energy(sigma->0) =     -879.50498650
 
 d Force = 0.0000000E+00[ 0.000E+00, 0.000E+00]  d Energy = 0.3818802E-02-0.382E-02
 d Force = 0.0000000E+00[ 0.000E+00, 0.000E+00]  d Ewald  = 0.4417503E+02-0.442E+02


--------------------------------------------------------------------------------------------------------


    POTLOK:  cpu time    0.3036: real time    0.3035


--------------------------------------------------------------------------------------------------------




--------------------------------------------------------------------------------------------------------


  
 reached required accuracy - stopping structural energy minimisation
     LOOP+:  cpu time  444.8727: real time  444.8867
    4ORBIT:  cpu time    0.0000: real time    0.0000

 total amount of memory used by VASP MPI-rank0   232619. kBytes
=======================================================================

   base      :      30000. kBytes
   nonlr-proj:      22663. kBytes
   fftplans  :      15480. kBytes
   grid      :      21835. kBytes
   one-center:        419. kBytes
   wavefun   :     142222. kBytes
 
  
  
 General timing and accounting informations for this job:
 ========================================================
  
                  Total CPU time used (sec):     2467.891
                            User time (sec):     2463.502
                          System time (sec):        4.389
                         Elapsed time (sec):     2467.920
  
                   Maximum memory used (kb):      293744.
                   Average memory used (kb):           0.
  
                          Minor page faults:       530595
                          Major page faults:            0
                 Voluntary context switches:          617
