<?xml version="1.0" encoding="ISO-8859-1"?>
<modeling>
 <generator>
  <i name="program" type="string">vasp </i>
  <i name="version" type="string">5.4.4.18Apr17-6-g9f103f2a35  </i>
  <i name="subversion" type="string">(build Aug 17 2017 06:00:38) complex            parallel </i>
  <i name="platform" type="string">LinuxIFC </i>
  <i name="date" type="string">2019 07 12 </i>
  <i name="time" type="string">14:47:01 </i>
 </generator>
 <incar>
  <i type="string" name="SYSTEM">Opt</i>
  <i type="int" name="ISTART">     0</i>
  <i type="string" name="PREC">normal</i>
  <i type="string" name="ALGO"> Fast</i>
  <i type="int" name="ISPIN">     1</i>
  <i type="int" name="ICHARG">     2</i>
  <i type="int" name="NELM">   400</i>
  <i type="int" name="IBRION">     2</i>
  <i name="EDIFF">      0.00000100</i>
  <i name="EDIFFG">     -0.01000000</i>
  <i type="int" name="NSW">   100</i>
  <i type="int" name="ISIF">     3</i>
  <i name="ENCUT">    550.00000000</i>
  <i type="int" name="NGX">    72</i>
  <i type="int" name="NGY">    72</i>
  <i type="int" name="NGZ">    72</i>
  <i name="POTIM">      0.50000000</i>
  <i type="string" name="LREAL">Auto</i>
  <i type="logical" name="LWAVE"> F  </i>
  <i type="logical" name="LCHARG"> F  </i>
  <v type="int" name="KPOINT_BSE">    -1     0     0     0</v>
  <i type="int" name="NELM">   400</i>
 </incar>
 <structure name="primitive_cell" >
  <crystal>
   <varray name="basis" >
    <v>       3.44492529       0.00000000       0.00000000 </v>
    <v>       0.00000000       3.44492529       0.00000000 </v>
    <v>       0.00000000       0.00000000       3.44492524 </v>
   </varray>
   <i name="volume">     40.88268566 </i>
   <varray name="rec_basis" >
    <v>       0.29028206       0.00000000       0.00000000 </v>
    <v>       0.00000000       0.29028206       0.00000000 </v>
    <v>       0.00000000       0.00000000       0.29028206 </v>
   </varray>
  </crystal>
  <varray name="positions" >
   <v>       0.00000000       0.00000000       0.00000000 </v>
   <v>       0.00000000      -0.49998976      -0.49998975 </v>
   <v>      -0.49998976       0.00000000      -0.49998975 </v>
   <v>      -0.49998976      -0.49998976       0.00000000 </v>
  </varray>
 </structure>
 <varray name="primitive_index" >
  <v type="int" >        1 </v>
  <v type="int" >        2 </v>
  <v type="int" >        3 </v>
  <v type="int" >        4 </v>
 </varray>
 <kpoints>
  <generation param="Monkhorst-Pack">
   <v type="int" name="divisions">       4        4        4 </v>
   <v name="usershift">      0.00000000       0.00000000       0.00000000 </v>
   <v name="genvec1">      0.25000000       0.00000000       0.00000000 </v>
   <v name="genvec2">      0.00000000       0.25000000       0.00000000 </v>
   <v name="genvec3">      0.00000000       0.00000000       0.25000000 </v>
   <v name="shift">      0.50000000       0.50000000       0.50000000 </v>
  </generation>
  <varray name="kpointlist" >
   <v>       0.12500000       0.12500000       0.12500000 </v>
   <v>       0.37500000       0.12500000       0.12500000 </v>
   <v>       0.37500000       0.37500000       0.12500000 </v>
   <v>       0.37500000       0.37500000       0.37500000 </v>
  </varray>
  <varray name="weights" >
   <v>       0.12500000 </v>
   <v>       0.37500000 </v>
   <v>       0.37500000 </v>
   <v>       0.12500000 </v>
  </varray>
 </kpoints>
 <parameters>
  <separator name="general" >
   <i type="string" name="SYSTEM">Opt</i>
   <i type="logical" name="LCOMPAT"> F  </i>
  </separator>
  <separator name="electronic" >
   <i type="string" name="PREC">normal</i>
   <i name="ENMAX">    550.00000000</i>
   <i name="ENAUG">    511.36800000</i>
   <i name="EDIFF">      0.00000100</i>
   <i type="int" name="IALGO">    68</i>
   <i type="int" name="IWAVPR">    11</i>
   <i type="int" name="NBANDS">   518</i>
   <i name="NELECT">    864.00000000</i>
   <i type="int" name="TURBO">     0</i>
   <i type="int" name="IRESTART">     0</i>
   <i type="int" name="NREBOOT">     0</i>
   <i type="int" name="NMIN">     0</i>
   <i name="EREF">      0.00000000</i>
   <separator name="electronic smearing" >
    <i type="int" name="ISMEAR">     1</i>
    <i name="SIGMA">      0.20000000</i>
    <i name="KSPACING">      0.50000000</i>
    <i type="logical" name="KGAMMA"> T  </i>
   </separator>
   <separator name="electronic projectors" >
    <i type="logical" name="LREAL"> T  </i>
    <v name="ROPT">     -0.00050000</v>
    <i type="int" name="LMAXPAW">  -100</i>
    <i type="int" name="LMAXMIX">     2</i>
    <i type="logical" name="NLSPLINE"> F  </i>
   </separator>
   <separator name="electronic startup" >
    <i type="int" name="ISTART">     0</i>
    <i type="int" name="ICHARG">     2</i>
    <i type="int" name="INIWAV">     1</i>
   </separator>
   <separator name="electronic spin" >
    <i type="int" name="ISPIN">     1</i>
    <i type="logical" name="LNONCOLLINEAR"> F  </i>
    <v name="MAGMOM">      1.00000000      1.00000000      1.00000000      1.00000000      1.00000000      1.00000000      1.00000000      1.00000000      1.00000000      1.00000000      1.00000000      1.00000000      1.00000000      1.00000000      1.00000000      1.00000000      1.00000000      1.00000000      1.00000000      1.00000000
      1.00000000      1.00000000      1.00000000      1.00000000      1.00000000      1.00000000      1.00000000      1.00000000      1.00000000      1.00000000      1.00000000      1.00000000      1.00000000      1.00000000      1.00000000      1.00000000      1.00000000      1.00000000      1.00000000      1.00000000
      1.00000000      1.00000000      1.00000000      1.00000000      1.00000000      1.00000000      1.00000000      1.00000000      1.00000000      1.00000000      1.00000000      1.00000000      1.00000000      1.00000000      1.00000000      1.00000000      1.00000000      1.00000000      1.00000000      1.00000000
      1.00000000      1.00000000      1.00000000      1.00000000      1.00000000      1.00000000      1.00000000      1.00000000      1.00000000      1.00000000      1.00000000      1.00000000      1.00000000      1.00000000      1.00000000      1.00000000      1.00000000      1.00000000      1.00000000      1.00000000
      1.00000000      1.00000000      1.00000000      1.00000000      1.00000000      1.00000000      1.00000000      1.00000000      1.00000000      1.00000000      1.00000000      1.00000000      1.00000000      1.00000000      1.00000000      1.00000000      1.00000000      1.00000000      1.00000000      1.00000000
      1.00000000      1.00000000      1.00000000      1.00000000      1.00000000      1.00000000      1.00000000      1.00000000</v>
    <i name="NUPDOWN">     -1.00000000</i>
    <i type="logical" name="LSORBIT"> F  </i>
    <v name="SAXIS">      0.00000000      0.00000000      1.00000000</v>
    <i type="logical" name="LSPIRAL"> F  </i>
    <v name="QSPIRAL">      0.00000000      0.00000000      0.00000000</v>
    <i type="logical" name="LZEROZ"> F  </i>
   </separator>
   <separator name="electronic exchange-correlation" >
    <i type="logical" name="LASPH"> F  </i>
    <i type="logical" name="LMETAGGA"> F  </i>
   </separator>
   <separator name="electronic convergence" >
    <i type="int" name="NELM">   400</i>
    <i type="int" name="NELMDL">    -5</i>
    <i type="int" name="NELMIN">     2</i>
    <i name="ENINI">    550.00000000</i>
    <separator name="electronic convergence detail" >
     <i type="logical" name="LDIAG"> T  </i>
     <i type="logical" name="LSUBROT"> F  </i>
     <i name="WEIMIN">      0.00100000</i>
     <i name="EBREAK">      0.00000000</i>
     <i name="DEPER">      0.30000000</i>
     <i type="int" name="NRMM">     4</i>
     <i name="TIME">      0.40000000</i>
    </separator>
   </separator>
   <separator name="electronic mixer" >
    <i name="AMIX">      0.40000000</i>
    <i name="BMIX">      1.00000000</i>
    <i name="AMIN">      0.10000000</i>
    <i name="AMIX_MAG">      1.60000000</i>
    <i name="BMIX_MAG">      1.00000000</i>
    <separator name="electronic mixer details" >
     <i type="int" name="IMIX">     4</i>
     <i type="logical" name="MIXFIRST"> F  </i>
     <i type="int" name="MAXMIX">   -45</i>
     <i name="WC">    100.00000000</i>
     <i type="int" name="INIMIX">     1</i>
     <i type="int" name="MIXPRE">     1</i>
     <i type="int" name="MREMOVE">     5</i>
    </separator>
   </separator>
   <separator name="electronic dipolcorrection" >
    <i type="logical" name="LDIPOL"> F  </i>
    <i type="logical" name="LMONO"> F  </i>
    <i type="int" name="IDIPOL">     0</i>
    <i name="EPSILON">      1.00000000</i>
    <v name="DIPOL">   -100.00000000   -100.00000000   -100.00000000</v>
    <i name="EFIELD">      0.00000000</i>
   </separator>
  </separator>
  <separator name="grids" >
   <i type="int" name="NGX">    72</i>
   <i type="int" name="NGY">    72</i>
   <i type="int" name="NGZ">    72</i>
   <i type="int" name="NGXF">   144</i>
   <i type="int" name="NGYF">   144</i>
   <i type="int" name="NGZF">   144</i>
   <i type="logical" name="ADDGRID"> F  </i>
  </separator>
  <separator name="ionic" >
   <i type="int" name="NSW">   100</i>
   <i type="int" name="IBRION">     2</i>
   <i type="int" name="MDALGO">     0</i>
   <i type="int" name="ISIF">     3</i>
   <i name="PSTRESS">      0.00000000</i>
   <i name="EDIFFG">     -0.01000000</i>
   <i type="int" name="NFREE">     1</i>
   <i name="POTIM">      0.50000000</i>
   <i name="SMASS">     -3.00000000</i>
   <i name="SCALEE">      1.00000000</i>
  </separator>
  <separator name="ionic md" >
   <i name="TEBEG">      0.00010000</i>
   <i name="TEEND">      0.00010000</i>
   <i type="int" name="NBLOCK">     1</i>
   <i type="int" name="KBLOCK">   100</i>
   <i type="int" name="NPACO">   256</i>
   <i name="APACO">     16.00000000</i>
  </separator>
  <separator name="symmetry" >
   <i type="int" name="ISYM">     2</i>
   <i name="SYMPREC">      0.00001000</i>
  </separator>
  <separator name="dos" >
   <i type="int" name="LORBIT">     0</i>
   <v name="RWIGS">     -1.00000000</v>
   <i type="int" name="NEDOS">   301</i>
   <i name="EMIN">     10.00000000</i>
   <i name="EMAX">    -10.00000000</i>
   <i name="EFERMI">      0.00000000</i>
  </separator>
  <separator name="writing" >
   <i type="int" name="NWRITE">     2</i>
   <i type="logical" name="LWAVE"> F  </i>
   <i type="logical" name="LDOWNSAMPLE"> F  </i>
   <i type="logical" name="LCHARG"> F  </i>
   <i type="logical" name="LPARD"> F  </i>
   <i type="logical" name="LVTOT"> F  </i>
   <i type="logical" name="LVHAR"> F  </i>
   <i type="logical" name="LELF"> F  </i>
   <i type="logical" name="LOPTICS"> F  </i>
   <v name="STM">      0.00000000      0.00000000      0.00000000      0.00000000      0.00000000      0.00000000      0.00000000</v>
  </separator>
  <separator name="performance" >
   <i type="int" name="NPAR">     2</i>
   <i type="int" name="NSIM">     4</i>
   <i type="int" name="NBLK">    -1</i>
   <i type="logical" name="LPLANE"> T  </i>
   <i type="logical" name="LSCALAPACK"> T  </i>
   <i type="logical" name="LSCAAWARE"> F  </i>
   <i type="logical" name="LSCALU"> F  </i>
   <i type="logical" name="LASYNC"> F  </i>
   <i type="logical" name="LORBITALREAL"> F  </i>
  </separator>
  <separator name="miscellaneous" >
   <i type="int" name="IDIOT">     3</i>
   <i type="int" name="ISPECIAL">     0</i>
   <i type="logical" name="LMUSIC"> F  </i>
   <v name="POMASS">     55.84700000</v>
   <v name="DARWINR">      0.00000000</v>
   <v name="DARWINV">      1.00000000</v>
   <i type="logical" name="LCORR"> T  </i>
  </separator>
  <i type="logical" name="GGA_COMPAT"> T  </i>
  <i type="logical" name="LBERRY"> F  </i>
  <i type="int" name="ICORELEVEL">     0</i>
  <i type="logical" name="LDAU"> F  </i>
  <i type="int" name="I_CONSTRAINED_M">     0</i>
  <separator name="electronic exchange-correlation" >
   <i type="string" name="GGA">--</i>
   <i type="int" name="VOSKOWN">     0</i>
   <i type="logical" name="LHFCALC"> F  </i>
   <i type="string" name="PRECFOCK"></i>
   <i type="logical" name="LSYMGRAD"> F  </i>
   <i type="logical" name="LHFONE"> F  </i>
   <i type="logical" name="LRHFCALC"> F  </i>
   <i type="logical" name="LTHOMAS"> F  </i>
   <i type="logical" name="LMODELHF"> F  </i>
   <i name="ENCUT4O">     -1.00000000</i>
   <i type="int" name="EXXOEP">     0</i>
   <i type="int" name="FOURORBIT">     0</i>
   <i name="AEXX">      0.00000000</i>
   <i name="HFALPHA">      0.00000000</i>
   <i name="MCALPHA">      0.00000000</i>
   <i name="ALDAX">      1.00000000</i>
   <i name="AGGAX">      1.00000000</i>
   <i name="ALDAC">      1.00000000</i>
   <i name="AGGAC">      1.00000000</i>
   <i type="int" name="NKREDX">     1</i>
   <i type="int" name="NKREDY">     1</i>
   <i type="int" name="NKREDZ">     1</i>
   <i type="logical" name="SHIFTRED"> F  </i>
   <i type="logical" name="ODDONLY"> F  </i>
   <i type="logical" name="EVENONLY"> F  </i>
   <i type="int" name="LMAXFOCK">     0</i>
   <i type="int" name="NMAXFOCKAE">     0</i>
   <i type="logical" name="LFOCKAEDFT"> F  </i>
   <i name="HFSCREEN">      0.00000000</i>
   <i name="HFSCREENC">      0.00000000</i>
   <i type="int" name="NBANDSGWLOW">     0</i>
  </separator>
  <separator name="vdW DFT" >
   <i type="logical" name="LUSE_VDW"> F  </i>
   <i name="Zab_VDW">     -0.84910000</i>
   <i name="PARAM1">      0.12340000</i>
   <i name="PARAM2">      1.00000000</i>
   <i name="PARAM3">      0.00000000</i>
  </separator>
  <separator name="model GW" >
   <i type="int" name="MODEL_GW">     0</i>
   <i name="MODEL_EPS0">      6.13252964</i>
   <i name="MODEL_ALPHA">      1.00000000</i>
  </separator>
  <separator name="linear response parameters" >
   <i type="logical" name="LEPSILON"> F  </i>
   <i type="logical" name="LRPA"> F  </i>
   <i type="logical" name="LNABLA"> F  </i>
   <i type="logical" name="LVEL"> F  </i>
   <i type="int" name="KINTER">     0</i>
   <i name="CSHIFT">      0.10000000</i>
   <i name="OMEGAMAX">     -1.00000000</i>
   <i name="DEG_THRESHOLD">      0.00200000</i>
   <i name="RTIME">     -0.10000000</i>
   <i name="WPLASMAI">      0.00000000</i>
   <v name="DFIELD">      0.00000000      0.00000000      0.00000000</v>
   <v name="WPLASMA">      0.00000000      0.00000000      0.00000000      0.00000000      0.00000000      0.00000000      0.00000000      0.00000000      0.00000000</v>
  </separator>
  <separator name="orbital magnetization" >
   <i type="logical" name="NUCIND"> F  </i>
   <v name="MAGPOS">      0.00000000      0.00000000      0.00000000</v>
   <i type="logical" name="LNICSALL"> T  </i>
   <i type="logical" name="ORBITALMAG"> F  </i>
   <i type="logical" name="LMAGBLOCH"> F  </i>
   <i type="logical" name="LCHIMAG"> F  </i>
   <i type="logical" name="LGAUGE"> T  </i>
   <i type="int" name="MAGATOM">     0</i>
   <v name="MAGDIPOL">      0.00000000      0.00000000      0.00000000</v>
   <v name="AVECCONST">      0.00000000      0.00000000      0.00000000</v>
  </separator>
  <separator name="response functions" >
   <i type="logical" name="LADDER"> F  </i>
   <i type="logical" name="LRPAFORCE"> F  </i>
   <i type="logical" name="LFXC"> F  </i>
   <i type="logical" name="LHARTREE"> T  </i>
   <i type="int" name="IBSE">     0</i>
   <v type="int" name="KPOINT">    -1     0     0     0</v>
   <i type="logical" name="LTCTE"> F  </i>
   <i type="logical" name="LTETE"> F  </i>
   <i type="logical" name="LTRIPLET"> F  </i>
   <i type="logical" name="LFXCEPS"> F  </i>
   <i type="logical" name="LFXHEG"> F  </i>
   <i type="int" name="NATURALO">     2</i>
   <i type="logical" name="L2ORDER"> F  </i>
   <i type="logical" name="LMP2LT"> F  </i>
   <i type="logical" name="LUSEW"> F  </i>
   <i name="ENCUTGW">     -2.00000000</i>
   <i name="ENCUTGWSOFT">     -2.00000000</i>
   <i name="ENCUTLF">     -1.00000000</i>
   <i type="int" name="LMAXMP2">    -1</i>
   <i name="SCISSOR">      0.00000000</i>
   <i type="int" name="NOMEGA">     0</i>
   <i type="int" name="NOMEGAR">     0</i>
   <i type="int" name="NBANDSGW">    -1</i>
   <i type="int" name="NBANDSO">    -1</i>
   <i type="int" name="NBANDSV">    -1</i>
   <i type="int" name="NELM">   400</i>
   <i type="int" name="NELMHF">     1</i>
   <i type="int" name="DIM">     3</i>
   <i type="int" name="ANTIRES">     0</i>
   <i name="OMEGAMAX">    -30.00000000</i>
   <i name="OMEGAMIN">    -30.00000000</i>
   <i name="OMEGATL">   -200.00000000</i>
   <i type="int" name="OMEGAGRID">   140</i>
   <i name="CSHIFT">     -0.10000000</i>
   <i type="logical" name="SELFENERGY"> F  </i>
   <i type="logical" name="LSPECTRAL"> F  </i>
   <i type="logical" name="LSPECTRALGW"> F  </i>
   <i type="logical" name="LSINGLES"> F  </i>
   <i type="logical" name="LFERMIGW"> F  </i>
   <i type="logical" name="ODDONLYGW"> F  </i>
   <i type="logical" name="EVENONLYGW"> F  </i>
   <i type="int" name="NKREDLFX">     1</i>
   <i type="int" name="NKREDLFY">     1</i>
   <i type="int" name="NKREDLFZ">     1</i>
   <i type="int" name="MAXMEM">  2800</i>
   <i type="int" name="TELESCOPE">     0</i>
   <i type="int" name="TAUPAR">     1</i>
   <i type="int" name="OMEGAPAR">    -1</i>
   <i name="LAMBDA">      1.00000000</i>
  </separator>
  <separator name="External order field" >
   <i name="OFIELD_KAPPA">      0.00000000</i>
   <v name="OFIELD_K">      0.00000000      0.00000000      0.00000000</v>
   <i name="OFIELD_Q6_NEAR">      0.00000000</i>
   <i name="OFIELD_Q6_FAR">      0.00000000</i>
   <i name="OFIELD_A">      0.00000000</i>
  </separator>
 </parameters>
 <atominfo>
  <atoms>     108 </atoms>
  <types>       1 </types>
  <array name="atoms" >
   <dimension dim="1">ion</dimension>
   <field type="string">element</field>
   <field type="int">atomtype</field>
   <set>
    <rc><c>Fe</c><c>   1</c></rc>
    <rc><c>Fe</c><c>   1</c></rc>
    <rc><c>Fe</c><c>   1</c></rc>
    <rc><c>Fe</c><c>   1</c></rc>
    <rc><c>Fe</c><c>   1</c></rc>
    <rc><c>Fe</c><c>   1</c></rc>
    <rc><c>Fe</c><c>   1</c></rc>
    <rc><c>Fe</c><c>   1</c></rc>
    <rc><c>Fe</c><c>   1</c></rc>
    <rc><c>Fe</c><c>   1</c></rc>
    <rc><c>Fe</c><c>   1</c></rc>
    <rc><c>Fe</c><c>   1</c></rc>
    <rc><c>Fe</c><c>   1</c></rc>
    <rc><c>Fe</c><c>   1</c></rc>
    <rc><c>Fe</c><c>   1</c></rc>
    <rc><c>Fe</c><c>   1</c></rc>
    <rc><c>Fe</c><c>   1</c></rc>
    <rc><c>Fe</c><c>   1</c></rc>
    <rc><c>Fe</c><c>   1</c></rc>
    <rc><c>Fe</c><c>   1</c></rc>
    <rc><c>Fe</c><c>   1</c></rc>
    <rc><c>Fe</c><c>   1</c></rc>
    <rc><c>Fe</c><c>   1</c></rc>
    <rc><c>Fe</c><c>   1</c></rc>
    <rc><c>Fe</c><c>   1</c></rc>
    <rc><c>Fe</c><c>   1</c></rc>
    <rc><c>Fe</c><c>   1</c></rc>
    <rc><c>Fe</c><c>   1</c></rc>
    <rc><c>Fe</c><c>   1</c></rc>
    <rc><c>Fe</c><c>   1</c></rc>
    <rc><c>Fe</c><c>   1</c></rc>
    <rc><c>Fe</c><c>   1</c></rc>
    <rc><c>Fe</c><c>   1</c></rc>
    <rc><c>Fe</c><c>   1</c></rc>
    <rc><c>Fe</c><c>   1</c></rc>
    <rc><c>Fe</c><c>   1</c></rc>
    <rc><c>Fe</c><c>   1</c></rc>
    <rc><c>Fe</c><c>   1</c></rc>
    <rc><c>Fe</c><c>   1</c></rc>
    <rc><c>Fe</c><c>   1</c></rc>
    <rc><c>Fe</c><c>   1</c></rc>
    <rc><c>Fe</c><c>   1</c></rc>
    <rc><c>Fe</c><c>   1</c></rc>
    <rc><c>Fe</c><c>   1</c></rc>
    <rc><c>Fe</c><c>   1</c></rc>
    <rc><c>Fe</c><c>   1</c></rc>
    <rc><c>Fe</c><c>   1</c></rc>
    <rc><c>Fe</c><c>   1</c></rc>
    <rc><c>Fe</c><c>   1</c></rc>
    <rc><c>Fe</c><c>   1</c></rc>
    <rc><c>Fe</c><c>   1</c></rc>
    <rc><c>Fe</c><c>   1</c></rc>
    <rc><c>Fe</c><c>   1</c></rc>
    <rc><c>Fe</c><c>   1</c></rc>
    <rc><c>Fe</c><c>   1</c></rc>
    <rc><c>Fe</c><c>   1</c></rc>
    <rc><c>Fe</c><c>   1</c></rc>
    <rc><c>Fe</c><c>   1</c></rc>
    <rc><c>Fe</c><c>   1</c></rc>
    <rc><c>Fe</c><c>   1</c></rc>
    <rc><c>Fe</c><c>   1</c></rc>
    <rc><c>Fe</c><c>   1</c></rc>
    <rc><c>Fe</c><c>   1</c></rc>
    <rc><c>Fe</c><c>   1</c></rc>
    <rc><c>Fe</c><c>   1</c></rc>
    <rc><c>Fe</c><c>   1</c></rc>
    <rc><c>Fe</c><c>   1</c></rc>
    <rc><c>Fe</c><c>   1</c></rc>
    <rc><c>Fe</c><c>   1</c></rc>
    <rc><c>Fe</c><c>   1</c></rc>
    <rc><c>Fe</c><c>   1</c></rc>
    <rc><c>Fe</c><c>   1</c></rc>
    <rc><c>Fe</c><c>   1</c></rc>
    <rc><c>Fe</c><c>   1</c></rc>
    <rc><c>Fe</c><c>   1</c></rc>
    <rc><c>Fe</c><c>   1</c></rc>
    <rc><c>Fe</c><c>   1</c></rc>
    <rc><c>Fe</c><c>   1</c></rc>
    <rc><c>Fe</c><c>   1</c></rc>
    <rc><c>Fe</c><c>   1</c></rc>
    <rc><c>Fe</c><c>   1</c></rc>
    <rc><c>Fe</c><c>   1</c></rc>
    <rc><c>Fe</c><c>   1</c></rc>
    <rc><c>Fe</c><c>   1</c></rc>
    <rc><c>Fe</c><c>   1</c></rc>
    <rc><c>Fe</c><c>   1</c></rc>
    <rc><c>Fe</c><c>   1</c></rc>
    <rc><c>Fe</c><c>   1</c></rc>
    <rc><c>Fe</c><c>   1</c></rc>
    <rc><c>Fe</c><c>   1</c></rc>
    <rc><c>Fe</c><c>   1</c></rc>
    <rc><c>Fe</c><c>   1</c></rc>
    <rc><c>Fe</c><c>   1</c></rc>
    <rc><c>Fe</c><c>   1</c></rc>
    <rc><c>Fe</c><c>   1</c></rc>
    <rc><c>Fe</c><c>   1</c></rc>
    <rc><c>Fe</c><c>   1</c></rc>
    <rc><c>Fe</c><c>   1</c></rc>
    <rc><c>Fe</c><c>   1</c></rc>
    <rc><c>Fe</c><c>   1</c></rc>
    <rc><c>Fe</c><c>   1</c></rc>
    <rc><c>Fe</c><c>   1</c></rc>
    <rc><c>Fe</c><c>   1</c></rc>
    <rc><c>Fe</c><c>   1</c></rc>
    <rc><c>Fe</c><c>   1</c></rc>
    <rc><c>Fe</c><c>   1</c></rc>
    <rc><c>Fe</c><c>   1</c></rc>
    <rc><c>Fe</c><c>   1</c></rc>
   </set>
  </array>
  <array name="atomtypes" >
   <dimension dim="1">type</dimension>
   <field type="int">atomspertype</field>
   <field type="string">element</field>
   <field>mass</field>
   <field>valence</field>
   <field type="string">pseudopotential</field>
   <set>
    <rc><c> 108</c><c>Fe</c><c>     55.84700000</c><c>      8.00000000</c><c> PAW_PBE Fe 06Sep2000                   </c></rc>
   </set>
  </array>
 </atominfo>
 <structure name="initialpos" >
  <crystal>
   <varray name="basis" >
    <v>      10.33484705       0.00000000       0.00000000 </v>
    <v>       0.00000000      10.33484705       0.00000000 </v>
    <v>       0.00000000       0.00000000      10.33484705 </v>
   </varray>
   <i name="volume">   1103.85533447 </i>
   <varray name="rec_basis" >
    <v>       0.09676002       0.00000000       0.00000000 </v>
    <v>       0.00000000       0.09676002       0.00000000 </v>
    <v>       0.00000000       0.00000000       0.09676002 </v>
   </varray>
  </crystal>
  <varray name="positions" >
   <v>       0.00000000       0.00000000       0.00000000 </v>
   <v>       0.00000000       0.16666893       0.16666893 </v>
   <v>       0.16666893       0.00000000       0.16666893 </v>
   <v>       0.16666893       0.16666893       0.00000000 </v>
   <v>       0.33333106       0.00000000       0.00000000 </v>
   <v>       0.33333107       0.16666893       0.16666893 </v>
   <v>       0.50000000       0.00000000       0.16666894 </v>
   <v>       0.50000000       0.16666894       0.00000000 </v>
   <v>       0.66666897       0.00000000       0.00000000 </v>
   <v>       0.66666896       0.16666893       0.16666893 </v>
   <v>       0.83333104       0.00000000       0.16666893 </v>
   <v>       0.83333104       0.16666893       0.00000000 </v>
   <v>       0.00000000       0.33333106       0.00000000 </v>
   <v>       0.00000000       0.50000000       0.16666894 </v>
   <v>       0.16666893       0.33333107       0.16666893 </v>
   <v>       0.16666894       0.50000000       0.00000000 </v>
   <v>       0.33333107       0.33333107       0.00000000 </v>
   <v>       0.33333107       0.50000000       0.16666893 </v>
   <v>       0.50000000       0.33333107       0.16666893 </v>
   <v>       0.50000000       0.50000000       0.00000000 </v>
   <v>       0.66666896       0.33333107       0.00000000 </v>
   <v>       0.66666896       0.50000000       0.16666893 </v>
   <v>       0.83333104       0.33333107       0.16666893 </v>
   <v>       0.83333103       0.50000000       0.00000000 </v>
   <v>       0.00000000       0.66666897       0.00000000 </v>
   <v>       0.00000000       0.83333104       0.16666893 </v>
   <v>       0.16666893       0.66666896       0.16666893 </v>
   <v>       0.16666893       0.83333104       0.00000000 </v>
   <v>       0.33333107       0.66666896       0.00000000 </v>
   <v>       0.33333107       0.83333104       0.16666893 </v>
   <v>       0.50000000       0.66666896       0.16666893 </v>
   <v>       0.50000000       0.83333103       0.00000000 </v>
   <v>       0.66666896       0.66666896       0.00000000 </v>
   <v>       0.66666896       0.83333104       0.16666893 </v>
   <v>       0.83333104       0.66666896       0.16666893 </v>
   <v>       0.83333104       0.83333104       0.00000000 </v>
   <v>       0.00000000       0.00000000       0.33333106 </v>
   <v>       0.00000000       0.16666894       0.50000000 </v>
   <v>       0.16666894       0.00000000       0.50000000 </v>
   <v>       0.16666893       0.16666893       0.33333107 </v>
   <v>       0.33333107       0.00000000       0.33333107 </v>
   <v>       0.33333107       0.16666893       0.50000000 </v>
   <v>       0.50000000       0.00000000       0.50000000 </v>
   <v>       0.50000000       0.16666893       0.33333107 </v>
   <v>       0.66666896       0.00000000       0.33333107 </v>
   <v>       0.66666896       0.16666893       0.50000000 </v>
   <v>       0.83333103       0.00000000       0.50000000 </v>
   <v>       0.83333104       0.16666893       0.33333107 </v>
   <v>       0.00000000       0.33333107       0.33333107 </v>
   <v>       0.00000000       0.50000000       0.50000000 </v>
   <v>       0.16666893       0.33333107       0.50000000 </v>
   <v>       0.16666893       0.50000000       0.33333107 </v>
   <v>       0.33333107       0.33333107       0.33333107 </v>
   <v>       0.33333106       0.50000000       0.50000000 </v>
   <v>       0.50000000       0.33333106       0.50000000 </v>
   <v>       0.50000000       0.50000000       0.33333106 </v>
   <v>       0.66666896       0.33333107       0.33333107 </v>
   <v>       0.66666897       0.50000000       0.50000000 </v>
   <v>       0.83333104       0.33333107       0.50000000 </v>
   <v>       0.83333104       0.50000000       0.33333107 </v>
   <v>       0.00000000       0.66666896       0.33333107 </v>
   <v>       0.00000000       0.83333103       0.50000000 </v>
   <v>       0.16666893       0.66666896       0.50000000 </v>
   <v>       0.16666893       0.83333104       0.33333107 </v>
   <v>       0.33333107       0.66666896       0.33333107 </v>
   <v>       0.33333107       0.83333104       0.50000000 </v>
   <v>       0.50000000       0.66666897       0.50000000 </v>
   <v>       0.50000000       0.83333104       0.33333107 </v>
   <v>       0.66666896       0.66666896       0.33333107 </v>
   <v>       0.66666896       0.83333104       0.50000000 </v>
   <v>       0.83333104       0.66666896       0.50000000 </v>
   <v>       0.83333104       0.83333104       0.33333107 </v>
   <v>       0.00000000       0.00000000       0.66666897 </v>
   <v>       0.00000000       0.16666893       0.83333104 </v>
   <v>       0.16666893       0.00000000       0.83333104 </v>
   <v>       0.16666893       0.16666893       0.66666896 </v>
   <v>       0.33333107       0.00000000       0.66666896 </v>
   <v>       0.33333107       0.16666893       0.83333104 </v>
   <v>       0.50000000       0.00000000       0.83333103 </v>
   <v>       0.50000000       0.16666893       0.66666896 </v>
   <v>       0.66666896       0.00000000       0.66666896 </v>
   <v>       0.66666896       0.16666893       0.83333104 </v>
   <v>       0.83333104       0.00000000       0.83333104 </v>
   <v>       0.83333104       0.16666893       0.66666896 </v>
   <v>       0.00000000       0.33333107       0.66666896 </v>
   <v>       0.00000000       0.50000000       0.83333103 </v>
   <v>       0.16666893       0.33333107       0.83333104 </v>
   <v>       0.16666893       0.50000000       0.66666896 </v>
   <v>       0.33333107       0.33333107       0.66666896 </v>
   <v>       0.33333107       0.50000000       0.83333104 </v>
   <v>       0.50000000       0.33333107       0.83333104 </v>
   <v>       0.50000000       0.50000000       0.66666897 </v>
   <v>       0.66666896       0.33333107       0.66666896 </v>
   <v>       0.66666896       0.50000000       0.83333104 </v>
   <v>       0.83333104       0.33333107       0.83333104 </v>
   <v>       0.83333104       0.50000000       0.66666896 </v>
   <v>       0.00000000       0.66666896       0.66666896 </v>
   <v>       0.00000000       0.83333104       0.83333104 </v>
   <v>       0.16666893       0.66666896       0.83333104 </v>
   <v>       0.16666893       0.83333104       0.66666896 </v>
   <v>       0.33333107       0.66666896       0.66666896 </v>
   <v>       0.33333107       0.83333104       0.83333104 </v>
   <v>       0.50000000       0.66666896       0.83333104 </v>
   <v>       0.50000000       0.83333104       0.66666896 </v>
   <v>       0.66666896       0.66666896       0.66666896 </v>
   <v>       0.66666896       0.83333104       0.83333104 </v>
   <v>       0.83333104       0.66666896       0.83333104 </v>
   <v>       0.83333104       0.83333104       0.66666896 </v>
  </varray>
 </structure>
 <calculation>
  <scstep>
   <time name="dav">   46.08   46.10</time>
   <time name="total">   46.43   46.45</time>
   <energy>
    <i name="alphaZ">   7300.31925852 </i>
    <i name="ewald"> -66232.83996889 </i>
    <i name="hartreedc"> -11197.02572337 </i>
    <i name="XCdc">    446.63038354 </i>
    <i name="pawpsdc">  51723.88885462 </i>
    <i name="pawaedc"> -52548.28121372 </i>
    <i name="eentropy">     -0.01468557 </i>
    <i name="bandstr">  15123.59116090 </i>
    <i name="atom">  64202.35923177 </i>
    <i name="e_fr_energy">   8818.62729781 </i>
    <i name="e_wo_entrp">   8818.64198337 </i>
    <i name="e_0_energy">   8818.63219299 </i>
   </energy>
  </scstep>
  <scstep>
   <time name="dav">   46.27   46.27</time>
   <time name="total">   46.27   46.27</time>
   <energy>
    <i name="e_fr_energy">    199.62342164 </i>
    <i name="e_wo_entrp">    199.60061457 </i>
    <i name="e_0_energy">    199.61581928 </i>
   </energy>
  </scstep>
  <scstep>
   <time name="dav">   46.21   46.20</time>
   <time name="total">   46.21   46.21</time>
   <energy>
    <i name="e_fr_energy">   -824.27480530 </i>
    <i name="e_wo_entrp">   -824.28439400 </i>
    <i name="e_0_energy">   -824.27800153 </i>
   </energy>
  </scstep>
  <scstep>
   <time name="dav">   75.31   75.30</time>
   <time name="total">   75.31   75.31</time>
   <energy>
    <i name="e_fr_energy">  -1027.12626169 </i>
    <i name="e_wo_entrp">  -1027.08210500 </i>
    <i name="e_0_energy">  -1027.11154279 </i>
   </energy>
  </scstep>
  <scstep>
   <time name="dav">   68.22   68.21</time>
   <time name="total">   70.71   70.71</time>
   <energy>
    <i name="e_fr_energy">  -1045.07609274 </i>
    <i name="e_wo_entrp">  -1044.97537272 </i>
    <i name="e_0_energy">  -1045.04251940 </i>
   </energy>
  </scstep>
  <scstep>
   <time name="diag">    6.51    6.51</time>
   <time name="diis">   23.95   23.95</time>
   <time name="orth">    1.62    1.61</time>
   <time name="total">   35.03   35.03</time>
   <energy>
    <i name="e_fr_energy">   -877.22858039 </i>
    <i name="e_wo_entrp">   -877.16813255 </i>
    <i name="e_0_energy">   -877.20843111 </i>
   </energy>
  </scstep>
  <scstep>
   <time name="diag">    6.76    6.76</time>
   <time name="diis">   26.46   26.46</time>
   <time name="orth">    1.61    1.61</time>
   <time name="total">   37.80   37.80</time>
   <energy>
    <i name="e_fr_energy">   -880.22713042 </i>
    <i name="e_wo_entrp">   -880.08604550 </i>
    <i name="e_0_energy">   -880.18010211 </i>
   </energy>
  </scstep>
  <scstep>
   <time name="diag">    6.76    6.76</time>
   <time name="diis">   25.86   25.86</time>
   <time name="orth">    1.62    1.62</time>
   <time name="total">   37.21   37.21</time>
   <energy>
    <i name="e_fr_energy">   -879.33494068 </i>
    <i name="e_wo_entrp">   -879.26258586 </i>
    <i name="e_0_energy">   -879.31082241 </i>
   </energy>
  </scstep>
  <scstep>
   <time name="diag">    6.76    6.76</time>
   <time name="diis">   33.70   33.70</time>
   <time name="orth">    1.62    1.62</time>
   <time name="total">   45.04   45.04</time>
   <energy>
    <i name="e_fr_energy">   -879.71212243 </i>
    <i name="e_wo_entrp">   -879.63671036 </i>
    <i name="e_0_energy">   -879.68698508 </i>
   </energy>
  </scstep>
  <scstep>
   <time name="diag">    6.76    6.76</time>
   <time name="diis">   29.34   29.34</time>
   <time name="orth">    1.61    1.61</time>
   <time name="total">   40.68   40.68</time>
   <energy>
    <i name="e_fr_energy">   -879.52098356 </i>
    <i name="e_wo_entrp">   -879.43600036 </i>
    <i name="e_0_energy">   -879.49265582 </i>
   </energy>
  </scstep>
  <scstep>
   <time name="diag">    6.75    6.75</time>
   <time name="diis">   30.28   30.28</time>
   <time name="orth">    1.62    1.62</time>
   <time name="total">   41.59   41.59</time>
   <energy>
    <i name="e_fr_energy">   -879.52701174 </i>
    <i name="e_wo_entrp">   -879.44651876 </i>
    <i name="e_0_energy">   -879.50018075 </i>
   </energy>
  </scstep>
  <scstep>
   <time name="diag">    6.75    6.75</time>
   <time name="diis">   29.91   29.90</time>
   <time name="orth">    1.62    1.62</time>
   <time name="total">   41.23   41.23</time>
   <energy>
    <i name="e_fr_energy">   -879.52671523 </i>
    <i name="e_wo_entrp">   -879.44905079 </i>
    <i name="e_0_energy">   -879.50082709 </i>
   </energy>
  </scstep>
  <scstep>
   <time name="diag">    6.74    6.74</time>
   <time name="diis">   35.45   35.45</time>
   <time name="orth">    1.61    1.61</time>
   <time name="total">   46.76   46.76</time>
   <energy>
    <i name="e_fr_energy">   -879.52710826 </i>
    <i name="e_wo_entrp">   -879.45061027 </i>
    <i name="e_0_energy">   -879.50160893 </i>
   </energy>
  </scstep>
  <scstep>
   <time name="diag">    6.74    6.74</time>
   <time name="diis">   35.46   35.46</time>
   <time name="orth">    1.61    1.61</time>
   <time name="total">   46.75   46.75</time>
   <energy>
    <i name="e_fr_energy">   -879.52712107 </i>
    <i name="e_wo_entrp">   -879.45117804 </i>
    <i name="e_0_energy">   -879.50180673 </i>
   </energy>
  </scstep>
  <scstep>
   <time name="diag">    6.74    6.74</time>
   <time name="diis">   27.95   27.95</time>
   <time name="orth">    1.61    1.61</time>
   <time name="total">   39.27   39.27</time>
   <energy>
    <i name="e_fr_energy">   -879.52704252 </i>
    <i name="e_wo_entrp">   -879.45180191 </i>
    <i name="e_0_energy">   -879.50196231 </i>
   </energy>
  </scstep>
  <scstep>
   <time name="diag">    6.73    6.73</time>
   <time name="diis">   29.25   29.25</time>
   <time name="orth">    1.61    1.61</time>
   <time name="total">   40.57   40.57</time>
   <energy>
    <i name="e_fr_energy">   -879.52699031 </i>
    <i name="e_wo_entrp">   -879.45228741 </i>
    <i name="e_0_energy">   -879.50208935 </i>
   </energy>
  </scstep>
  <scstep>
   <time name="diag">    6.73    6.73</time>
   <time name="diis">   18.30   18.30</time>
   <time name="orth">    1.59    1.59</time>
   <time name="total">   29.43   29.43</time>
   <energy>
    <i name="e_fr_energy">   -879.52695115 </i>
    <i name="e_wo_entrp">   -879.45270970 </i>
    <i name="e_0_energy">   -879.50220400 </i>
   </energy>
  </scstep>
  <scstep>
   <time name="diag">    6.46    6.46</time>
   <time name="diis">   17.23   17.23</time>
   <time name="orth">    1.60    1.60</time>
   <time name="total">   28.16   28.16</time>
   <energy>
    <i name="e_fr_energy">   -879.52692637 </i>
    <i name="e_wo_entrp">   -879.45296632 </i>
    <i name="e_0_energy">   -879.50227302 </i>
   </energy>
  </scstep>
  <scstep>
   <time name="diag">    6.42    6.42</time>
   <time name="diis">   16.56   16.56</time>
   <time name="orth">    1.60    1.60</time>
   <time name="total">   27.49   27.49</time>
   <energy>
    <i name="e_fr_energy">   -879.52690825 </i>
    <i name="e_wo_entrp">   -879.45316328 </i>
    <i name="e_0_energy">   -879.50232659 </i>
   </energy>
  </scstep>
  <scstep>
   <time name="diag">    6.57    6.57</time>
   <time name="diis">   16.22   16.22</time>
   <time name="orth">    1.59    1.59</time>
   <time name="total">   27.31   27.31</time>
   <energy>
    <i name="e_fr_energy">   -879.52689281 </i>
    <i name="e_wo_entrp">   -879.45334766 </i>
    <i name="e_0_energy">   -879.50237776 </i>
   </energy>
  </scstep>
  <scstep>
   <time name="diag">    6.61    6.61</time>
   <time name="diis">   15.71   15.71</time>
   <time name="orth">    1.61    1.61</time>
   <time name="total">   26.86   26.85</time>
   <energy>
    <i name="e_fr_energy">   -879.52687933 </i>
    <i name="e_wo_entrp">   -879.45350830 </i>
    <i name="e_0_energy">   -879.50242232 </i>
   </energy>
  </scstep>
  <scstep>
   <time name="diag">    6.66    6.66</time>
   <time name="diis">   14.95   14.95</time>
   <time name="orth">    1.60    1.60</time>
   <time name="total">   26.15   26.15</time>
   <energy>
    <i name="e_fr_energy">   -879.52686706 </i>
    <i name="e_wo_entrp">   -879.45365792 </i>
    <i name="e_0_energy">   -879.50246401 </i>
   </energy>
  </scstep>
  <scstep>
   <time name="diag">    6.69    6.69</time>
   <time name="diis">   14.60   14.60</time>
   <time name="orth">    1.61    1.61</time>
   <time name="total">   25.84   25.84</time>
   <energy>
    <i name="e_fr_energy">   -879.52684407 </i>
    <i name="e_wo_entrp">   -879.45391404 </i>
    <i name="e_0_energy">   -879.50253406 </i>
   </energy>
  </scstep>
  <scstep>
   <time name="diag">    6.66    6.66</time>
   <time name="diis">   13.38   13.38</time>
   <time name="orth">    1.60    1.60</time>
   <time name="total">   24.58   24.58</time>
   <energy>
    <i name="e_fr_energy">   -879.52683215 </i>
    <i name="e_wo_entrp">   -879.45405377 </i>
    <i name="e_0_energy">   -879.50257269 </i>
   </energy>
  </scstep>
  <scstep>
   <time name="diag">    6.67    6.67</time>
   <time name="diis">   13.34   13.34</time>
   <time name="orth">    1.59    1.59</time>
   <time name="total">   24.47   24.47</time>
   <energy>
    <i name="e_fr_energy">   -879.52682327 </i>
    <i name="e_wo_entrp">   -879.45416236 </i>
    <i name="e_0_energy">   -879.50260296 </i>
   </energy>
  </scstep>
  <scstep>
   <time name="diag">    6.63    6.63</time>
   <time name="diis">   12.81   12.81</time>
   <time name="orth">    1.59    1.59</time>
   <time name="total">   23.87   23.87</time>
   <energy>
    <i name="e_fr_energy">   -879.52681561 </i>
    <i name="e_wo_entrp">   -879.45425765 </i>
    <i name="e_0_energy">   -879.50262962 </i>
   </energy>
  </scstep>
  <scstep>
   <time name="diag">    6.60    6.60</time>
   <time name="diis">   12.89   12.89</time>
   <time name="orth">    1.56    1.56</time>
   <time name="total">   23.88   23.88</time>
   <energy>
    <i name="e_fr_energy">   -879.52680034 </i>
    <i name="e_wo_entrp">   -879.45443024 </i>
    <i name="e_0_energy">   -879.50267698 </i>
   </energy>
  </scstep>
  <scstep>
   <time name="diag">    6.59    6.59</time>
   <time name="diis">   12.65   12.65</time>
   <time name="orth">    1.52    1.52</time>
   <time name="total">   23.60   23.60</time>
   <energy>
    <i name="e_fr_energy">   -879.52679315 </i>
    <i name="e_wo_entrp">   -879.45451751 </i>
    <i name="e_0_energy">   -879.50270127 </i>
   </energy>
  </scstep>
  <scstep>
   <time name="diag">    6.51    6.50</time>
   <time name="diis">   12.41   12.41</time>
   <time name="orth">    1.57    1.57</time>
   <time name="total">   23.26   23.26</time>
   <energy>
    <i name="e_fr_energy">   -879.52678810 </i>
    <i name="e_wo_entrp">   -879.45458279 </i>
    <i name="e_0_energy">   -879.50271966 </i>
   </energy>
  </scstep>
  <scstep>
   <time name="diag">    6.49    6.49</time>
   <time name="diis">   12.35   12.35</time>
   <time name="orth">    1.59    1.59</time>
   <time name="total">   23.25   23.25</time>
   <energy>
    <i name="e_fr_energy">   -879.52678371 </i>
    <i name="e_wo_entrp">   -879.45464072 </i>
    <i name="e_0_energy">   -879.50273605 </i>
   </energy>
  </scstep>
  <scstep>
   <time name="diag">    6.39    6.39</time>
   <time name="diis">   12.06   12.06</time>
   <time name="orth">    1.61    1.61</time>
   <time name="total">   22.88   22.87</time>
   <energy>
    <i name="e_fr_energy">   -879.52677975 </i>
    <i name="e_wo_entrp">   -879.45469336 </i>
    <i name="e_0_energy">   -879.50275096 </i>
   </energy>
  </scstep>
  <scstep>
   <time name="diag">    6.42    6.42</time>
   <time name="diis">   11.71   11.71</time>
   <time name="orth">    1.60    1.60</time>
   <time name="total">   22.62   22.63</time>
   <energy>
    <i name="e_fr_energy">   -879.52677611 </i>
    <i name="e_wo_entrp">   -879.45474187 </i>
    <i name="e_0_energy">   -879.50276470 </i>
   </energy>
  </scstep>
  <scstep>
   <time name="diag">    6.40    6.40</time>
   <time name="diis">   11.70   11.70</time>
   <time name="orth">    1.61    1.61</time>
   <time name="total">   22.61   22.61</time>
   <energy>
    <i name="e_fr_energy">   -879.52677277 </i>
    <i name="e_wo_entrp">   -879.45478662 </i>
    <i name="e_0_energy">   -879.50277739 </i>
   </energy>
  </scstep>
  <scstep>
   <time name="diag">    6.32    6.32</time>
   <time name="diis">   11.49   11.49</time>
   <time name="orth">    1.59    1.59</time>
   <time name="total">   22.30   22.30</time>
   <energy>
    <i name="e_fr_energy">   -879.52676970 </i>
    <i name="e_wo_entrp">   -879.45482758 </i>
    <i name="e_0_energy">   -879.50278899 </i>
   </energy>
  </scstep>
  <scstep>
   <time name="diag">    6.32    6.32</time>
   <time name="diis">   12.90   12.90</time>
   <time name="orth">    1.60    1.60</time>
   <time name="total">   23.74   23.74</time>
   <energy>
    <i name="e_fr_energy">   -879.52676686 </i>
    <i name="e_wo_entrp">   -879.45486453 </i>
    <i name="e_0_energy">   -879.50279941 </i>
   </energy>
  </scstep>
  <scstep>
   <time name="diag">    6.11    6.11</time>
   <time name="diis">   11.36   11.36</time>
   <time name="orth">    1.60    1.60</time>
   <time name="total">   21.95   21.95</time>
   <energy>
    <i name="e_fr_energy">   -879.52676422 </i>
    <i name="e_wo_entrp">   -879.45489945 </i>
    <i name="e_0_energy">   -879.50280930 </i>
   </energy>
  </scstep>
  <scstep>
   <time name="diag">    6.18    6.18</time>
   <time name="diis">   11.36   11.36</time>
   <time name="orth">    1.60    1.60</time>
   <time name="total">   22.01   22.01</time>
   <energy>
    <i name="e_fr_energy">   -879.52676181 </i>
    <i name="e_wo_entrp">   -879.45493145 </i>
    <i name="e_0_energy">   -879.50281836 </i>
   </energy>
  </scstep>
  <scstep>
   <time name="diag">    6.21    6.21</time>
   <time name="diis">   11.13   11.13</time>
   <time name="orth">    1.59    1.59</time>
   <time name="total">   21.82   21.82</time>
   <energy>
    <i name="e_fr_energy">   -879.52675959 </i>
    <i name="e_wo_entrp">   -879.45496115 </i>
    <i name="e_0_energy">   -879.50282678 </i>
   </energy>
  </scstep>
  <scstep>
   <time name="diag">    6.31    6.31</time>
   <time name="diis">   11.00   11.00</time>
   <time name="orth">    1.60    1.60</time>
   <time name="total">   21.78   21.78</time>
   <energy>
    <i name="e_fr_energy">   -879.52675757 </i>
    <i name="e_wo_entrp">   -879.45498853 </i>
    <i name="e_0_energy">   -879.50283456 </i>
   </energy>
  </scstep>
  <scstep>
   <time name="diag">    6.26    6.26</time>
   <time name="diis">   10.95   10.95</time>
   <time name="orth">    1.60    1.60</time>
   <time name="total">   21.70   21.69</time>
   <energy>
    <i name="e_fr_energy">   -879.52675571 </i>
    <i name="e_wo_entrp">   -879.45501395 </i>
    <i name="e_0_energy">   -879.50284179 </i>
   </energy>
  </scstep>
  <scstep>
   <time name="diag">    6.39    6.39</time>
   <time name="diis">   10.87   10.86</time>
   <time name="orth">    1.60    1.60</time>
   <time name="total">   21.77   21.77</time>
   <energy>
    <i name="e_fr_energy">   -879.52675402 </i>
    <i name="e_wo_entrp">   -879.45503729 </i>
    <i name="e_0_energy">   -879.50284844 </i>
   </energy>
  </scstep>
  <scstep>
   <time name="diag">    6.42    6.42</time>
   <time name="diis">   10.96   10.96</time>
   <time name="orth">    1.59    1.59</time>
   <time name="total">   21.83   21.83</time>
   <energy>
    <i name="e_fr_energy">   -879.52675247 </i>
    <i name="e_wo_entrp">   -879.45505855 </i>
    <i name="e_0_energy">   -879.50285449 </i>
   </energy>
  </scstep>
  <scstep>
   <time name="diag">    6.37    6.37</time>
   <time name="diis">   10.89   10.89</time>
   <time name="orth">    1.59    1.59</time>
   <time name="total">   21.67   21.67</time>
   <energy>
    <i name="e_fr_energy">   -879.52675105 </i>
    <i name="e_wo_entrp">   -879.45507802 </i>
    <i name="e_0_energy">   -879.50286004 </i>
   </energy>
  </scstep>
  <scstep>
   <time name="diag">    6.46    6.46</time>
   <time name="diis">   10.86   10.86</time>
   <time name="orth">    1.59    1.59</time>
   <time name="total">   21.68   21.68</time>
   <energy>
    <i name="e_fr_energy">   -879.52674975 </i>
    <i name="e_wo_entrp">   -879.45509578 </i>
    <i name="e_0_energy">   -879.50286509 </i>
   </energy>
  </scstep>
  <scstep>
   <time name="diag">    6.39    6.39</time>
   <time name="diis">   10.88   10.88</time>
   <time name="orth">    1.59    1.59</time>
   <time name="total">   21.63   21.63</time>
   <energy>
    <i name="e_fr_energy">   -879.52674856 </i>
    <i name="e_wo_entrp">   -879.45511202 </i>
    <i name="e_0_energy">   -879.50286971 </i>
   </energy>
  </scstep>
  <scstep>
   <time name="diag">    6.52    6.52</time>
   <time name="diis">   10.90   10.90</time>
   <time name="orth">    1.58    1.58</time>
   <time name="total">   21.72   21.72</time>
   <energy>
    <i name="e_fr_energy">   -879.52674747 </i>
    <i name="e_wo_entrp">   -879.45512686 </i>
    <i name="e_0_energy">   -879.50287393 </i>
   </energy>
  </scstep>
  <scstep>
   <time name="diag">    6.43    6.43</time>
   <time name="diis">   10.89   10.89</time>
   <time name="orth">    1.57    1.57</time>
   <time name="total">   19.24   19.24</time>
   <energy>
    <i name="alphaZ">   7300.31925852 </i>
    <i name="ewald"> -66232.83996889 </i>
    <i name="hartreedc">  -9348.97766737 </i>
    <i name="XCdc">    360.35593419 </i>
    <i name="pawpsdc">  58035.76394531 </i>
    <i name="pawaedc"> -58971.61178111 </i>
    <i name="eentropy">     -0.07160605 </i>
    <i name="bandstr">   3775.17590715 </i>
    <i name="atom">  64202.35923177 </i>
    <i name="e_fr_energy">   -879.52674649 </i>
    <i name="e_wo_entrp">   -879.45514043 </i>
    <i name="e_0_energy">   -879.50287780 </i>
   </energy>
  </scstep>
  <structure>
   <crystal>
    <varray name="basis" >
     <v>      10.33484705       0.00000000       0.00000000 </v>
     <v>       0.00000000      10.33484705       0.00000000 </v>
     <v>       0.00000000       0.00000000      10.33484705 </v>
    </varray>
    <i name="volume">   1103.85533447 </i>
    <varray name="rec_basis" >
     <v>       0.09676002       0.00000000       0.00000000 </v>
     <v>       0.00000000       0.09676002       0.00000000 </v>
     <v>       0.00000000       0.00000000       0.09676002 </v>
    </varray>
   </crystal>
   <varray name="positions" >
    <v>       0.00000000       0.00000000       0.00000000 </v>
    <v>       0.00000000       0.16666893       0.16666893 </v>
    <v>       0.16666893       0.00000000       0.16666893 </v>
    <v>       0.16666893       0.16666893       0.00000000 </v>
    <v>       0.33333106       0.00000000       0.00000000 </v>
    <v>       0.33333107       0.16666893       0.16666893 </v>
    <v>       0.50000000       0.00000000       0.16666894 </v>
    <v>       0.50000000       0.16666894       0.00000000 </v>
    <v>       0.66666897       0.00000000       0.00000000 </v>
    <v>       0.66666896       0.16666893       0.16666893 </v>
    <v>       0.83333104       0.00000000       0.16666893 </v>
    <v>       0.83333104       0.16666893       0.00000000 </v>
    <v>       0.00000000       0.33333106       0.00000000 </v>
    <v>       0.00000000       0.50000000       0.16666894 </v>
    <v>       0.16666893       0.33333107       0.16666893 </v>
    <v>       0.16666894       0.50000000       0.00000000 </v>
    <v>       0.33333107       0.33333107       0.00000000 </v>
    <v>       0.33333107       0.50000000       0.16666893 </v>
    <v>       0.50000000       0.33333107       0.16666893 </v>
    <v>       0.50000000       0.50000000       0.00000000 </v>
    <v>       0.66666896       0.33333107       0.00000000 </v>
    <v>       0.66666896       0.50000000       0.16666893 </v>
    <v>       0.83333104       0.33333107       0.16666893 </v>
    <v>       0.83333103       0.50000000       0.00000000 </v>
    <v>       0.00000000       0.66666897       0.00000000 </v>
    <v>       0.00000000       0.83333104       0.16666893 </v>
    <v>       0.16666893       0.66666896       0.16666893 </v>
    <v>       0.16666893       0.83333104       0.00000000 </v>
    <v>       0.33333107       0.66666896       0.00000000 </v>
    <v>       0.33333107       0.83333104       0.16666893 </v>
    <v>       0.50000000       0.66666896       0.16666893 </v>
    <v>       0.50000000       0.83333103       0.00000000 </v>
    <v>       0.66666896       0.66666896       0.00000000 </v>
    <v>       0.66666896       0.83333104       0.16666893 </v>
    <v>       0.83333104       0.66666896       0.16666893 </v>
    <v>       0.83333104       0.83333104       0.00000000 </v>
    <v>       0.00000000       0.00000000       0.33333106 </v>
    <v>       0.00000000       0.16666894       0.50000000 </v>
    <v>       0.16666894       0.00000000       0.50000000 </v>
    <v>       0.16666893       0.16666893       0.33333107 </v>
    <v>       0.33333107       0.00000000       0.33333107 </v>
    <v>       0.33333107       0.16666893       0.50000000 </v>
    <v>       0.50000000       0.00000000       0.50000000 </v>
    <v>       0.50000000       0.16666893       0.33333107 </v>
    <v>       0.66666896       0.00000000       0.33333107 </v>
    <v>       0.66666896       0.16666893       0.50000000 </v>
    <v>       0.83333103       0.00000000       0.50000000 </v>
    <v>       0.83333104       0.16666893       0.33333107 </v>
    <v>       0.00000000       0.33333107       0.33333107 </v>
    <v>       0.00000000       0.50000000       0.50000000 </v>
    <v>       0.16666893       0.33333107       0.50000000 </v>
    <v>       0.16666893       0.50000000       0.33333107 </v>
    <v>       0.33333107       0.33333107       0.33333107 </v>
    <v>       0.33333106       0.50000000       0.50000000 </v>
    <v>       0.50000000       0.33333106       0.50000000 </v>
    <v>       0.50000000       0.50000000       0.33333106 </v>
    <v>       0.66666896       0.33333107       0.33333107 </v>
    <v>       0.66666897       0.50000000       0.50000000 </v>
    <v>       0.83333104       0.33333107       0.50000000 </v>
    <v>       0.83333104       0.50000000       0.33333107 </v>
    <v>       0.00000000       0.66666896       0.33333107 </v>
    <v>       0.00000000       0.83333103       0.50000000 </v>
    <v>       0.16666893       0.66666896       0.50000000 </v>
    <v>       0.16666893       0.83333104       0.33333107 </v>
    <v>       0.33333107       0.66666896       0.33333107 </v>
    <v>       0.33333107       0.83333104       0.50000000 </v>
    <v>       0.50000000       0.66666897       0.50000000 </v>
    <v>       0.50000000       0.83333104       0.33333107 </v>
    <v>       0.66666896       0.66666896       0.33333107 </v>
    <v>       0.66666896       0.83333104       0.50000000 </v>
    <v>       0.83333104       0.66666896       0.50000000 </v>
    <v>       0.83333104       0.83333104       0.33333107 </v>
    <v>       0.00000000       0.00000000       0.66666897 </v>
    <v>       0.00000000       0.16666893       0.83333104 </v>
    <v>       0.16666893       0.00000000       0.83333104 </v>
    <v>       0.16666893       0.16666893       0.66666896 </v>
    <v>       0.33333107       0.00000000       0.66666896 </v>
    <v>       0.33333107       0.16666893       0.83333104 </v>
    <v>       0.50000000       0.00000000       0.83333103 </v>
    <v>       0.50000000       0.16666893       0.66666896 </v>
    <v>       0.66666896       0.00000000       0.66666896 </v>
    <v>       0.66666896       0.16666893       0.83333104 </v>
    <v>       0.83333104       0.00000000       0.83333104 </v>
    <v>       0.83333104       0.16666893       0.66666896 </v>
    <v>       0.00000000       0.33333107       0.66666896 </v>
    <v>       0.00000000       0.50000000       0.83333103 </v>
    <v>       0.16666893       0.33333107       0.83333104 </v>
    <v>       0.16666893       0.50000000       0.66666896 </v>
    <v>       0.33333107       0.33333107       0.66666896 </v>
    <v>       0.33333107       0.50000000       0.83333104 </v>
    <v>       0.50000000       0.33333107       0.83333104 </v>
    <v>       0.50000000       0.50000000       0.66666897 </v>
    <v>       0.66666896       0.33333107       0.66666896 </v>
    <v>       0.66666896       0.50000000       0.83333104 </v>
    <v>       0.83333104       0.33333107       0.83333104 </v>
    <v>       0.83333104       0.50000000       0.66666896 </v>
    <v>       0.00000000       0.66666896       0.66666896 </v>
    <v>       0.00000000       0.83333104       0.83333104 </v>
    <v>       0.16666893       0.66666896       0.83333104 </v>
    <v>       0.16666893       0.83333104       0.66666896 </v>
    <v>       0.33333107       0.66666896       0.66666896 </v>
    <v>       0.33333107       0.83333104       0.83333104 </v>
    <v>       0.50000000       0.66666896       0.83333104 </v>
    <v>       0.50000000       0.83333104       0.66666896 </v>
    <v>       0.66666896       0.66666896       0.66666896 </v>
    <v>       0.66666896       0.83333104       0.83333104 </v>
    <v>       0.83333104       0.66666896       0.83333104 </v>
    <v>       0.83333104       0.83333104       0.66666896 </v>
   </varray>
  </structure>
  <varray name="forces" >
   <v>       0.00000000       0.00000000      -0.00000000 </v>
   <v>      -0.00000000       0.00000000       0.00000000 </v>
   <v>      -0.00000000       0.00000000      -0.00000000 </v>
   <v>       0.00000000      -0.00000000       0.00000000 </v>
   <v>      -0.00000000      -0.00000000       0.00000000 </v>
   <v>       0.00000000       0.00000000       0.00000000 </v>
   <v>      -0.00000000      -0.00000000      -0.00000000 </v>
   <v>       0.00000000       0.00000000      -0.00000000 </v>
   <v>       0.00000000       0.00000000      -0.00000000 </v>
   <v>      -0.00000000      -0.00000000       0.00000000 </v>
   <v>       0.00000000       0.00000000      -0.00000000 </v>
   <v>       0.00000000       0.00000000       0.00000000 </v>
   <v>      -0.00000000       0.00000000      -0.00000000 </v>
   <v>      -0.00000000      -0.00000000       0.00000000 </v>
   <v>      -0.00000000       0.00000000       0.00000000 </v>
   <v>       0.00000000      -0.00000000       0.00000000 </v>
   <v>      -0.00000000       0.00000000      -0.00000000 </v>
   <v>       0.00000000       0.00000000      -0.00000000 </v>
   <v>      -0.00000000       0.00000000       0.00000000 </v>
   <v>      -0.00000000      -0.00000000      -0.00000000 </v>
   <v>       0.00000000       0.00000000      -0.00000000 </v>
   <v>       0.00000000      -0.00000000       0.00000000 </v>
   <v>      -0.00000000       0.00000000       0.00000000 </v>
   <v>       0.00000000      -0.00000000       0.00000000 </v>
   <v>      -0.00000000       0.00000000       0.00000000 </v>
   <v>      -0.00000000       0.00000000       0.00000000 </v>
   <v>       0.00000000      -0.00000000       0.00000000 </v>
   <v>       0.00000000       0.00000000       0.00000000 </v>
   <v>      -0.00000000      -0.00000000       0.00000000 </v>
   <v>      -0.00000000      -0.00000000       0.00000000 </v>
   <v>       0.00000000      -0.00000000       0.00000000 </v>
   <v>      -0.00000000      -0.00000000       0.00000000 </v>
   <v>      -0.00000000      -0.00000000      -0.00000000 </v>
   <v>       0.00000000      -0.00000000       0.00000000 </v>
   <v>      -0.00000000      -0.00000000       0.00000000 </v>
   <v>       0.00000000       0.00000000      -0.00000000 </v>
   <v>      -0.00000000       0.00000000       0.00000000 </v>
   <v>      -0.00000000       0.00000000       0.00000000 </v>
   <v>       0.00000000      -0.00000000       0.00000000 </v>
   <v>      -0.00000000      -0.00000000      -0.00000000 </v>
   <v>      -0.00000000       0.00000000      -0.00000000 </v>
   <v>      -0.00000000      -0.00000000       0.00000000 </v>
   <v>      -0.00000000      -0.00000000       0.00000000 </v>
   <v>       0.00000000       0.00000000       0.00000000 </v>
   <v>       0.00000000      -0.00000000       0.00000000 </v>
   <v>       0.00000000       0.00000000      -0.00000000 </v>
   <v>       0.00000000      -0.00000000      -0.00000000 </v>
   <v>      -0.00000000      -0.00000000      -0.00000000 </v>
   <v>      -0.00000000      -0.00000000       0.00000000 </v>
   <v>       0.00000000      -0.00000000       0.00000000 </v>
   <v>       0.00000000       0.00000000       0.00000000 </v>
   <v>      -0.00000000       0.00000000       0.00000000 </v>
   <v>      -0.00000000       0.00000000       0.00000000 </v>
   <v>      -0.00000000      -0.00000000       0.00000000 </v>
   <v>      -0.00000000       0.00000000       0.00000000 </v>
   <v>      -0.00000000      -0.00000000       0.00000000 </v>
   <v>       0.00000000       0.00000000      -0.00000000 </v>
   <v>      -0.00000000      -0.00000000       0.00000000 </v>
   <v>       0.00000000       0.00000000       0.00000000 </v>
   <v>      -0.00000000       0.00000000      -0.00000000 </v>
   <v>      -0.00000000       0.00000000      -0.00000000 </v>
   <v>      -0.00000000       0.00000000       0.00000000 </v>
   <v>       0.00000000      -0.00000000       0.00000000 </v>
   <v>      -0.00000000      -0.00000000       0.00000000 </v>
   <v>      -0.00000000      -0.00000000       0.00000000 </v>
   <v>      -0.00000000      -0.00000000       0.00000000 </v>
   <v>       0.00000000       0.00000000       0.00000000 </v>
   <v>      -0.00000000       0.00000000      -0.00000000 </v>
   <v>      -0.00000000      -0.00000000      -0.00000000 </v>
   <v>       0.00000000      -0.00000000       0.00000000 </v>
   <v>      -0.00000000       0.00000000       0.00000000 </v>
   <v>      -0.00000000      -0.00000000       0.00000000 </v>
   <v>      -0.00000000       0.00000000      -0.00000000 </v>
   <v>       0.00000000       0.00000000      -0.00000000 </v>
   <v>      -0.00000000       0.00000000      -0.00000000 </v>
   <v>       0.00000000      -0.00000000       0.00000000 </v>
   <v>      -0.00000000      -0.00000000       0.00000000 </v>
   <v>      -0.00000000       0.00000000      -0.00000000 </v>
   <v>      -0.00000000      -0.00000000      -0.00000000 </v>
   <v>       0.00000000       0.00000000      -0.00000000 </v>
   <v>      -0.00000000       0.00000000      -0.00000000 </v>
   <v>       0.00000000       0.00000000      -0.00000000 </v>
   <v>       0.00000000       0.00000000      -0.00000000 </v>
   <v>      -0.00000000      -0.00000000       0.00000000 </v>
   <v>      -0.00000000      -0.00000000      -0.00000000 </v>
   <v>      -0.00000000      -0.00000000      -0.00000000 </v>
   <v>       0.00000000       0.00000000      -0.00000000 </v>
   <v>       0.00000000      -0.00000000       0.00000000 </v>
   <v>       0.00000000       0.00000000      -0.00000000 </v>
   <v>       0.00000000      -0.00000000      -0.00000000 </v>
   <v>      -0.00000000      -0.00000000      -0.00000000 </v>
   <v>      -0.00000000      -0.00000000      -0.00000000 </v>
   <v>      -0.00000000       0.00000000       0.00000000 </v>
   <v>      -0.00000000      -0.00000000      -0.00000000 </v>
   <v>      -0.00000000       0.00000000       0.00000000 </v>
   <v>      -0.00000000       0.00000000       0.00000000 </v>
   <v>      -0.00000000       0.00000000      -0.00000000 </v>
   <v>       0.00000000       0.00000000      -0.00000000 </v>
   <v>       0.00000000      -0.00000000      -0.00000000 </v>
   <v>       0.00000000       0.00000000       0.00000000 </v>
   <v>      -0.00000000       0.00000000       0.00000000 </v>
   <v>      -0.00000000      -0.00000000      -0.00000000 </v>
   <v>       0.00000000      -0.00000000      -0.00000000 </v>
   <v>      -0.00000000       0.00000000      -0.00000000 </v>
   <v>      -0.00000000      -0.00000000       0.00000000 </v>
   <v>       0.00000000       0.00000000       0.00000000 </v>
   <v>      -0.00000000       0.00000000      -0.00000000 </v>
   <v>      -0.00000000       0.00000000      -0.00000000 </v>
  </varray>
  <varray name="stress" >
   <v>       3.67449105      -0.00000000      -0.00000000 </v>
   <v>       0.00000000       3.67449105      -0.00000000 </v>
   <v>       0.00000000       0.00000000       3.67449105 </v>
  </varray>
  <energy>
   <i name="e_fr_energy">   -879.52674649 </i>
   <i name="e_wo_entrp">   -879.50287780 </i>
   <i name="e_0_energy">     -0.07160605 </i>
  </energy>
  <time name="totalsc"> 1525.90 1525.88</time>
 </calculation>
 <calculation>
  <scstep>
   <time name="dav">   50.72   50.72</time>
   <time name="total">   53.47   53.47</time>
   <energy>
    <i name="alphaZ">   7275.60840131 </i>
    <i name="ewald"> -66158.02495834 </i>
    <i name="hartreedc">  -9338.41708561 </i>
    <i name="XCdc">    357.00089709 </i>
    <i name="pawpsdc">  58035.76429836 </i>
    <i name="pawaedc"> -58971.61191719 </i>
    <i name="eentropy">     -0.07964312 </i>
    <i name="bandstr">   3717.78303397 </i>
    <i name="atom">  64202.35923177 </i>
    <i name="e_fr_energy">   -879.61774174 </i>
    <i name="e_wo_entrp">   -879.53809863 </i>
    <i name="e_0_energy">   -879.59119404 </i>
   </energy>
  </scstep>
  <scstep>
   <time name="diag">    6.27    6.27</time>
   <time name="diis">   24.21   24.21</time>
   <time name="orth">    1.52    1.52</time>
   <time name="total">   34.77   34.77</time>
   <energy>
    <i name="e_fr_energy">   -879.52719803 </i>
    <i name="e_wo_entrp">   -879.45946163 </i>
    <i name="e_0_energy">   -879.50461923 </i>
   </energy>
  </scstep>
  <scstep>
   <time name="diag">    6.44    6.44</time>
   <time name="diis">   26.63   26.62</time>
   <time name="orth">    1.49    1.49</time>
   <time name="total">   37.36   37.36</time>
   <energy>
    <i name="e_fr_energy">   -879.52660415 </i>
    <i name="e_wo_entrp">   -879.45799913 </i>
    <i name="e_0_energy">   -879.50373581 </i>
   </energy>
  </scstep>
  <scstep>
   <time name="diag">    6.62    6.62</time>
   <time name="diis">   24.94   24.94</time>
   <time name="orth">    1.55    1.55</time>
   <time name="total">   35.82   35.82</time>
   <energy>
    <i name="e_fr_energy">   -879.52540694 </i>
    <i name="e_wo_entrp">   -879.45508167 </i>
    <i name="e_0_energy">   -879.50196518 </i>
   </energy>
  </scstep>
  <scstep>
   <time name="diag">    6.63    6.62</time>
   <time name="diis">   25.53   25.53</time>
   <time name="orth">    1.59    1.59</time>
   <time name="total">   36.50   36.50</time>
   <energy>
    <i name="e_fr_energy">   -879.52595638 </i>
    <i name="e_wo_entrp">   -879.45587431 </i>
    <i name="e_0_energy">   -879.50259569 </i>
   </energy>
  </scstep>
  <scstep>
   <time name="diag">    6.47    6.47</time>
   <time name="diis">   25.14   25.14</time>
   <time name="orth">    1.59    1.59</time>
   <time name="total">   35.93   35.93</time>
   <energy>
    <i name="e_fr_energy">   -879.52462385 </i>
    <i name="e_wo_entrp">   -879.45572608 </i>
    <i name="e_0_energy">   -879.50165793 </i>
   </energy>
  </scstep>
  <scstep>
   <time name="diag">    6.51    6.51</time>
   <time name="diis">   30.80   30.80</time>
   <time name="orth">    1.53    1.53</time>
   <time name="total">   41.61   41.61</time>
   <energy>
    <i name="e_fr_energy">   -879.52467030 </i>
    <i name="e_wo_entrp">   -879.45569181 </i>
    <i name="e_0_energy">   -879.50167747 </i>
   </energy>
  </scstep>
  <scstep>
   <time name="diag">    6.61    6.61</time>
   <time name="diis">   25.03   25.03</time>
   <time name="orth">    1.55    1.55</time>
   <time name="total">   35.93   35.92</time>
   <energy>
    <i name="e_fr_energy">   -879.52465937 </i>
    <i name="e_wo_entrp">   -879.45557338 </i>
    <i name="e_0_energy">   -879.50163070 </i>
   </energy>
  </scstep>
  <scstep>
   <time name="diag">    6.57    6.57</time>
   <time name="diis">   25.27   25.27</time>
   <time name="orth">    1.60    1.60</time>
   <time name="total">   36.35   36.35</time>
   <energy>
    <i name="e_fr_energy">   -879.52467280 </i>
    <i name="e_wo_entrp">   -879.45548552 </i>
    <i name="e_0_energy">   -879.50161037 </i>
   </energy>
  </scstep>
  <scstep>
   <time name="diag">    6.41    6.41</time>
   <time name="diis">   22.67   22.67</time>
   <time name="orth">    1.56    1.56</time>
   <time name="total">   33.45   33.45</time>
   <energy>
    <i name="e_fr_energy">   -879.52467363 </i>
    <i name="e_wo_entrp">   -879.45547717 </i>
    <i name="e_0_energy">   -879.50160814 </i>
   </energy>
  </scstep>
  <scstep>
   <time name="diag">    6.51    6.51</time>
   <time name="diis">   14.07   14.07</time>
   <time name="orth">    1.55    1.55</time>
   <time name="total">   24.94   24.94</time>
   <energy>
    <i name="e_fr_energy">   -879.52467222 </i>
    <i name="e_wo_entrp">   -879.45548129 </i>
    <i name="e_0_energy">   -879.50160858 </i>
   </energy>
  </scstep>
  <scstep>
   <time name="diag">    6.59    6.59</time>
   <time name="diis">   14.15   14.15</time>
   <time name="orth">    1.52    1.52</time>
   <time name="total">   22.63   22.63</time>
   <energy>
    <i name="alphaZ">   7275.60840131 </i>
    <i name="ewald"> -66158.02495834 </i>
    <i name="hartreedc">  -9375.44336790 </i>
    <i name="XCdc">    359.18678862 </i>
    <i name="pawpsdc">  57945.40231909 </i>
    <i name="pawaedc"> -58879.57534426 </i>
    <i name="eentropy">     -0.06918247 </i>
    <i name="bandstr">   3751.03144002 </i>
    <i name="atom">  64202.35923177 </i>
    <i name="e_fr_energy">   -879.52467216 </i>
    <i name="e_wo_entrp">   -879.45548969 </i>
    <i name="e_0_energy">   -879.50161133 </i>
   </energy>
  </scstep>
  <structure>
   <crystal>
    <varray name="basis" >
     <v>      10.34653424      -0.00000000      -0.00000000 </v>
     <v>       0.00000000      10.34653424      -0.00000000 </v>
     <v>       0.00000000       0.00000000      10.34653424 </v>
    </varray>
    <i name="volume">   1107.60446582 </i>
    <varray name="rec_basis" >
     <v>       0.09665072      -0.00000000      -0.00000000 </v>
     <v>       0.00000000       0.09665072      -0.00000000 </v>
     <v>       0.00000000       0.00000000       0.09665072 </v>
    </varray>
   </crystal>
   <varray name="positions" >
    <v>       0.00000000       0.00000000      -0.00000000 </v>
    <v>      -0.00000000       0.16666893       0.16666893 </v>
    <v>       0.16666893       0.00000000       0.16666893 </v>
    <v>       0.16666893       0.16666893       0.00000000 </v>
    <v>       0.33333106      -0.00000000       0.00000000 </v>
    <v>       0.33333107       0.16666893       0.16666893 </v>
    <v>       0.50000000      -0.00000000       0.16666894 </v>
    <v>       0.50000000       0.16666894      -0.00000000 </v>
    <v>       0.66666897       0.00000000      -0.00000000 </v>
    <v>       0.66666896       0.16666893       0.16666893 </v>
    <v>       0.83333104       0.00000000       0.16666893 </v>
    <v>       0.83333104       0.16666893       0.00000000 </v>
    <v>      -0.00000000       0.33333106      -0.00000000 </v>
    <v>      -0.00000000       0.50000000       0.16666894 </v>
    <v>       0.16666893       0.33333107       0.16666893 </v>
    <v>       0.16666894       0.50000000       0.00000000 </v>
    <v>       0.33333107       0.33333107      -0.00000000 </v>
    <v>       0.33333107       0.50000000       0.16666893 </v>
    <v>       0.50000000       0.33333107       0.16666893 </v>
    <v>       0.50000000       0.50000000      -0.00000000 </v>
    <v>       0.66666896       0.33333107      -0.00000000 </v>
    <v>       0.66666896       0.50000000       0.16666893 </v>
    <v>       0.83333104       0.33333107       0.16666893 </v>
    <v>       0.83333103       0.50000000       0.00000000 </v>
    <v>      -0.00000000       0.66666897       0.00000000 </v>
    <v>      -0.00000000       0.83333104       0.16666893 </v>
    <v>       0.16666893       0.66666896       0.16666893 </v>
    <v>       0.16666893       0.83333104       0.00000000 </v>
    <v>       0.33333107       0.66666896       0.00000000 </v>
    <v>       0.33333107       0.83333104       0.16666893 </v>
    <v>       0.50000000       0.66666896       0.16666893 </v>
    <v>       0.50000000       0.83333103       0.00000000 </v>
    <v>       0.66666896       0.66666896      -0.00000000 </v>
    <v>       0.66666896       0.83333104       0.16666893 </v>
    <v>       0.83333104       0.66666896       0.16666893 </v>
    <v>       0.83333104       0.83333104      -0.00000000 </v>
    <v>      -0.00000000       0.00000000       0.33333106 </v>
    <v>      -0.00000000       0.16666894       0.50000000 </v>
    <v>       0.16666894      -0.00000000       0.50000000 </v>
    <v>       0.16666893       0.16666893       0.33333107 </v>
    <v>       0.33333107       0.00000000       0.33333107 </v>
    <v>       0.33333107       0.16666893       0.50000000 </v>
    <v>       0.50000000      -0.00000000       0.50000000 </v>
    <v>       0.50000000       0.16666893       0.33333107 </v>
    <v>       0.66666896      -0.00000000       0.33333107 </v>
    <v>       0.66666896       0.16666893       0.50000000 </v>
    <v>       0.83333103      -0.00000000       0.50000000 </v>
    <v>       0.83333104       0.16666893       0.33333107 </v>
    <v>      -0.00000000       0.33333107       0.33333107 </v>
    <v>       0.00000000       0.50000000       0.50000000 </v>
    <v>       0.16666893       0.33333107       0.50000000 </v>
    <v>       0.16666893       0.50000000       0.33333107 </v>
    <v>       0.33333107       0.33333107       0.33333107 </v>
    <v>       0.33333106       0.50000000       0.50000000 </v>
    <v>       0.50000000       0.33333106       0.50000000 </v>
    <v>       0.50000000       0.50000000       0.33333106 </v>
    <v>       0.66666896       0.33333107       0.33333107 </v>
    <v>       0.66666897       0.50000000       0.50000000 </v>
    <v>       0.83333104       0.33333107       0.50000000 </v>
    <v>       0.83333104       0.50000000       0.33333107 </v>
    <v>      -0.00000000       0.66666896       0.33333107 </v>
    <v>      -0.00000000       0.83333103       0.50000000 </v>
    <v>       0.16666893       0.66666896       0.50000000 </v>
    <v>       0.16666893       0.83333104       0.33333107 </v>
    <v>       0.33333107       0.66666896       0.33333107 </v>
    <v>       0.33333107       0.83333104       0.50000000 </v>
    <v>       0.50000000       0.66666897       0.50000000 </v>
    <v>       0.50000000       0.83333104       0.33333107 </v>
    <v>       0.66666896       0.66666896       0.33333107 </v>
    <v>       0.66666896       0.83333104       0.50000000 </v>
    <v>       0.83333104       0.66666896       0.50000000 </v>
    <v>       0.83333104       0.83333104       0.33333107 </v>
    <v>      -0.00000000       0.00000000       0.66666897 </v>
    <v>       0.00000000       0.16666893       0.83333104 </v>
    <v>       0.16666893       0.00000000       0.83333104 </v>
    <v>       0.16666893       0.16666893       0.66666896 </v>
    <v>       0.33333107      -0.00000000       0.66666896 </v>
    <v>       0.33333107       0.16666893       0.83333104 </v>
    <v>       0.50000000      -0.00000000       0.83333103 </v>
    <v>       0.50000000       0.16666893       0.66666896 </v>
    <v>       0.66666896       0.00000000       0.66666896 </v>
    <v>       0.66666896       0.16666893       0.83333104 </v>
    <v>       0.83333104       0.00000000       0.83333104 </v>
    <v>       0.83333104       0.16666893       0.66666896 </v>
    <v>      -0.00000000       0.33333107       0.66666896 </v>
    <v>      -0.00000000       0.50000000       0.83333103 </v>
    <v>       0.16666893       0.33333107       0.83333104 </v>
    <v>       0.16666893       0.50000000       0.66666896 </v>
    <v>       0.33333107       0.33333107       0.66666896 </v>
    <v>       0.33333107       0.50000000       0.83333104 </v>
    <v>       0.50000000       0.33333107       0.83333104 </v>
    <v>       0.50000000       0.50000000       0.66666897 </v>
    <v>       0.66666896       0.33333107       0.66666896 </v>
    <v>       0.66666896       0.50000000       0.83333104 </v>
    <v>       0.83333104       0.33333107       0.83333104 </v>
    <v>       0.83333104       0.50000000       0.66666896 </v>
    <v>      -0.00000000       0.66666896       0.66666896 </v>
    <v>       0.00000000       0.83333104       0.83333104 </v>
    <v>       0.16666893       0.66666896       0.83333104 </v>
    <v>       0.16666893       0.83333104       0.66666896 </v>
    <v>       0.33333107       0.66666896       0.66666896 </v>
    <v>       0.33333107       0.83333104       0.83333104 </v>
    <v>       0.50000000       0.66666896       0.83333104 </v>
    <v>       0.50000000       0.83333104       0.66666896 </v>
    <v>       0.66666896       0.66666896       0.66666896 </v>
    <v>       0.66666896       0.83333104       0.83333104 </v>
    <v>       0.83333104       0.66666896       0.83333104 </v>
    <v>       0.83333104       0.83333104       0.66666896 </v>
   </varray>
  </structure>
  <varray name="forces" >
   <v>      -0.00000000       0.00000000       0.00000000 </v>
   <v>      -0.00000000       0.00000000       0.00000000 </v>
   <v>       0.00000000      -0.00000000      -0.00000000 </v>
   <v>       0.00000000      -0.00000000       0.00000000 </v>
   <v>      -0.00000000       0.00000000       0.00000000 </v>
   <v>       0.00000000      -0.00000000      -0.00000000 </v>
   <v>      -0.00000000      -0.00000000      -0.00000000 </v>
   <v>      -0.00000000       0.00000000      -0.00000000 </v>
   <v>       0.00000000      -0.00000000      -0.00000000 </v>
   <v>       0.00000000      -0.00000000       0.00000000 </v>
   <v>       0.00000000       0.00000000       0.00000000 </v>
   <v>       0.00000000      -0.00000000      -0.00000000 </v>
   <v>      -0.00000000      -0.00000000       0.00000000 </v>
   <v>      -0.00000000      -0.00000000       0.00000000 </v>
   <v>      -0.00000000      -0.00000000       0.00000000 </v>
   <v>       0.00000000      -0.00000000       0.00000000 </v>
   <v>       0.00000000      -0.00000000      -0.00000000 </v>
   <v>      -0.00000000       0.00000000      -0.00000000 </v>
   <v>      -0.00000000      -0.00000000      -0.00000000 </v>
   <v>       0.00000000       0.00000000       0.00000000 </v>
   <v>       0.00000000      -0.00000000      -0.00000000 </v>
   <v>       0.00000000       0.00000000       0.00000000 </v>
   <v>       0.00000000       0.00000000       0.00000000 </v>
   <v>       0.00000000      -0.00000000       0.00000000 </v>
   <v>      -0.00000000       0.00000000      -0.00000000 </v>
   <v>      -0.00000000       0.00000000      -0.00000000 </v>
   <v>      -0.00000000       0.00000000       0.00000000 </v>
   <v>       0.00000000       0.00000000      -0.00000000 </v>
   <v>      -0.00000000      -0.00000000      -0.00000000 </v>
   <v>      -0.00000000      -0.00000000      -0.00000000 </v>
   <v>      -0.00000000       0.00000000       0.00000000 </v>
   <v>      -0.00000000       0.00000000      -0.00000000 </v>
   <v>       0.00000000      -0.00000000       0.00000000 </v>
   <v>       0.00000000      -0.00000000      -0.00000000 </v>
   <v>      -0.00000000       0.00000000       0.00000000 </v>
   <v>      -0.00000000       0.00000000       0.00000000 </v>
   <v>      -0.00000000      -0.00000000       0.00000000 </v>
   <v>      -0.00000000      -0.00000000      -0.00000000 </v>
   <v>       0.00000000      -0.00000000      -0.00000000 </v>
   <v>      -0.00000000      -0.00000000      -0.00000000 </v>
   <v>       0.00000000      -0.00000000      -0.00000000 </v>
   <v>      -0.00000000      -0.00000000       0.00000000 </v>
   <v>       0.00000000       0.00000000       0.00000000 </v>
   <v>       0.00000000       0.00000000       0.00000000 </v>
   <v>       0.00000000      -0.00000000      -0.00000000 </v>
   <v>       0.00000000      -0.00000000      -0.00000000 </v>
   <v>      -0.00000000      -0.00000000       0.00000000 </v>
   <v>       0.00000000      -0.00000000       0.00000000 </v>
   <v>      -0.00000000      -0.00000000      -0.00000000 </v>
   <v>      -0.00000000      -0.00000000       0.00000000 </v>
   <v>       0.00000000       0.00000000       0.00000000 </v>
   <v>       0.00000000       0.00000000      -0.00000000 </v>
   <v>      -0.00000000      -0.00000000      -0.00000000 </v>
   <v>      -0.00000000       0.00000000       0.00000000 </v>
   <v>       0.00000000       0.00000000       0.00000000 </v>
   <v>       0.00000000       0.00000000      -0.00000000 </v>
   <v>       0.00000000      -0.00000000      -0.00000000 </v>
   <v>       0.00000000       0.00000000       0.00000000 </v>
   <v>      -0.00000000       0.00000000       0.00000000 </v>
   <v>       0.00000000      -0.00000000      -0.00000000 </v>
   <v>      -0.00000000       0.00000000      -0.00000000 </v>
   <v>      -0.00000000       0.00000000      -0.00000000 </v>
   <v>       0.00000000       0.00000000      -0.00000000 </v>
   <v>      -0.00000000       0.00000000       0.00000000 </v>
   <v>      -0.00000000      -0.00000000       0.00000000 </v>
   <v>      -0.00000000      -0.00000000       0.00000000 </v>
   <v>      -0.00000000       0.00000000       0.00000000 </v>
   <v>       0.00000000       0.00000000      -0.00000000 </v>
   <v>       0.00000000      -0.00000000      -0.00000000 </v>
   <v>       0.00000000       0.00000000       0.00000000 </v>
   <v>       0.00000000       0.00000000       0.00000000 </v>
   <v>       0.00000000       0.00000000       0.00000000 </v>
   <v>      -0.00000000      -0.00000000      -0.00000000 </v>
   <v>      -0.00000000       0.00000000      -0.00000000 </v>
   <v>       0.00000000       0.00000000       0.00000000 </v>
   <v>      -0.00000000       0.00000000      -0.00000000 </v>
   <v>       0.00000000       0.00000000       0.00000000 </v>
   <v>      -0.00000000      -0.00000000       0.00000000 </v>
   <v>      -0.00000000      -0.00000000      -0.00000000 </v>
   <v>      -0.00000000       0.00000000      -0.00000000 </v>
   <v>       0.00000000       0.00000000       0.00000000 </v>
   <v>       0.00000000      -0.00000000      -0.00000000 </v>
   <v>       0.00000000       0.00000000      -0.00000000 </v>
   <v>       0.00000000      -0.00000000      -0.00000000 </v>
[...]
       <r>    -1.7958     2.8015     0.4039 </r>
       <r>    -1.7503     3.3168     0.5547 </r>
       <r>    -1.7049     3.6786     0.7220 </r>
       <r>    -1.6594     3.8667     0.8978 </r>
       <r>    -1.6139     3.9326     1.0766 </r>
       <r>    -1.5685     3.9628     1.2567 </r>
       <r>    -1.5230     4.0349     1.4402 </r>
       <r>    -1.4776     4.1995     1.6311 </r>
       <r>    -1.4321     4.4842     1.8350 </r>
       <r>    -1.3866     4.9001     2.0577 </r>
       <r>    -1.3412     5.4417     2.3052 </r>
       <r>    -1.2957     6.0744     2.5813 </r>
       <r>    -1.2502     6.7083     2.8863 </r>
       <r>    -1.2048     7.1849     3.2130 </r>
       <r>    -1.1593     7.3209     3.5458 </r>
       <r>    -1.1138     7.0159     3.8648 </r>
       <r>    -1.0684     6.3528     4.1536 </r>
       <r>    -1.0229     5.5989     4.4082 </r>
       <r>    -0.9774     5.0922     4.6397 </r>
       <r>    -0.9320     5.0890     4.8710 </r>
       <r>    -0.8865     5.6697     5.1288 </r>
       <r>    -0.8411     6.7420     5.4353 </r>
       <r>    -0.7956     8.1076     5.8040 </r>
       <r>    -0.7501     9.5215     6.2368 </r>
       <r>    -0.7047    10.7068     6.7236 </r>
       <r>    -0.6592    11.3635     7.2403 </r>
       <r>    -0.6137    11.2446     7.7515 </r>
       <r>    -0.5683    10.3074     8.2201 </r>
       <r>    -0.5228     8.8274     8.6215 </r>
       <r>    -0.4773     7.3434     8.9553 </r>
       <r>    -0.4319     6.4286     9.2476 </r>
       <r>    -0.3864     6.4284     9.5399 </r>
       <r>    -0.3409     7.3294     9.8731 </r>
       <r>    -0.2955     8.8151    10.2739 </r>
       <r>    -0.2500    10.4334    10.7482 </r>
       <r>    -0.2045    11.7646    11.2831 </r>
       <r>    -0.1591    12.5285    11.8527 </r>
       <r>    -0.1136    12.6423    12.4275 </r>
       <r>    -0.0682    12.2425    12.9841 </r>
       <r>    -0.0227    11.6459    13.5135 </r>
       <r>     0.0228    11.2217    14.0237 </r>
       <r>     0.0682    11.2207    14.5339 </r>
       <r>     0.1137    11.6648    15.0642 </r>
       <r>     0.1592    12.3753    15.6268 </r>
       <r>     0.2046    13.1079    16.2228 </r>
       <r>     0.2501    13.6844    16.8449 </r>
       <r>     0.2956    14.0356    17.4831 </r>
       <r>     0.3410    14.1570    18.1267 </r>
       <r>     0.3865    14.0505    18.7655 </r>
       <r>     0.4320    13.7123    19.3889 </r>
       <r>     0.4774    13.1704    19.9877 </r>
       <r>     0.5229    12.5418    20.5579 </r>
       <r>     0.5684    12.0730    21.1068 </r>
       <r>     0.6138    12.1203    21.6579 </r>
       <r>     0.6593    13.0190    22.2498 </r>
       <r>     0.7047    14.8612    22.9254 </r>
       <r>     0.7502    17.3179    23.7128 </r>
       <r>     0.7957    19.6930    24.6081 </r>
       <r>     0.8411    21.2538    25.5744 </r>
       <r>     0.8866    21.6448    26.5585 </r>
       <r>     0.9321    21.0746    27.5167 </r>
       <r>     0.9775    20.1129    28.4311 </r>
       <r>     1.0230    19.2482    29.3062 </r>
       <r>     1.0685    18.5713    30.1505 </r>
       <r>     1.1139    17.8577    30.9624 </r>
       <r>     1.1594    16.9721    31.7341 </r>
       <r>     1.2049    16.2251    32.4717 </r>
       <r>     1.2503    16.3373    33.2145 </r>
       <r>     1.2958    18.0032    34.0330 </r>
       <r>     1.3413    21.3731    35.0047 </r>
       <r>     1.3867    25.8188    36.1786 </r>
       <r>     1.4322    30.1257    37.5482 </r>
       <r>     1.4776    32.9896    39.0481 </r>
       <r>     1.5231    33.5735    40.5745 </r>
       <r>     1.5686    31.8956    42.0246 </r>
       <r>     1.6140    28.9057    43.3388 </r>
       <r>     1.6595    26.2234    44.5310 </r>
       <r>     1.7050    25.6348    45.6965 </r>
       <r>     1.7504    28.5186    46.9931 </r>
       <r>     1.7959    35.3903    48.6021 </r>
       <r>     1.8414    45.7288    50.6812 </r>
       <r>     1.8868    58.1770    53.3262 </r>
       <r>     1.9323    71.0534    56.5566 </r>
       <r>     1.9778    82.8997    60.3256 </r>
       <r>     2.0232    92.7429    64.5421 </r>
       <r>     2.0687   100.0055    69.0888 </r>
       <r>     2.1142   104.3433    73.8327 </r>
       <r>     2.1596   105.7262    78.6395 </r>
       <r>     2.2051   104.7231    83.4007 </r>
       <r>     2.2505   102.6187    88.0663 </r>
       <r>     2.2960   101.0665    92.6612 </r>
       <r>     2.3415   101.3803    97.2704 </r>
       <r>     2.3869   103.8941   101.9939 </r>
       <r>     2.4324   107.8297   106.8964 </r>
       <r>     2.4779   111.8368   111.9810 </r>
       <r>     2.5233   114.9336   117.2064 </r>
       <r>     2.5688   117.2217   122.5359 </r>
       <r>     2.6143   119.7921   127.9822 </r>
       <r>     2.6597   123.8199   133.6116 </r>
       <r>     2.7052   129.5632   139.5021 </r>
       <r>     2.7507   136.1386   145.6916 </r>
       <r>     2.7961   142.2834   152.1605 </r>
       <r>     2.8416   147.4102   158.8624 </r>
       <r>     2.8870   151.9843   165.7723 </r>
       <r>     2.9325   156.8874   172.9052 </r>
       <r>     2.9780   162.3615   180.2869 </r>
       <r>     3.0234   167.4995   187.9022 </r>
       <r>     3.0689   170.7604   195.6657 </r>
       <r>     3.1144   171.0768   203.4437 </r>
       <r>     3.1598   168.6132   211.1096 </r>
       <r>     3.2053   164.5597   218.5913 </r>
       <r>     3.2508   160.2321   225.8762 </r>
       <r>     3.2962   156.3485   232.9845 </r>
       <r>     3.3417   153.0696   239.9437 </r>
       <r>     3.3872   150.5418   246.7881 </r>
       <r>     3.4326   149.1730   253.5702 </r>
       <r>     3.4781   149.2611   260.3563 </r>
       <r>     3.5236   150.3955   267.1940 </r>
       <r>     3.5690   151.3506   274.0751 </r>
       <r>     3.6145   150.7056   280.9268 </r>
       <r>     3.6599   147.7381   287.6437 </r>
       <r>     3.7054   142.9335   294.1421 </r>
       <r>     3.7509   137.7841   300.4064 </r>
       <r>     3.7963   133.9930   306.4984 </r>
       <r>     3.8418   132.4945   312.5222 </r>
       <r>     3.8873   132.8361   318.5615 </r>
       <r>     3.9327   133.3987   324.6264 </r>
       <r>     3.9782   132.4941   330.6502 </r>
       <r>     4.0237   129.6899   336.5465 </r>
       <r>     4.0691   126.3460   342.2908 </r>
       <r>     4.1146   124.8047   347.9650 </r>
       <r>     4.1601   126.7732   353.7287 </r>
       <r>     4.2055   132.2129   359.7397 </r>
       <r>     4.2510   139.6795   366.0902 </r>
       <r>     4.2965   147.7348   372.8069 </r>
       <r>     4.3419   156.0250   379.9005 </r>
       <r>     4.3874   164.9749   387.4011 </r>
       <r>     4.4328   174.4834   395.3339 </r>
       <r>     4.4783   183.0368   403.6556 </r>
       <r>     4.5238   188.2276   412.2133 </r>
       <r>     4.5692   188.3056   420.7745 </r>
       <r>     4.6147   183.5258   429.1185 </r>
       <r>     4.6602   176.3764   437.1374 </r>
       <r>     4.7056   170.6634   444.8965 </r>
       <r>     4.7511   169.9993   452.6255 </r>
       <r>     4.7966   176.3185   460.6417 </r>
       <r>     4.8420   188.9713   469.2332 </r>
       <r>     4.8875   204.8532   478.5468 </r>
       <r>     4.9330   219.6745   488.5342 </r>
       <r>     4.9784   229.8242   498.9831 </r>
       <r>     5.0239   233.8206   509.6137 </r>
       <r>     5.0694   232.5799   520.1878 </r>
       <r>     5.1148   228.5531   530.5789 </r>
       <r>     5.1603   224.5001   540.7857 </r>
       <r>     5.2057   222.6858   550.9101 </r>
       <r>     5.2512   224.6734   561.1248 </r>
       <r>     5.2967   231.2579   571.6388 </r>
       <r>     5.3421   242.0441   582.6433 </r>
       <r>     5.3876   254.7994   594.2276 </r>
       <r>     5.4331   265.3920   606.2936 </r>
       <r>     5.4785   269.0461   618.5257 </r>
       <r>     5.5240   262.6218   630.4657 </r>
       <r>     5.5695   246.5191   641.6736 </r>
       <r>     5.6149   224.7355   651.8911 </r>
       <r>     5.6604   202.8248   661.1124 </r>
       <r>     5.7059   185.0483   669.5256 </r>
       <r>     5.7513   172.5932   677.3725 </r>
       <r>     5.7968   163.8940   684.8239 </r>
       <r>     5.8423   156.5592   691.9418 </r>
       <r>     5.8877   149.3838   698.7335 </r>
       <r>     5.9332   143.1118   705.2400 </r>
       <r>     5.9786   139.6799   711.5905 </r>
       <r>     6.0241   140.7192   717.9882 </r>
       <r>     6.0696   146.4064   724.6445 </r>
       <r>     6.1150   155.3086   731.7056 </r>
       <r>     6.1605   165.1473   739.2140 </r>
       <r>     6.2060   173.9436   747.1222 </r>
       <r>     6.2514   180.9271   755.3480 </r>
       <r>     6.2969   186.7274   763.8375 </r>
       <r>     6.3424   192.6667   772.5970 </r>
       <r>     6.3878   199.4888   781.6667 </r>
       <r>     6.4333   206.4211   791.0516 </r>
       <r>     6.4788   211.4661   800.6658 </r>
       <r>     6.5242   212.9050   810.3455 </r>
       <r>     6.5697   210.8160   819.9301 </r>
       <r>     6.6151   207.1738   829.3492 </r>
       <r>     6.6606   204.2518   838.6355 </r>
       <r>     6.7061   202.6338   847.8481 </r>
       <r>     6.7515   200.6328   856.9698 </r>
       <r>     6.7970   195.7636   865.8701 </r>
       <r>     6.8425   187.1143   874.3772 </r>
       <r>     6.8879   176.6079   882.4066 </r>
       <r>     6.9334   168.0327   890.0462 </r>
       <r>     6.9789   164.5667   897.5282 </r>
       <r>     7.0243   166.7479   905.1093 </r>
       <r>     7.0698   172.3937   912.9471 </r>
       <r>     7.1153   178.3251   921.0546 </r>
       <r>     7.1607   182.3974   929.3472 </r>
       <r>     7.2062   184.4012   937.7310 </r>
       <r>     7.2517   185.5823   946.1684 </r>
       <r>     7.2971   187.5757   954.6965 </r>
       <r>     7.3426   191.5770   963.4064 </r>
       <r>     7.3880   197.9005   972.4039 </r>
       <r>     7.4335   205.6316   981.7529 </r>
       <r>     7.4790   212.3097   991.4055 </r>
       <r>     7.5244   214.0461  1001.1370 </r>
       <r>     7.5699   206.5367  1010.5271 </r>
       <r>     7.6154   186.8673  1019.0230 </r>
       <r>     7.6608   155.2771  1026.0826 </r>
       <r>     7.7063   115.7665  1031.3459 </r>
       <r>     7.7518    74.9454  1034.7532 </r>
       <r>     7.7972    39.5661  1036.5521 </r>
       <r>     7.8427    14.0510  1037.1909 </r>
       <r>     7.8882    -0.6750  1037.1602 </r>
       <r>     7.9336    -6.6360  1036.8585 </r>
       <r>     7.9791    -7.1864  1036.5318 </r>
       <r>     8.0246    -5.4156  1036.2856 </r>
       <r>     8.0700    -3.3094  1036.1351 </r>
       <r>     8.1155    -1.7223  1036.0568 </r>
       <r>     8.1609    -0.7802  1036.0213 </r>
       <r>     8.2064    -0.3112  1036.0072 </r>
       <r>     8.2519    -0.1101  1036.0022 </r>
       <r>     8.2973    -0.0347  1036.0006 </r>
       <r>     8.3428    -0.0098  1036.0001 </r>
       <r>     8.3883    -0.0025  1036.0000 </r>
       <r>     8.4337    -0.0006  1036.0000 </r>
       <r>     8.4792    -0.0001  1036.0000 </r>
       <r>     8.5247    -0.0000  1036.0000 </r>
       <r>     8.5701    -0.0000  1036.0000 </r>
       <r>     8.6156    -0.0000  1036.0000 </r>
       <r>     8.6611    -0.0000  1036.0000 </r>
       <r>     8.7065    -0.0000  1036.0000 </r>
       <r>     8.7520    -0.0000  1036.0000 </r>
       <r>     8.7975    -0.0000  1036.0000 </r>
       <r>     8.8429    -0.0000  1036.0000 </r>
       <r>     8.8884    -0.0000  1036.0000 </r>
       <r>     8.9338    -0.0000  1036.0000 </r>
       <r>     8.9793     0.0000  1036.0000 </r>
       <r>     9.0248     0.0000  1036.0000 </r>
       <r>     9.0702     0.0000  1036.0000 </r>
       <r>     9.1157     0.0000  1036.0000 </r>
       <r>     9.1612     0.0000  1036.0000 </r>
       <r>     9.2066     0.0000  1036.0000 </r>
       <r>     9.2521     0.0000  1036.0000 </r>
       <r>     9.2976     0.0000  1036.0000 </r>
       <r>     9.3430     0.0000  1036.0000 </r>
       <r>     9.3885     0.0000  1036.0000 </r>
       <r>     9.4340     0.0000  1036.0000 </r>
       <r>     9.4794     0.0000  1036.0000 </r>
       <r>     9.5249     0.0000  1036.0000 </r>
       <r>     9.5704     0.0000  1036.0000 </r>
       <r>     9.6158     0.0000  1036.0000 </r>
       <r>     9.6613     0.0000  1036.0000 </r>
       <r>     9.7067     0.0000  1036.0000 </r>
      </set>
     </set>
    </array>
   </total>
  </dos>
 </calculation>
 <structure name="finalpos" >
  <crystal>
   <varray name="basis" >
    <v>      10.33963026      -0.00000000      -0.00000000 </v>
    <v>       0.00000000      10.33963026      -0.00000000 </v>
    <v>       0.00000000       0.00000000      10.33963026 </v>
   </varray>
   <i name="volume">   1105.38871668 </i>
   <varray name="rec_basis" >
    <v>       0.09671526      -0.00000000      -0.00000000 </v>
    <v>       0.00000000       0.09671526      -0.00000000 </v>
    <v>       0.00000000       0.00000000       0.09671526 </v>
   </varray>
  </crystal>
  <varray name="positions" >
   <v>       0.00000000       0.00000000      -0.00000000 </v>
   <v>      -0.00000000       0.16666893       0.16666893 </v>
   <v>       0.16666893       0.00000000       0.16666893 </v>
   <v>       0.16666893       0.16666893       0.00000000 </v>
   <v>       0.33333106      -0.00000000       0.00000000 </v>
   <v>       0.33333107       0.16666893       0.16666893 </v>
   <v>       0.50000000      -0.00000000       0.16666894 </v>
   <v>       0.50000000       0.16666894      -0.00000000 </v>
   <v>       0.66666897       0.00000000      -0.00000000 </v>
   <v>       0.66666896       0.16666893       0.16666893 </v>
   <v>       0.83333104       0.00000000       0.16666893 </v>
   <v>       0.83333104       0.16666893       0.00000000 </v>
   <v>      -0.00000000       0.33333106      -0.00000000 </v>
   <v>      -0.00000000       0.50000000       0.16666894 </v>
   <v>       0.16666893       0.33333107       0.16666893 </v>
   <v>       0.16666894       0.50000000       0.00000000 </v>
   <v>       0.33333107       0.33333107      -0.00000000 </v>
   <v>       0.33333107       0.50000000       0.16666893 </v>
   <v>       0.50000000       0.33333107       0.16666893 </v>
   <v>       0.50000000       0.50000000      -0.00000000 </v>
   <v>       0.66666896       0.33333107      -0.00000000 </v>
   <v>       0.66666896       0.50000000       0.16666893 </v>
   <v>       0.83333104       0.33333107       0.16666893 </v>
   <v>       0.83333103       0.50000000       0.00000000 </v>
   <v>      -0.00000000       0.66666897       0.00000000 </v>
   <v>      -0.00000000       0.83333104       0.16666893 </v>
   <v>       0.16666893       0.66666896       0.16666893 </v>
   <v>       0.16666893       0.83333104       0.00000000 </v>
   <v>       0.33333107       0.66666896       0.00000000 </v>
   <v>       0.33333107       0.83333104       0.16666893 </v>
   <v>       0.50000000       0.66666896       0.16666893 </v>
   <v>       0.50000000       0.83333103       0.00000000 </v>
   <v>       0.66666896       0.66666896      -0.00000000 </v>
   <v>       0.66666896       0.83333104       0.16666893 </v>
   <v>       0.83333104       0.66666896       0.16666893 </v>
   <v>       0.83333104       0.83333104      -0.00000000 </v>
   <v>      -0.00000000       0.00000000       0.33333106 </v>
   <v>      -0.00000000       0.16666894       0.50000000 </v>
   <v>       0.16666894      -0.00000000       0.50000000 </v>
   <v>       0.16666893       0.16666893       0.33333107 </v>
   <v>       0.33333107       0.00000000       0.33333107 </v>
   <v>       0.33333107       0.16666893       0.50000000 </v>
   <v>       0.50000000      -0.00000000       0.50000000 </v>
   <v>       0.50000000       0.16666893       0.33333107 </v>
   <v>       0.66666896      -0.00000000       0.33333107 </v>
   <v>       0.66666896       0.16666893       0.50000000 </v>
   <v>       0.83333103      -0.00000000       0.50000000 </v>
   <v>       0.83333104       0.16666893       0.33333107 </v>
   <v>      -0.00000000       0.33333107       0.33333107 </v>
   <v>       0.00000000       0.50000000       0.50000000 </v>
   <v>       0.16666893       0.33333107       0.50000000 </v>
   <v>       0.16666893       0.50000000       0.33333107 </v>
   <v>       0.33333107       0.33333107       0.33333107 </v>
   <v>       0.33333106       0.50000000       0.50000000 </v>
   <v>       0.50000000       0.33333106       0.50000000 </v>
   <v>       0.50000000       0.50000000       0.33333106 </v>
   <v>       0.66666896       0.33333107       0.33333107 </v>
   <v>       0.66666897       0.50000000       0.50000000 </v>
   <v>       0.83333104       0.33333107       0.50000000 </v>
   <v>       0.83333104       0.50000000       0.33333107 </v>
   <v>      -0.00000000       0.66666896       0.33333107 </v>
   <v>      -0.00000000       0.83333103       0.50000000 </v>
   <v>       0.16666893       0.66666896       0.50000000 </v>
   <v>       0.16666893       0.83333104       0.33333107 </v>
   <v>       0.33333107       0.66666896       0.33333107 </v>
   <v>       0.33333107       0.83333104       0.50000000 </v>
   <v>       0.50000000       0.66666897       0.50000000 </v>
   <v>       0.50000000       0.83333104       0.33333107 </v>
   <v>       0.66666896       0.66666896       0.33333107 </v>
   <v>       0.66666896       0.83333104       0.50000000 </v>
   <v>       0.83333104       0.66666896       0.50000000 </v>
   <v>       0.83333104       0.83333104       0.33333107 </v>
   <v>      -0.00000000       0.00000000       0.66666897 </v>
   <v>       0.00000000       0.16666893       0.83333104 </v>
   <v>       0.16666893       0.00000000       0.83333104 </v>
   <v>       0.16666893       0.16666893       0.66666896 </v>
   <v>       0.33333107      -0.00000000       0.66666896 </v>
   <v>       0.33333107       0.16666893       0.83333104 </v>
   <v>       0.50000000      -0.00000000       0.83333103 </v>
   <v>       0.50000000       0.16666893       0.66666896 </v>
   <v>       0.66666896       0.00000000       0.66666896 </v>
   <v>       0.66666896       0.16666893       0.83333104 </v>
   <v>       0.83333104       0.00000000       0.83333104 </v>
   <v>       0.83333104       0.16666893       0.66666896 </v>
   <v>      -0.00000000       0.33333107       0.66666896 </v>
   <v>      -0.00000000       0.50000000       0.83333103 </v>
   <v>       0.16666893       0.33333107       0.83333104 </v>
   <v>       0.16666893       0.50000000       0.66666896 </v>
   <v>       0.33333107       0.33333107       0.66666896 </v>
   <v>       0.33333107       0.50000000       0.83333104 </v>
   <v>       0.50000000       0.33333107       0.83333104 </v>
   <v>       0.50000000       0.50000000       0.66666897 </v>
   <v>       0.66666896       0.33333107       0.66666896 </v>
   <v>       0.66666896       0.50000000       0.83333104 </v>
   <v>       0.83333104       0.33333107       0.83333104 </v>
   <v>       0.83333104       0.50000000       0.66666896 </v>
   <v>      -0.00000000       0.66666896       0.66666896 </v>
   <v>       0.00000000       0.83333104       0.83333104 </v>
   <v>       0.16666893       0.66666896       0.83333104 </v>
   <v>       0.16666893       0.83333104       0.66666896 </v>
   <v>       0.33333107       0.66666896       0.66666896 </v>
   <v>       0.33333107       0.83333104       0.83333104 </v>
   <v>       0.50000000       0.66666896       0.83333104 </v>
   <v>       0.50000000       0.83333104       0.66666896 </v>
   <v>       0.66666896       0.66666896       0.66666896 </v>
   <v>       0.66666896       0.83333104       0.83333104 </v>
   <v>       0.83333104       0.66666896       0.83333104 </v>
   <v>       0.83333104       0.83333104       0.66666896 </v>
  </varray>
 </structure>
</modeling>
