 108 108   0   0
  0.1022088E+02  0.1033485E-08  0.1033485E-08  0.1033485E-08  0.5000000E-15
  1.000000000000000E-004
  CAR 
 Opt                                     
      9.77662934     -3.96744615  301      6.80718877      1.00000000
     -3.967  0.0000E+00  0.0000E+00
     -3.922  0.0000E+00  0.0000E+00
     -3.876  0.0000E+00  0.0000E+00
     -3.830  0.0000E+00  0.0000E+00
     -3.784  0.0000E+00  0.0000E+00
     -3.738  0.0000E+00  0.0000E+00
     -3.693  0.0000E+00  0.0000E+00
     -3.647  0.0000E+00  0.0000E+00
     -3.601 -0.3986E-30 -0.1826E-31
     -3.555 -0.1510E-28 -0.7103E-30
     -3.509 -0.5286E-27 -0.2493E-28
     -3.463 -0.1659E-25 -0.7852E-27
     -3.418 -0.4685E-24 -0.2225E-25
     -3.372 -0.1190E-22 -0.5673E-24
     -3.326 -0.2716E-21 -0.1301E-22
     -3.280 -0.5575E-20 -0.2684E-21
     -3.234 -0.1029E-18 -0.4983E-20
     -3.189 -0.1707E-17 -0.8319E-19
     -3.143 -0.2456E-16 -0.1208E-17
     -3.097 -0.3314E-15 -0.1639E-16
     -3.051 -0.3972E-14 -0.1984E-15
     -3.005 -0.4287E-13 -0.2162E-14
     -2.960 -0.4155E-12 -0.2120E-13
     -2.914 -0.3617E-11 -0.1869E-12
     -2.868 -0.2826E-10 -0.1482E-11
     -2.822 -0.1982E-09 -0.1056E-10
     -2.776 -0.1248E-08 -0.6773E-10
     -2.730 -0.7047E-08 -0.3906E-09
     -2.685 -0.3569E-07 -0.2026E-08
     -2.639 -0.1620E-06 -0.9448E-08
     -2.593 -0.6589E-06 -0.3964E-07
     -2.547 -0.2399E-05 -0.1495E-06
     -2.501 -0.7808E-05 -0.5073E-06
     -2.456 -0.2268E-04 -0.1546E-05
     -2.410 -0.5862E-04 -0.4232E-05
     -2.364 -0.1342E-03 -0.1038E-04
     -2.318 -0.2701E-03 -0.2276E-04
     -2.272 -0.4709E-03 -0.4433E-04
     -2.227 -0.6901E-03 -0.7595E-04
     -2.181 -0.7877E-03 -0.1120E-03
     -2.135 -0.5078E-03 -0.1353E-03
     -2.089  0.4850E-03 -0.1131E-03
     -2.043  0.2495E-02  0.1215E-05
     -1.997  0.5648E-02  0.2600E-03
     -1.952  0.9803E-02  0.7091E-03
     -1.906  0.1459E-01  0.1377E-02
     -1.860  0.1955E-01  0.2273E-02
     -1.814  0.2433E-01  0.3388E-02
     -1.768  0.2871E-01  0.4703E-02
     -1.723  0.3251E-01  0.6192E-02
     -1.677  0.3563E-01  0.7825E-02
     -1.631  0.3811E-01  0.9570E-02
     -1.585  0.4027E-01  0.1142E-01
     -1.539  0.4266E-01  0.1337E-01
     -1.494  0.4560E-01  0.1546E-01
     -1.448  0.4887E-01  0.1770E-01
     -1.402  0.5175E-01  0.2007E-01
     -1.356  0.5362E-01  0.2253E-01
     -1.310  0.5452E-01  0.2502E-01
     -1.264  0.5526E-01  0.2756E-01
     -1.219  0.5681E-01  0.3016E-01
     -1.173  0.5955E-01  0.3289E-01
     -1.127  0.6312E-01  0.3578E-01
     -1.081  0.6676E-01  0.3884E-01
     -1.035  0.6979E-01  0.4203E-01
     -0.990  0.7183E-01  0.4532E-01
     -0.944  0.7270E-01  0.4865E-01
     -0.898  0.7252E-01  0.5198E-01
     -0.852  0.7192E-01  0.5527E-01
     -0.806  0.7215E-01  0.5858E-01
     -0.760  0.7450E-01  0.6199E-01
     -0.715  0.7941E-01  0.6563E-01
     -0.669  0.8581E-01  0.6956E-01
     -0.623  0.9154E-01  0.7375E-01
     -0.577  0.9447E-01  0.7808E-01
     -0.531  0.9386E-01  0.8238E-01
     -0.486  0.9073E-01  0.8654E-01
     -0.440  0.8737E-01  0.9054E-01
     -0.394  0.8632E-01  0.9450E-01
     -0.348  0.8916E-01  0.9858E-01
     -0.302  0.9571E-01  0.1030E+00
     -0.257  0.1039E+00  0.1077E+00
     -0.211  0.1108E+00  0.1128E+00
     -0.165  0.1141E+00  0.1180E+00
     -0.119  0.1139E+00  0.1232E+00
     -0.073  0.1119E+00  0.1284E+00
     -0.027  0.1104E+00  0.1334E+00
      0.018  0.1109E+00  0.1385E+00
      0.064  0.1133E+00  0.1437E+00
      0.110  0.1167E+00  0.1491E+00
      0.156  0.1199E+00  0.1545E+00
      0.202  0.1226E+00  0.1602E+00
      0.247  0.1254E+00  0.1659E+00
      0.293  0.1291E+00  0.1718E+00
      0.339  0.1345E+00  0.1780E+00
      0.385  0.1411E+00  0.1844E+00
      0.431  0.1468E+00  0.1912E+00
      0.476  0.1495E+00  0.1980E+00
      0.522  0.1483E+00  0.2048E+00
      0.568  0.1445E+00  0.2114E+00
      0.614  0.1411E+00  0.2179E+00
      0.660  0.1412E+00  0.2244E+00
      0.706  0.1468E+00  0.2311E+00
      0.751  0.1572E+00  0.2383E+00
      0.797  0.1701E+00  0.2461E+00
      0.843  0.1819E+00  0.2544E+00
      0.889  0.1890E+00  0.2631E+00
      0.935  0.1898E+00  0.2718E+00
      0.980  0.1852E+00  0.2803E+00
      1.026  0.1790E+00  0.2885E+00
      1.072  0.1766E+00  0.2966E+00
      1.118  0.1822E+00  0.3049E+00
      1.164  0.1957E+00  0.3139E+00
      1.209  0.2134E+00  0.3236E+00
      1.255  0.2292E+00  0.3342E+00
      1.301  0.2385E+00  0.3451E+00
      1.347  0.2403E+00  0.3561E+00
      1.393  0.2376E+00  0.3670E+00
      1.439  0.2361E+00  0.3778E+00
      1.484  0.2413E+00  0.3888E+00
      1.530  0.2552E+00  0.4005E+00
      1.576  0.2752E+00  0.4131E+00
      1.622  0.2953E+00  0.4267E+00
      1.668  0.3112E+00  0.4409E+00
      1.713  0.3250E+00  0.4558E+00
      1.759  0.3469E+00  0.4717E+00
      1.805  0.3905E+00  0.4896E+00
      1.851  0.4651E+00  0.5109E+00
      1.897  0.5693E+00  0.5370E+00
      1.943  0.6901E+00  0.5686E+00
      1.988  0.8081E+00  0.6056E+00
      2.034  0.9060E+00  0.6471E+00
      2.080  0.9746E+00  0.6918E+00
      2.126  0.1015E+01  0.7383E+00
      2.172  0.1036E+01  0.7857E+00
      2.217  0.1046E+01  0.8337E+00
      2.263  0.1054E+01  0.8820E+00
      2.309  0.1061E+01  0.9306E+00
      2.355  0.1066E+01  0.9794E+00
      2.401  0.1068E+01  0.1028E+01
      2.446  0.1072E+01  0.1077E+01
      2.492  0.1082E+01  0.1127E+01
      2.538  0.1104E+01  0.1178E+01
      2.584  0.1142E+01  0.1230E+01
      2.630  0.1194E+01  0.1285E+01
      2.676  0.1255E+01  0.1342E+01
      2.721  0.1318E+01  0.1403E+01
      2.767  0.1379E+01  0.1466E+01
      2.813  0.1436E+01  0.1531E+01
      2.859  0.1490E+01  0.1600E+01
      2.905  0.1542E+01  0.1670E+01
      2.950  0.1590E+01  0.1743E+01
      2.996  0.1632E+01  0.1818E+01
      3.042  0.1663E+01  0.1894E+01
      3.088  0.1679E+01  0.1971E+01
      3.134  0.1679E+01  0.2048E+01
      3.179  0.1666E+01  0.2124E+01
      3.225  0.1643E+01  0.2200E+01
      3.271  0.1612E+01  0.2273E+01
      3.317  0.1576E+01  0.2346E+01
      3.363  0.1541E+01  0.2416E+01
      3.409  0.1511E+01  0.2485E+01
      3.454  0.1490E+01  0.2554E+01
      3.500  0.1478E+01  0.2621E+01
      3.546  0.1472E+01  0.2689E+01
      3.592  0.1472E+01  0.2756E+01
      3.638  0.1473E+01  0.2824E+01
      3.683  0.1469E+01  0.2891E+01
      3.729  0.1453E+01  0.2958E+01
      3.775  0.1423E+01  0.3023E+01
      3.821  0.1381E+01  0.3086E+01
      3.867  0.1336E+01  0.3147E+01
      3.912  0.1297E+01  0.3207E+01
      3.958  0.1268E+01  0.3265E+01
      4.004  0.1251E+01  0.3322E+01
      4.050  0.1245E+01  0.3379E+01
      4.096  0.1254E+01  0.3437E+01
      4.142  0.1279E+01  0.3495E+01
      4.187  0.1323E+01  0.3556E+01
      4.233  0.1386E+01  0.3619E+01
      4.279  0.1463E+01  0.3686E+01
      4.325  0.1544E+01  0.3757E+01
      4.371  0.1618E+01  0.3831E+01
      4.416  0.1676E+01  0.3908E+01
      4.462  0.1713E+01  0.3987E+01
      4.508  0.1736E+01  0.4066E+01
      4.554  0.1756E+01  0.4146E+01
      4.600  0.1782E+01  0.4228E+01
      4.646  0.1814E+01  0.4311E+01
      4.691  0.1844E+01  0.4396E+01
      4.737  0.1865E+01  0.4481E+01
      4.783  0.1877E+01  0.4567E+01
      4.829  0.1894E+01  0.4654E+01
      4.875  0.1932E+01  0.4742E+01
      4.920  0.2001E+01  0.4834E+01
      4.966  0.2093E+01  0.4930E+01
      5.012  0.2186E+01  0.5030E+01
      5.058  0.2254E+01  0.5133E+01
      5.104  0.2285E+01  0.5238E+01
      5.149  0.2288E+01  0.5343E+01
      5.195  0.2285E+01  0.5448E+01
      5.241  0.2299E+01  0.5553E+01
      5.287  0.2347E+01  0.5660E+01
      5.333  0.2429E+01  0.5772E+01
      5.379  0.2527E+01  0.5888E+01
      5.424  0.2609E+01  0.6007E+01
      5.470  0.2642E+01  0.6128E+01
      5.516  0.2602E+01  0.6247E+01
      5.562  0.2487E+01  0.6361E+01
      5.608  0.2316E+01  0.6467E+01
      5.653  0.2118E+01  0.6564E+01
      5.699  0.1926E+01  0.6653E+01
      5.745  0.1764E+01  0.6733E+01
      5.791  0.1643E+01  0.6809E+01
      5.837  0.1565E+01  0.6880E+01
      5.882  0.1522E+01  0.6950E+01
      5.928  0.1504E+01  0.7019E+01
      5.974  0.1498E+01  0.7088E+01
      6.020  0.1498E+01  0.7156E+01
      6.066  0.1502E+01  0.7225E+01
      6.112  0.1517E+01  0.7295E+01
      6.157  0.1551E+01  0.7366E+01
      6.203  0.1608E+01  0.7439E+01
      6.249  0.1688E+01  0.7517E+01
      6.295  0.1781E+01  0.7598E+01
      6.341  0.1879E+01  0.7684E+01
      6.386  0.1973E+01  0.7775E+01
      6.432  0.2055E+01  0.7869E+01
      6.478  0.2119E+01  0.7966E+01
      6.524  0.2156E+01  0.8065E+01
      6.570  0.2162E+01  0.8164E+01
      6.615  0.2135E+01  0.8262E+01
      6.661  0.2082E+01  0.8357E+01
      6.707  0.2013E+01  0.8449E+01
      6.753  0.1943E+01  0.8538E+01
      6.799  0.1881E+01  0.8624E+01
      6.845  0.1833E+01  0.8708E+01
      6.890  0.1800E+01  0.8791E+01
      6.936  0.1776E+01  0.8872E+01
      6.982  0.1758E+01  0.8953E+01
      7.028  0.1744E+01  0.9033E+01
      7.074  0.1734E+01  0.9112E+01
      7.119  0.1732E+01  0.9191E+01
      7.165  0.1741E+01  0.9271E+01
      7.211  0.1759E+01  0.9352E+01
      7.257  0.1781E+01  0.9433E+01
      7.303  0.1805E+01  0.9516E+01
      7.349  0.1833E+01  0.9600E+01
      7.394  0.1869E+01  0.9686E+01
      7.440  0.1916E+01  0.9773E+01
      7.486  0.1966E+01  0.9864E+01
      7.532  0.1996E+01  0.9955E+01
      7.578  0.1975E+01  0.1005E+02
      7.623  0.1871E+01  0.1013E+02
      7.669  0.1667E+01  0.1021E+02
      7.715  0.1371E+01  0.1027E+02
      7.761  0.1018E+01  0.1032E+02
      7.807  0.6619E+00  0.1035E+02
      7.852  0.3557E+00  0.1036E+02
      7.898  0.1338E+00  0.1037E+02
      7.944  0.3277E-02  0.1037E+02
      7.990 -0.5219E-01  0.1037E+02
      8.036 -0.6019E-01  0.1036E+02
      8.082 -0.4678E-01  0.1036E+02
      8.127 -0.2927E-01  0.1036E+02
      8.173 -0.1557E-01  0.1036E+02
      8.219 -0.7199E-02  0.1036E+02
      8.265 -0.2931E-02  0.1036E+02
      8.311 -0.1058E-02  0.1036E+02
      8.356 -0.3402E-03  0.1036E+02
      8.402 -0.9769E-04  0.1036E+02
      8.448 -0.2511E-04  0.1036E+02
      8.494 -0.5783E-05  0.1036E+02
      8.540 -0.1195E-05  0.1036E+02
      8.585 -0.2218E-06  0.1036E+02
      8.631 -0.3699E-07  0.1036E+02
      8.677 -0.5545E-08  0.1036E+02
      8.723 -0.7474E-09  0.1036E+02
      8.769 -0.9063E-10  0.1036E+02
      8.815 -0.9886E-11  0.1036E+02
      8.860 -0.9705E-12  0.1036E+02
      8.906 -0.8570E-13  0.1036E+02
      8.952 -0.6922E-14  0.1036E+02
      8.998 -0.4524E-15  0.1036E+02
      9.044  0.0000E+00  0.1036E+02
      9.089  0.0000E+00  0.1036E+02
      9.135  0.0000E+00  0.1036E+02
      9.181  0.0000E+00  0.1036E+02
      9.227  0.0000E+00  0.1036E+02
      9.273  0.0000E+00  0.1036E+02
      9.318  0.0000E+00  0.1036E+02
      9.364  0.0000E+00  0.1036E+02
      9.410  0.0000E+00  0.1036E+02
      9.456  0.0000E+00  0.1036E+02
      9.502  0.0000E+00  0.1036E+02
      9.548  0.0000E+00  0.1036E+02
      9.593  0.0000E+00  0.1036E+02
      9.639  0.0000E+00  0.1036E+02
      9.685  0.0000E+00  0.1036E+02
      9.731  0.0000E+00  0.1036E+02
      9.777  0.0000E+00  0.1036E+02
