  108  108  100    1
  0.1022088E+02  0.1033485E-08  0.1033485E-08  0.1033485E-08  0.5000000E-15
  1.000000000000000E-004
  CAR 
 Opt                                     
    864     10    518
 
  0.8333333E-01  0.8333333E-01  0.8333333E-01  0.3703704E-01
    1       -1.967446   1.000000
    2       -0.712002   1.000000
    3       -0.712002   1.000000
    4       -0.712002   1.000000
    5       -0.254198   1.000000
    6       -0.254198   1.000000
    7       -0.254198   1.000000
    8        0.402160   1.000000
    9        0.402160   1.000000
   10        0.402160   1.000000
   11        0.803864   1.000000
   12        0.803864   1.000000
   13        0.803864   1.000000
   14        0.803864   1.000000
   15        0.803864   1.000000
   16        0.803864   1.000000
   17        1.115505   1.000000
   18        1.180697   1.000000
   19        1.180697   1.000000
   20        1.180697   1.000000
   21        1.352580   1.000000
   22        1.352580   1.000000
   23        1.352580   1.000000
   24        1.531229   1.000000
   25        1.531229   1.000000
   26        1.531229   1.000000
   27        1.649366   1.000000
   28        1.836295   1.000000
   29        1.836295   1.000000
   30        1.836295   1.000000
   31        1.882852   1.000000
   32        1.882852   1.000000
   33        1.882852   1.000000
   34        1.965185   1.000000
   35        1.965185   1.000000
   36        1.965185   1.000000
   37        2.436396   1.000000
   38        2.436396   1.000000
   39        2.436396   1.000000
   40        2.510629   1.000000
   41        2.510629   1.000000
   42        2.510629   1.000000
   43        2.510629   1.000000
   44        2.510629   1.000000
   45        2.510629   1.000000
   46        2.536181   1.000000
   47        2.536181   1.000000
   48        2.536181   1.000000
   49        2.578045   1.000000
   50        2.578045   1.000000
   51        2.578045   1.000000
   52        2.578045   1.000000
   53        2.578045   1.000000
   54        2.578045   1.000000
   55        2.622450   1.000000
   56        2.622450   1.000000
   57        2.622450   1.000000
   58        2.630863   1.000000
   59        2.630863   1.000000
   60        2.630863   1.000000
   61        2.679253   1.000000
   62        2.679253   1.000000
   63        2.679253   1.000000
   64        2.679253   1.000000
   65        2.679253   1.000000
   66        2.679253   1.000000
   67        2.707590   1.000000
   68        2.707590   1.000000
   69        2.707590   1.000000
   70        2.707590   1.000000
   71        2.707590   1.000000
   72        2.707590   1.000000
   73        2.729361   1.000000
   74        2.729361   1.000000
   75        2.729361   1.000000
   76        2.773899   1.000000
   77        2.773899   1.000000
   78        2.773899   1.000000
   79        2.773900   1.000000
   80        2.773900   1.000000
   81        2.773900   1.000000
   82        2.788170   1.000000
   83        2.788170   1.000000
   84        2.788170   1.000000
   85        2.788171   1.000000
   86        2.788171   1.000000
   87        2.788171   1.000000
   88        2.939365   1.000000
   89        2.939365   1.000000
   90        2.939365   1.000000
   91        2.939365   1.000000
   92        2.939365   1.000000
   93        2.939365   1.000000
   94        3.044128   1.000000
   95        3.044128   1.000000
   96        3.044128   1.000000
   97        3.044128   1.000000
   98        3.044128   1.000000
   99        3.044128   1.000000
  100        3.107508   1.000000
  101        3.107508   1.000000
  102        3.107508   1.000000
  103        3.144213   1.000000
  104        3.144213   1.000000
  105        3.144213   1.000000
  106        3.215592   1.000000
  107        3.215592   1.000000
  108        3.215592   1.000000
  109        3.215592   1.000000
  110        3.215592   1.000000
  111        3.215592   1.000000
  112        3.286946   1.000000
  113        3.286946   1.000000
  114        3.286946   1.000000
  115        3.323426   1.000000
  116        3.323426   1.000000
  117        3.323427   1.000000
  118        3.323430   1.000000
  119        3.323430   1.000000
  120        3.323430   1.000000
  121        3.437845   1.000000
  122        3.437845   1.000000
  123        3.437846   1.000000
  124        3.451925   1.000000
  125        3.451925   1.000000
  126        3.451925   1.000000
  127        3.451925   1.000000
  128        3.451925   1.000000
  129        3.451925   1.000000
  130        3.490874   1.000000
  131        3.490874   1.000000
  132        3.490874   1.000000
  133        3.560111   1.000000
  134        3.560111   1.000000
  135        3.560111   1.000000
  136        3.560111   1.000000
  137        3.560111   1.000000
  138        3.560111   1.000000
  139        3.572206   1.000000
  140        3.572206   1.000000
  141        3.572206   1.000000
  142        3.572209   1.000000
  143        3.572209   1.000000
  144        3.572209   1.000000
  145        3.661186   1.000000
  146        3.661186   1.000000
  147        3.661186   1.000000
  148        3.685036   1.000000
  149        3.685036   1.000000
  150        3.685036   1.000000
  151        3.685037   1.000000
  152        3.685037   1.000000
  153        3.685037   1.000000
  154        3.732430   1.000000
  155        3.732430   1.000000
  156        3.732430   1.000000
  157        3.732430   1.000000
  158        3.732430   1.000000
  159        3.732430   1.000000
  160        3.834440   1.000000
  161        3.834440   1.000000
  162        3.834440   1.000000
  163        3.834440   1.000000
  164        3.834440   1.000000
  165        3.834440   1.000000
  166        4.049833   1.000000
  167        4.049833   1.000000
  168        4.049833   1.000000
  169        4.180771   1.000000
  170        4.180771   1.000000
  171        4.180771   1.000000
  172        4.180771   1.000000
  173        4.180771   1.000000
  174        4.180771   1.000000
  175        4.277124   1.000000
  176        4.277124   1.000000
  177        4.277124   1.000000
  178        4.292821   1.000000
  179        4.292821   1.000000
  180        4.292821   1.000000
  181        4.319541   1.000000
  182        4.319541   1.000000
  183        4.319541   1.000000
  184        4.339017   1.000000
  185        4.339017   1.000000
  186        4.339017   1.000000
  187        4.339019   1.000000
  188        4.339019   1.000000
  189        4.339019   1.000000
  190        4.360771   1.000000
  191        4.360771   1.000000
  192        4.360771   1.000000
  193        4.408223   1.000000
  194        4.408223   1.000000
  195        4.408223   1.000000
  196        4.408223   1.000000
  197        4.408223   1.000000
  198        4.408223   1.000000
  199        4.432277   1.000000
  200        4.432277   1.000000
  201        4.432277   1.000000
  202        4.512605   1.000000
  203        4.512605   1.000000
  204        4.512605   1.000000
  205        4.512605   1.000000
  206        4.512605   1.000000
  207        4.512605   1.000000
  208        4.534782   1.000000
  209        4.534782   1.000000
  210        4.534782   1.000000
  211        4.536074   1.000000
  212        4.536074   1.000000
  213        4.536074   1.000000
  214        4.536075   1.000000
  215        4.536075   1.000000
  216        4.536075   1.000000
  217        4.566476   1.000000
  218        4.566476   1.000000
  219        4.566476   1.000000
  220        4.711858   1.000000
  221        4.711858   1.000000
  222        4.711858   1.000000
  223        4.763801   1.000000
  224        4.763801   1.000000
  225        4.763801   1.000000
  226        4.763801   1.000000
  227        4.763801   1.000000
  228        4.763801   1.000000
  229        4.816680   1.000000
  230        4.851024   1.000000
  231        4.851024   1.000000
  232        4.851024   1.000000
  233        4.851025   1.000000
  234        4.851025   1.000000
  235        4.851025   1.000000
  236        4.856532   1.000000
  237        4.856532   1.000000
  238        4.856532   1.000000
  239        4.856532   1.000000
  240        4.856532   1.000000
  241        4.856533   1.000000
  242        4.918995   1.000000
  243        4.918995   1.000000
  244        4.918996   1.000000
  245        5.073915   1.000000
  246        5.073915   1.000000
  247        5.073915   1.000000
  248        5.101048   1.000000
  249        5.101048   1.000000
  250        5.101048   1.000000
  251        5.102750   1.000000
  252        5.102750   1.000000
  253        5.102750   1.000000
  254        5.121371   1.000000
  255        5.121371   1.000000
  256        5.121371   1.000000
  257        5.165413   1.000000
  258        5.175946   1.000000
  259        5.175946   1.000000
  260        5.175946   1.000000
  261        5.175946   1.000000
  262        5.175946   1.000000
  263        5.175946   1.000000
  264        5.187965   1.000000
  265        5.187965   1.000000
  266        5.204190   1.000000
  267        5.204190   1.000000
  268        5.204190   1.000000
  269        5.204194   1.000000
  270        5.204194   1.000000
  271        5.204194   1.000000
  272        5.231993   1.000000
  273        5.231993   1.000000
  274        5.231993   1.000000
  275        5.244030   1.000000
  276        5.244030   1.000000
  277        5.244030   1.000000
  278        5.244031   1.000000
  279        5.244031   1.000000
  280        5.244031   1.000000
  281        5.245567   1.000000
  282        5.245567   1.000000
  283        5.275800   1.000000
  284        5.275804   1.000000
  285        5.275804   1.000000
  286        5.293155   1.000000
  287        5.293155   1.000000
  288        5.293156   1.000000
  289        5.304772   1.000000
  290        5.304773   1.000000
  291        5.304773   1.000000
  292        5.319040   1.000000
  293        5.319040   1.000000
  294        5.319040   1.000000
  295        5.322717   1.000000
  296        5.322717   1.000000
  297        5.322717   1.000000
  298        5.322717   1.000000
  299        5.322717   1.000000
  300        5.322717   1.000000
  301        5.344154   1.000000
  302        5.344154   1.000000
  303        5.344155   1.000000
  304        5.361396   1.000000
  305        5.361396   1.000000
  306        5.369437   1.000000
  307        5.403215   1.000000
  308        5.403215   1.000000
  309        5.403215   1.000000
  310        5.446995   1.000000
  311        5.446995   1.000000
  312        5.446995   1.000000
  313        5.506589   1.000000
  314        5.506589   1.000000
  315        5.506589   1.000000
  316        5.624473   1.000000
  317        5.624473   1.000000
  318        5.624473   1.000000
  319        5.624473   1.000000
  320        5.624473   1.000000
  321        5.624473   1.000000
  322        5.645928   1.000000
  323        5.645928   1.000000
  324        5.645928   1.000000
  325        5.647148   1.000000
  326        5.647148   1.000000
  327        5.647148   1.000000
  328        5.652276   1.000000
  329        5.652276   1.000000
  330        5.652276   1.000000
  331        5.660634   1.000000
  332        5.660634   1.000000
  333        5.660634   1.000000
  334        5.660635   1.000000
  335        5.660635   1.000000
  336        5.660635   1.000000
  337        5.725171   1.000000
  338        5.725171   1.000000
  339        5.725171   1.000000
  340        5.771489   1.000000
  341        5.771489   1.000000
  342        5.771489   1.000000
  343        5.771490   1.000000
  344        5.771490   1.000000
  345        5.771490   1.000000
  346        5.796207   1.000000
  347        5.796207   1.000000
  348        5.796207   1.000000
  349        5.817981   1.000000
  350        5.817981   1.000000
  351        5.817981   1.000000
  352        5.830708   1.000000
  353        5.830708   1.000000
  354        5.830708   1.000000
  355        5.880330   1.000000
  356        5.880330   1.000000
  357        5.880330   1.000000
  358        5.925876   1.000000
  359        5.925876   1.000000
  360        5.925876   1.000000
  361        5.925877   1.000000
  362        5.925877   1.000000
  363        5.925877   1.000000
  364        5.975055   1.000000
  365        5.975055   1.000000
  366        5.975055   1.000000
  367        6.078204   1.000002
  368        6.078204   1.000002
  369        6.078204   1.000002
  370        6.177986   1.000040
  371        6.177986   1.000040
  372        6.177986   1.000040
  373        6.188415   1.000055
  374        6.188415   1.000055
  375        6.188415   1.000055
  376        6.188415   1.000055
  377        6.188415   1.000055
  378        6.188415   1.000055
  379        6.205542   1.000089
  380        6.205542   1.000089
  381        6.205543   1.000089
  382        6.205594   1.000089
  383        6.205595   1.000089
  384        6.205595   1.000089
  385        6.271971   1.000509
  386        6.271971   1.000509
  387        6.271973   1.000509
  388        6.405764   1.007812
  389        6.405766   1.007812
  390        6.405766   1.007812
  391        6.521424   1.030672
  392        6.521424   1.030672
  393        6.521425   1.030672
  394        6.521425   1.030672
  395        6.521425   1.030672
  396        6.521425   1.030672
  397        6.547764   1.034728
  398        6.547764   1.034728
  399        6.547764   1.034728
  400        6.547764   1.034728
  401        6.547764   1.034728
  402        6.547764   1.034728
  403        6.647278   0.989933
  404        6.647278   0.989933
  405        6.647280   0.989930
  406        6.688688   0.916622
  407        6.688688   0.916622
  408        6.688688   0.916622
  409        6.688689   0.916621
  410        6.688689   0.916621
  411        6.688689   0.916621
  412        6.696776   0.897342
  413        6.696776   0.897342
  414        6.696776   0.897342
  415        6.696777   0.897340
  416        6.696777   0.897340
  417        6.696777   0.897340
  418        6.732503   0.792917
  419        6.732503   0.792917
  420        6.732559   0.792732
  421        6.733098   0.790927
  422        6.733098   0.790927
  423        6.853749   0.308782
  424        6.853749   0.308782
  425        6.853749   0.308782
  426        6.853750   0.308779
  427        6.853750   0.308779
  428        6.853750   0.308779
  429        6.859988   0.284986
  430        6.859988   0.284986
  431        6.859988   0.284986
  432        6.859988   0.284985
  433        6.859988   0.284985
  434        6.859988   0.284985
  435        6.950935   0.033757
  436        6.950935   0.033757
  437        6.950935   0.033757
  438        6.989817  -0.013607
  439        6.989817  -0.013608
  440        6.989817  -0.013608
  441        7.029813  -0.033234
  442        7.029813  -0.033234
  443        7.029813  -0.033234
  444        7.059979  -0.035233
  445        7.059979  -0.035233
  446        7.059979  -0.035233
  447        7.059979  -0.035233
  448        7.059979  -0.035233
  449        7.059979  -0.035233
  450        7.066368  -0.034751
  451        7.066368  -0.034751
  452        7.066368  -0.034751
  453        7.066369  -0.034751
  454        7.066369  -0.034751
  455        7.066369  -0.034751
  456        7.077134  -0.033439
  457        7.077134  -0.033439
  458        7.077134  -0.033439
  459        7.077134  -0.033439
  460        7.077134  -0.033439
  461        7.077134  -0.033439
  462        7.125950  -0.023352
  463        7.125950  -0.023352
  464        7.125951  -0.023352
  465        7.129456  -0.022542
  466        7.129456  -0.022542
  467        7.180394  -0.012026
  468        7.180394  -0.012026
  469        7.180394  -0.012026
  470        7.229786  -0.005456
  471        7.229787  -0.005456
  472        7.229787  -0.005456
  473        7.238688  -0.004652
  474        7.238690  -0.004652
  475        7.238690  -0.004652
  476        7.294799  -0.001520
  477        7.294799  -0.001520
  478        7.294799  -0.001520
  479        7.294799  -0.001520
  480        7.294803  -0.001520
  481        7.294842  -0.001519
  482        7.305290  -0.001208
  483        7.305290  -0.001208
  484        7.305292  -0.001208
  485        7.305293  -0.001208
  486        7.305386  -0.001205
  487        7.305621  -0.001199
  488        7.314292  -0.000987
  489        7.315070  -0.000969
  490        7.316636  -0.000935
  491        7.318566  -0.000895
  492        7.320706  -0.000852
  493        7.324935  -0.000772
  494        7.371334  -0.000246
  495        7.374204  -0.000228
  496        7.376862  -0.000213
  497        7.422674  -0.000060
  498        7.426980  -0.000053
  499        7.437802  -0.000039
  500        7.438962  -0.000037
  501        7.440204  -0.000036
  502        7.445702  -0.000031
  503        7.449458  -0.000027
  504        7.455036  -0.000023
  505        7.458520  -0.000021
  506        7.460836  -0.000019
  507        7.463779  -0.000018
  508        7.466994  -0.000016
  509        7.475904  -0.000012
  510        7.486419  -0.000009
  511        7.501275  -0.000005
  512        7.509865  -0.000004
  513        7.536867  -0.000002
  514        7.550217  -0.000001
  515        7.564566  -0.000001
  516        7.581707  -0.000000
  517        7.595223  -0.000000
  518        7.663697  -0.000000
 
  0.2500000E+00  0.8333333E-01  0.8333333E-01  0.1111111E+00
    1       -1.879552   1.000000
    2       -1.114442   1.000000
    3       -0.633334   1.000000
    4       -0.633334   1.000000
    5       -0.178923   1.000000
    6       -0.178923   1.000000
    7        0.047204   1.000000
    8        0.047204   1.000000
    9        0.239305   1.000000
   10        0.455550   1.000000
   11        0.468774   1.000000
   12        0.468774   1.000000
   13        0.846130   1.000000
   14        0.846130   1.000000
   15        0.897927   1.000000
   16        1.187997   1.000000
   17        1.187998   1.000000
   18        1.208017   1.000000
   19        1.235705   1.000000
   20        1.235705   1.000000
   21        1.425633   1.000000
   22        1.581547   1.000000
   23        1.582944   1.000000
   24        1.582944   1.000000
   25        1.599326   1.000000
   26        1.718996   1.000000
   27        1.718997   1.000000
   28        1.779907   1.000000
   29        1.900013   1.000000
   30        1.900013   1.000000
   31        1.904375   1.000000
   32        1.937258   1.000000
   33        1.937258   1.000000
   34        1.999554   1.000000
   35        2.027334   1.000000
   36        2.027334   1.000000
   37        2.252255   1.000000
   38        2.310412   1.000000
   39        2.310414   1.000000
   40        2.321211   1.000000
   41        2.376806   1.000000
   42        2.376806   1.000000
   43        2.384713   1.000000
   44        2.384713   1.000000
   45        2.426790   1.000000
   46        2.426790   1.000000
   47        2.439023   1.000000
   48        2.439023   1.000000
   49        2.498652   1.000000
   50        2.498652   1.000000
   51        2.541208   1.000000
   52        2.541208   1.000000
   53        2.569680   1.000000
   54        2.569680   1.000000
   55        2.570511   1.000000
   56        2.570511   1.000000
   57        2.602399   1.000000
   58        2.602399   1.000000
   59        2.609678   1.000000
   60        2.609678   1.000000
   61        2.622430   1.000000
   62        2.622431   1.000000
   63        2.656391   1.000000
   64        2.662126   1.000000
   65        2.662126   1.000000
   66        2.666360   1.000000
   67        2.666360   1.000000
   68        2.691081   1.000000
   69        2.691081   1.000000
   70        2.705239   1.000000
   71        2.705239   1.000000
   72        2.752575   1.000000
   73        2.752575   1.000000
   74        2.788457   1.000000
   75        2.788457   1.000000
   76        2.790481   1.000000
   77        2.790481   1.000000
   78        2.794763   1.000000
   79        2.794763   1.000000
   80        2.810313   1.000000
   81        2.810313   1.000000
   82        2.819428   1.000000
   83        2.819428   1.000000
   84        2.830448   1.000000
   85        2.889839   1.000000
   86        2.889839   1.000000
   87        2.894301   1.000000
   88        2.895583   1.000000
   89        2.895590   1.000000
   90        2.934241   1.000000
   91        2.934241   1.000000
   92        2.951576   1.000000
   93        2.977579   1.000000
   94        2.977579   1.000000
   95        3.017640   1.000000
   96        3.017640   1.000000
   97        3.018173   1.000000
   98        3.018173   1.000000
   99        3.033029   1.000000
  100        3.033029   1.000000
  101        3.138328   1.000000
  102        3.138336   1.000000
  103        3.139818   1.000000
  104        3.176028   1.000000
  105        3.176028   1.000000
  106        3.178820   1.000000
  107        3.178820   1.000000
  108        3.233905   1.000000
  109        3.233905   1.000000
  110        3.239816   1.000000
  111        3.239816   1.000000
  112        3.282571   1.000000
  113        3.282571   1.000000
  114        3.292102   1.000000
  115        3.292106   1.000000
  116        3.314302   1.000000
  117        3.314302   1.000000
  118        3.355904   1.000000
  119        3.403964   1.000000
  120        3.403964   1.000000
  121        3.411773   1.000000
  122        3.411773   1.000000
  123        3.449888   1.000000
  124        3.449888   1.000000
  125        3.456153   1.000000
  126        3.456154   1.000000
  127        3.471653   1.000000
  128        3.471653   1.000000
  129        3.485660   1.000000
  130        3.490885   1.000000
  131        3.490887   1.000000
  132        3.507867   1.000000
  133        3.511351   1.000000
  134        3.511351   1.000000
  135        3.518263   1.000000
  136        3.518263   1.000000
  137        3.555692   1.000000
  138        3.555692   1.000000
  139        3.592272   1.000000
  140        3.592273   1.000000
  141        3.592526   1.000000
  142        3.592526   1.000000
  143        3.621115   1.000000
  144        3.621115   1.000000
  145        3.642284   1.000000
  146        3.642284   1.000000
  147        3.704646   1.000000
  148        3.726634   1.000000
  149        3.726634   1.000000
  150        3.732279   1.000000
  151        3.732279   1.000000
  152        3.750358   1.000000
  153        3.750358   1.000000
  154        3.784796   1.000000
  155        3.784797   1.000000
  156        3.819545   1.000000
  157        3.819545   1.000000
  158        3.846315   1.000000
  159        3.884888   1.000000
  160        3.884888   1.000000
  161        3.903785   1.000000
  162        3.903785   1.000000
  163        3.915577   1.000000
  164        3.915577   1.000000
  165        3.940623   1.000000
  166        3.940623   1.000000
  167        3.972697   1.000000
  168        3.972697   1.000000
  169        3.995084   1.000000
  170        3.995085   1.000000
  171        4.034067   1.000000
  172        4.034067   1.000000
  173        4.116174   1.000000
  174        4.117511   1.000000
  175        4.117511   1.000000
  176        4.142715   1.000000
  177        4.224336   1.000000
  178        4.224336   1.000000
  179        4.225735   1.000000
  180        4.225735   1.000000
  181        4.260364   1.000000
  182        4.260364   1.000000
  183        4.262567   1.000000
  184        4.262567   1.000000
  185        4.274361   1.000000
  186        4.274361   1.000000
  187        4.299434   1.000000
  188        4.299434   1.000000
  189        4.345634   1.000000
  190        4.364483   1.000000
  191        4.364483   1.000000
  192        4.365000   1.000000
  193        4.365000   1.000000
  194        4.377608   1.000000
  195        4.377610   1.000000
  196        4.429653   1.000000
  197        4.429653   1.000000
  198        4.459847   1.000000
  199        4.490288   1.000000
  200        4.490288   1.000000
  201        4.499547   1.000000
  202        4.499547   1.000000
  203        4.512069   1.000000
  204        4.549483   1.000000
  205        4.549483   1.000000
  206        4.565536   1.000000
  207        4.565536   1.000000
  208        4.579320   1.000000
  209        4.579320   1.000000
  210        4.598564   1.000000
  211        4.598564   1.000000
  212        4.604434   1.000000
  213        4.604434   1.000000
  214        4.625548   1.000000
  215        4.625548   1.000000
  216        4.627355   1.000000
  217        4.627355   1.000000
  218        4.639346   1.000000
  219        4.639347   1.000000
  220        4.658094   1.000000
  221        4.658094   1.000000
  222        4.701677   1.000000
  223        4.734084   1.000000
  224        4.734085   1.000000
  225        4.744914   1.000000
  226        4.752397   1.000000
  227        4.780347   1.000000
  228        4.780347   1.000000
  229        4.783680   1.000000
  230        4.784278   1.000000
  231        4.784278   1.000000
  232        4.793103   1.000000
  233        4.793103   1.000000
  234        4.839428   1.000000
  235        4.874484   1.000000
  236        4.874484   1.000000
  237        4.890103   1.000000
  238        4.890104   1.000000
  239        4.970889   1.000000
  240        4.977547   1.000000
  241        4.977547   1.000000
  242        5.013785   1.000000
  243        5.013785   1.000000
  244        5.021014   1.000000
  245        5.021014   1.000000
  246        5.021404   1.000000
  247        5.021404   1.000000
  248        5.035366   1.000000
  249        5.035366   1.000000
  250        5.042846   1.000000
  251        5.042846   1.000000
  252        5.046510   1.000000
  253        5.046511   1.000000
  254        5.073165   1.000000
  255        5.087543   1.000000
  256        5.100023   1.000000
  257        5.100024   1.000000
  258        5.103702   1.000000
  259        5.103702   1.000000
  260        5.123625   1.000000
  261        5.129672   1.000000
  262        5.129672   1.000000
  263        5.139313   1.000000
  264        5.170477   1.000000
  265        5.170485   1.000000
  266        5.181436   1.000000
  267        5.183064   1.000000
  268        5.183166   1.000000
  269        5.183167   1.000000
  270        5.197151   1.000000
  271        5.197152   1.000000
  272        5.198895   1.000000
  273        5.198895   1.000000
  274        5.217377   1.000000
  275        5.219632   1.000000
  276        5.224085   1.000000
  277        5.231873   1.000000
  278        5.241035   1.000000
  279        5.251227   1.000000
  280        5.251227   1.000000
  281        5.258511   1.000000
  282        5.258513   1.000000
  283        5.267124   1.000000
  284        5.267124   1.000000
  285        5.281350   1.000000
  286        5.295667   1.000000
  287        5.295667   1.000000
  288        5.297222   1.000000
  289        5.297222   1.000000
  290        5.326800   1.000000
  291        5.326800   1.000000
  292        5.326815   1.000000
  293        5.326815   1.000000
  294        5.358964   1.000000
  295        5.366647   1.000000
  296        5.366647   1.000000
  297        5.373415   1.000000
  298        5.391040   1.000000
  299        5.391557   1.000000
  300        5.398686   1.000000
  301        5.398686   1.000000
  302        5.404724   1.000000
  303        5.409231   1.000000
  304        5.409238   1.000000
  305        5.410020   1.000000
  306        5.425274   1.000000
  307        5.425274   1.000000
  308        5.433461   1.000000
  309        5.433461   1.000000
  310        5.456112   1.000000
  311        5.456112   1.000000
  312        5.498220   1.000000
  313        5.500130   1.000000
  314        5.501293   1.000000
  315        5.501294   1.000000
  316        5.559966   1.000000
  317        5.560716   1.000000
  318        5.560716   1.000000
  319        5.561761   1.000000
  320        5.561761   1.000000
  321        5.575189   1.000000
  322        5.575189   1.000000
  323        5.577763   1.000000
  324        5.591700   1.000000
  325        5.609076   1.000000
  326        5.609076   1.000000
  327        5.622528   1.000000
  328        5.622529   1.000000
  329        5.624694   1.000000
  330        5.624694   1.000000
  331        5.652673   1.000000
  332        5.652673   1.000000
  333        5.693998   1.000000
  334        5.693998   1.000000
  335        5.695402   1.000000
  336        5.695402   1.000000
  337        5.710814   1.000000
  338        5.736338   1.000000
  339        5.736338   1.000000
  340        5.772256   1.000000
  341        5.772259   1.000000
  342        5.776721   1.000000
  343        5.776721   1.000000
  344        5.789251   1.000000
  345        5.807681   1.000000
  346        5.825128   1.000000
  347        5.827635   1.000000
  348        5.827635   1.000000
  349        5.864407   1.000000
  350        5.864407   1.000000
  351        5.877214   1.000000
  352        5.877214   1.000000
  353        5.931686   1.000000
  354        5.931686   1.000000
  355        5.936178   1.000000
  356        5.936178   1.000000
  357        5.945988   1.000000
  358        6.012204   1.000000
  359        6.012205   1.000000
  360        6.017542   1.000000
  361        6.017542   1.000000
  362        6.026997   1.000000
  363        6.026997   1.000000
  364        6.032882   1.000000
  365        6.045748   1.000001
  366        6.045748   1.000001
  367        6.051327   1.000001
  368        6.119395   1.000007
  369        6.145487   1.000015
  370        6.145487   1.000015
  371        6.180059   1.000043
  372        6.180059   1.000043
  373        6.248074   1.000280
  374        6.248074   1.000280
  375        6.249587   1.000291
  376        6.249587   1.000291
  377        6.257896   1.000359
  378        6.257896   1.000359
  379        6.261824   1.000396
  380        6.261824   1.000396
  381        6.267061   1.000451