Automatically generated mesh
      10
Reciprocal lattice
    0.08333333333333    0.08333333333333    0.08333333333333             8
    0.25000000000000    0.08333333333333    0.08333333333333            24
    0.41666666666667    0.08333333333333    0.08333333333333            24
    0.25000000000000    0.25000000000000    0.08333333333333            24
    0.41666666666667    0.25000000000000    0.08333333333333            48
    0.41666666666667    0.41666666666667    0.08333333333333            24
    0.25000000000000    0.25000000000000    0.25000000000000             8
    0.41666666666667    0.25000000000000    0.25000000000000            24
    0.41666666666667    0.41666666666667    0.25000000000000            24
    0.41666666666667    0.41666666666667    0.41666666666667             8
