 running on    8 total cores
 distrk:  each k-point on    8 cores,    1 groups
 distr:  one band on    4 cores,    2 groups
 using from now: INCAR     
 vasp.5.4.4.18Apr17-6-g9f103f2a35 (build Aug 17 2017 06:00:38) complex          
  
 POSCAR found type information on POSCAR  Fe
 POSCAR found :  1 types and     108 ions
 scaLAPACK will be used
 LDA part: xc-table for Pade appr. of Perdew
 POSCAR, INCAR and KPOINTS ok, starting setup
 FFT: planning ...
 WAVECAR not read
 entering main loop
       N       E                     dE             d eps       ncg     rms          rms(c)
DAV:   1     0.758794969560E+04    0.75879E+04   -0.28839E+05 10368   0.184E+03
DAV:   2    -0.252255438324E+02   -0.76132E+04   -0.74439E+04 10360   0.457E+02
DAV:   3    -0.852248922081E+03   -0.82702E+03   -0.70748E+03 10488   0.191E+02
DAV:   4    -0.102984261634E+04   -0.17759E+03   -0.16657E+03 18792   0.572E+01
DAV:   5    -0.104506640964E+04   -0.15224E+02   -0.14373E+02 16536   0.218E+01    0.934E+01
RMM:   6    -0.877383845860E+03    0.16768E+03   -0.13521E+03 10360   0.110E+02    0.900E+00
RMM:   7    -0.880279328906E+03   -0.28955E+01   -0.11021E+02 11287   0.237E+01    0.327E+00
RMM:   8    -0.879471706905E+03    0.80762E+00   -0.12716E+01 11080   0.993E+00    0.603E+00
RMM:   9    -0.879697171814E+03   -0.22546E+00   -0.44328E+00 13966   0.214E+00    0.274E+00
RMM:  10    -0.879530964052E+03    0.16621E+00   -0.88839E-01 13848   0.991E-01    0.419E-01
RMM:  11    -0.879544509775E+03   -0.13546E-01   -0.10517E-01 14430   0.283E-01    0.496E-01
RMM:  12    -0.879540120430E+03    0.43893E-02   -0.16524E-02 11461   0.324E-01    0.138E-01
RMM:  13    -0.879540262071E+03   -0.14164E-03   -0.10072E-02 12906   0.136E-01    0.525E-02
RMM:  14    -0.879540306211E+03   -0.44140E-04   -0.86059E-04 12841   0.566E-02    0.115E-02
RMM:  15    -0.879540310166E+03   -0.39553E-05   -0.27111E-05 13933   0.185E-02    0.414E-03
RMM:  16    -0.879540275684E+03    0.34482E-04    0.22610E-04 13051   0.670E-03    0.349E-03
RMM:  17    -0.879540256724E+03    0.18961E-04    0.20232E-04  7794   0.438E-03    0.573E-04
RMM:  18    -0.879540239621E+03    0.17103E-04    0.16412E-04  6916   0.277E-03    0.112E-03
RMM:  19    -0.879540224357E+03    0.15264E-04    0.14567E-04  6687   0.263E-03    0.840E-04
RMM:  20    -0.879540212018E+03    0.12339E-04    0.11764E-04  6535   0.194E-03    0.366E-04
RMM:  21    -0.879540197845E+03    0.14172E-04    0.13326E-04  6234   0.123E-03    0.464E-04
RMM:  22    -0.879540183802E+03    0.14044E-04    0.12780E-04  6111   0.142E-03    0.357E-04
RMM:  23    -0.879540172578E+03    0.11224E-04    0.10212E-04  4752   0.742E-04    0.460E-05
RMM:  24    -0.879540164500E+03    0.80782E-05    0.76333E-05  4680   0.808E-04    0.326E-04
RMM:  25    -0.879540156025E+03    0.84752E-05    0.80852E-05  4454   0.637E-04    0.546E-05
RMM:  26    -0.879540147827E+03    0.81976E-05    0.77086E-05  4044   0.624E-04    0.294E-04
RMM:  27    -0.879540141130E+03    0.66975E-05    0.63178E-05  3693   0.488E-04    0.132E-04
RMM:  28    -0.879540135665E+03    0.54644E-05    0.52334E-05  3454   0.506E-04    0.284E-04
RMM:  29    -0.879540131096E+03    0.45695E-05    0.44204E-05  3039   0.402E-04    0.195E-04
RMM:  30    -0.879540126056E+03    0.50396E-05    0.48879E-05  2863   0.421E-04    0.293E-04
RMM:  31    -0.879540122028E+03    0.40282E-05    0.38806E-05  2523   0.359E-04    0.227E-04
RMM:  32    -0.879540118512E+03    0.35155E-05    0.34154E-05  2425   0.370E-04    0.298E-04
RMM:  33    -0.879540115296E+03    0.32160E-05    0.31413E-05  2225   0.326E-04    0.259E-04
RMM:  34    -0.879540112342E+03    0.29547E-05    0.28944E-05  2363   0.348E-04    0.275E-04
RMM:  35    -0.879540109621E+03    0.27203E-05    0.26652E-05  2155   0.318E-04    0.260E-04
RMM:  36    -0.879540107124E+03    0.24976E-05    0.24616E-05  3435   0.364E-04    0.164E-04
RMM:  37    -0.879540104577E+03    0.25465E-05    0.24962E-05  2452   0.319E-04    0.123E-04
RMM:  38    -0.879540101868E+03    0.27093E-05    0.26123E-05  1941   0.291E-04    0.136E-04
RMM:  39    -0.879540099809E+03    0.20592E-05    0.19985E-05  1829   0.287E-04    0.130E-04
RMM:  40    -0.879540097578E+03    0.22312E-05    0.21628E-05  1765   0.280E-04    0.142E-04
RMM:  41    -0.879540095895E+03    0.16830E-05    0.16201E-05  1704   0.279E-04    0.136E-04
RMM:  42    -0.879540094434E+03    0.14609E-05    0.14354E-05  1696   0.272E-04    0.135E-04
RMM:  43    -0.879540093104E+03    0.13299E-05    0.13085E-05  1816   0.268E-04    0.114E-04
RMM:  44    -0.879540091889E+03    0.12152E-05    0.11976E-05  1574   0.258E-04    0.116E-04
RMM:  45    -0.879540090777E+03    0.11118E-05    0.10972E-05  1509   0.256E-04    0.114E-04
RMM:  46    -0.879540089759E+03    0.10180E-05    0.10061E-05  1595   0.252E-04    0.105E-04
RMM:  47    -0.879540088825E+03    0.93350E-06    0.92228E-06  1472   0.247E-04
   1 F= -.87954009E+03 E0= -.87955974E+03  d E =-.879540E+03
 curvature:   0.00 expect dE= 0.000E+00 dE for cont linesearch  0.000E+00
 trial: gam= 0.00000 g(F)=  0.288E-37 g(S)=  0.132E-03 ort = 0.000E+00 (trialstep = 0.100E+01)
 search vector abs. value=  0.132E-03
 reached required accuracy - stopping structural energy minimisation
