<?xml version="1.0" encoding="ISO-8859-1"?>
<modeling>
 <generator>
  <i name="program" type="string">vasp </i>
  <i name="version" type="string">5.4.4.18Apr17-6-g9f103f2a35  </i>
  <i name="subversion" type="string">(build Aug 17 2017 06:00:38) complex            parallel </i>
  <i name="platform" type="string">LinuxIFC </i>
  <i name="date" type="string">2019 07 13 </i>
  <i name="time" type="string">00:37:55 </i>
 </generator>
 <incar>
  <i type="string" name="SYSTEM">Opt</i>
  <i type="int" name="ISTART">     0</i>
  <i type="string" name="PREC">normal</i>
  <i type="string" name="ALGO"> Fast</i>
  <i type="int" name="ISPIN">     1</i>
  <i type="int" name="ICHARG">     2</i>
  <i type="int" name="NELM">   400</i>
  <i type="int" name="IBRION">     2</i>
  <i name="EDIFF">      0.00000100</i>
  <i name="EDIFFG">     -0.01000000</i>
  <i type="int" name="NSW">   100</i>
  <i type="int" name="ISIF">     3</i>
  <i name="ENCUT">    400.00000000</i>
  <i type="int" name="NGX">    72</i>
  <i type="int" name="NGY">    72</i>
  <i type="int" name="NGZ">    72</i>
  <i name="POTIM">      0.50000000</i>
  <i type="string" name="LREAL">Auto</i>
  <i type="logical" name="LWAVE"> F  </i>
  <i type="logical" name="LCHARG"> F  </i>
  <v type="int" name="KPOINT_BSE">    -1     0     0     0</v>
  <i type="int" name="NELM">   400</i>
 </incar>
 <structure name="primitive_cell" >
  <crystal>
   <varray name="basis" >
    <v>       3.44492529       0.00000000       0.00000000 </v>
    <v>       0.00000000       3.44492529       0.00000000 </v>
    <v>       0.00000000       0.00000000       3.44492524 </v>
   </varray>
   <i name="volume">     40.88268566 </i>
   <varray name="rec_basis" >
    <v>       0.29028206       0.00000000       0.00000000 </v>
    <v>       0.00000000       0.29028206       0.00000000 </v>
    <v>       0.00000000       0.00000000       0.29028206 </v>
   </varray>
  </crystal>
  <varray name="positions" >
   <v>       0.00000000       0.00000000       0.00000000 </v>
   <v>       0.00000000      -0.49998976      -0.49998975 </v>
   <v>      -0.49998976       0.00000000      -0.49998975 </v>
   <v>      -0.49998976      -0.49998976       0.00000000 </v>
  </varray>
 </structure>
 <varray name="primitive_index" >
  <v type="int" >        1 </v>
  <v type="int" >        2 </v>
  <v type="int" >        3 </v>
  <v type="int" >        4 </v>
 </varray>
 <kpoints>
  <generation param="Monkhorst-Pack">
   <v type="int" name="divisions">       6        6        6 </v>
   <v name="usershift">      0.00000000       0.00000000       0.00000000 </v>
   <v name="genvec1">      0.16666667       0.00000000       0.00000000 </v>
   <v name="genvec2">      0.00000000       0.16666667       0.00000000 </v>
   <v name="genvec3">      0.00000000       0.00000000       0.16666667 </v>
   <v name="shift">      0.50000000       0.50000000       0.50000000 </v>
  </generation>
  <varray name="kpointlist" >
   <v>       0.08333333       0.08333333       0.08333333 </v>
   <v>       0.25000000       0.08333333       0.08333333 </v>
   <v>       0.41666667       0.08333333       0.08333333 </v>
   <v>       0.25000000       0.25000000       0.08333333 </v>
   <v>       0.41666667       0.25000000       0.08333333 </v>
   <v>       0.41666667       0.41666667       0.08333333 </v>
   <v>       0.25000000       0.25000000       0.25000000 </v>
   <v>       0.41666667       0.25000000       0.25000000 </v>
   <v>       0.41666667       0.41666667       0.25000000 </v>
   <v>       0.41666667       0.41666667       0.41666667 </v>
  </varray>
  <varray name="weights" >
   <v>       0.03703704 </v>
   <v>       0.11111111 </v>
   <v>       0.11111111 </v>
   <v>       0.11111111 </v>
   <v>       0.22222222 </v>
   <v>       0.11111111 </v>
   <v>       0.03703704 </v>
   <v>       0.11111111 </v>
   <v>       0.11111111 </v>
   <v>       0.03703704 </v>
  </varray>
 </kpoints>
 <parameters>
  <separator name="general" >
   <i type="string" name="SYSTEM">Opt</i>
   <i type="logical" name="LCOMPAT"> F  </i>
  </separator>
  <separator name="electronic" >
   <i type="string" name="PREC">normal</i>
   <i name="ENMAX">    400.00000000</i>
   <i name="ENAUG">    511.36800000</i>
   <i name="EDIFF">      0.00000100</i>
   <i type="int" name="IALGO">    68</i>
   <i type="int" name="IWAVPR">    11</i>
   <i type="int" name="NBANDS">   518</i>
   <i name="NELECT">    864.00000000</i>
   <i type="int" name="TURBO">     0</i>
   <i type="int" name="IRESTART">     0</i>
   <i type="int" name="NREBOOT">     0</i>
   <i type="int" name="NMIN">     0</i>
   <i name="EREF">      0.00000000</i>
   <separator name="electronic smearing" >
    <i type="int" name="ISMEAR">     1</i>
    <i name="SIGMA">      0.20000000</i>
    <i name="KSPACING">      0.50000000</i>
    <i type="logical" name="KGAMMA"> T  </i>
   </separator>
   <separator name="electronic projectors" >
    <i type="logical" name="LREAL"> T  </i>
    <v name="ROPT">     -0.00050000</v>
    <i type="int" name="LMAXPAW">  -100</i>
    <i type="int" name="LMAXMIX">     2</i>
    <i type="logical" name="NLSPLINE"> F  </i>
   </separator>
   <separator name="electronic startup" >
    <i type="int" name="ISTART">     0</i>
    <i type="int" name="ICHARG">     2</i>
    <i type="int" name="INIWAV">     1</i>
   </separator>
   <separator name="electronic spin" >
    <i type="int" name="ISPIN">     1</i>
    <i type="logical" name="LNONCOLLINEAR"> F  </i>
    <v name="MAGMOM">      1.00000000      1.00000000      1.00000000      1.00000000      1.00000000      1.00000000      1.00000000      1.00000000      1.00000000      1.00000000      1.00000000      1.00000000      1.00000000      1.00000000      1.00000000      1.00000000      1.00000000      1.00000000      1.00000000      1.00000000
      1.00000000      1.00000000      1.00000000      1.00000000      1.00000000      1.00000000      1.00000000      1.00000000      1.00000000      1.00000000      1.00000000      1.00000000      1.00000000      1.00000000      1.00000000      1.00000000      1.00000000      1.00000000      1.00000000      1.00000000
      1.00000000      1.00000000      1.00000000      1.00000000      1.00000000      1.00000000      1.00000000      1.00000000      1.00000000      1.00000000      1.00000000      1.00000000      1.00000000      1.00000000      1.00000000      1.00000000      1.00000000      1.00000000      1.00000000      1.00000000
      1.00000000      1.00000000      1.00000000      1.00000000      1.00000000      1.00000000      1.00000000      1.00000000      1.00000000      1.00000000      1.00000000      1.00000000      1.00000000      1.00000000      1.00000000      1.00000000      1.00000000      1.00000000      1.00000000      1.00000000
      1.00000000      1.00000000      1.00000000      1.00000000      1.00000000      1.00000000      1.00000000      1.00000000      1.00000000      1.00000000      1.00000000      1.00000000      1.00000000      1.00000000      1.00000000      1.00000000      1.00000000      1.00000000      1.00000000      1.00000000
      1.00000000      1.00000000      1.00000000      1.00000000      1.00000000      1.00000000      1.00000000      1.00000000</v>
    <i name="NUPDOWN">     -1.00000000</i>
    <i type="logical" name="LSORBIT"> F  </i>
    <v name="SAXIS">      0.00000000      0.00000000      1.00000000</v>
    <i type="logical" name="LSPIRAL"> F  </i>
    <v name="QSPIRAL">      0.00000000      0.00000000      0.00000000</v>
    <i type="logical" name="LZEROZ"> F  </i>
   </separator>
   <separator name="electronic exchange-correlation" >
    <i type="logical" name="LASPH"> F  </i>
    <i type="logical" name="LMETAGGA"> F  </i>
   </separator>
   <separator name="electronic convergence" >
    <i type="int" name="NELM">   400</i>
    <i type="int" name="NELMDL">    -5</i>
    <i type="int" name="NELMIN">     2</i>
    <i name="ENINI">    400.00000000</i>
    <separator name="electronic convergence detail" >
     <i type="logical" name="LDIAG"> T  </i>
     <i type="logical" name="LSUBROT"> F  </i>
     <i name="WEIMIN">      0.00100000</i>
     <i name="EBREAK">      0.00000000</i>
     <i name="DEPER">      0.30000000</i>
     <i type="int" name="NRMM">     4</i>
     <i name="TIME">      0.40000000</i>
    </separator>
   </separator>
   <separator name="electronic mixer" >
    <i name="AMIX">      0.40000000</i>
    <i name="BMIX">      1.00000000</i>
    <i name="AMIN">      0.10000000</i>
    <i name="AMIX_MAG">      1.60000000</i>
    <i name="BMIX_MAG">      1.00000000</i>
    <separator name="electronic mixer details" >
     <i type="int" name="IMIX">     4</i>
     <i type="logical" name="MIXFIRST"> F  </i>
     <i type="int" name="MAXMIX">   -45</i>
     <i name="WC">    100.00000000</i>
     <i type="int" name="INIMIX">     1</i>
     <i type="int" name="MIXPRE">     1</i>
     <i type="int" name="MREMOVE">     5</i>
    </separator>
   </separator>
   <separator name="electronic dipolcorrection" >
    <i type="logical" name="LDIPOL"> F  </i>
    <i type="logical" name="LMONO"> F  </i>
    <i type="int" name="IDIPOL">     0</i>
    <i name="EPSILON">      1.00000000</i>
    <v name="DIPOL">   -100.00000000   -100.00000000   -100.00000000</v>
    <i name="EFIELD">      0.00000000</i>
   </separator>
  </separator>
  <separator name="grids" >
   <i type="int" name="NGX">    72</i>
   <i type="int" name="NGY">    72</i>
   <i type="int" name="NGZ">    72</i>
   <i type="int" name="NGXF">   144</i>
   <i type="int" name="NGYF">   144</i>
   <i type="int" name="NGZF">   144</i>
   <i type="logical" name="ADDGRID"> F  </i>
  </separator>
  <separator name="ionic" >
   <i type="int" name="NSW">   100</i>
   <i type="int" name="IBRION">     2</i>
   <i type="int" name="MDALGO">     0</i>
   <i type="int" name="ISIF">     3</i>
   <i name="PSTRESS">      0.00000000</i>
   <i name="EDIFFG">     -0.01000000</i>
   <i type="int" name="NFREE">     1</i>
   <i name="POTIM">      0.50000000</i>
   <i name="SMASS">     -3.00000000</i>
   <i name="SCALEE">      1.00000000</i>
  </separator>
  <separator name="ionic md" >
   <i name="TEBEG">      0.00010000</i>
   <i name="TEEND">      0.00010000</i>
   <i type="int" name="NBLOCK">     1</i>
   <i type="int" name="KBLOCK">   100</i>
   <i type="int" name="NPACO">   256</i>
   <i name="APACO">     16.00000000</i>
  </separator>
  <separator name="symmetry" >
   <i type="int" name="ISYM">     2</i>
   <i name="SYMPREC">      0.00001000</i>
  </separator>
  <separator name="dos" >
   <i type="int" name="LORBIT">     0</i>
   <v name="RWIGS">     -1.00000000</v>
   <i type="int" name="NEDOS">   301</i>
   <i name="EMIN">     10.00000000</i>
   <i name="EMAX">    -10.00000000</i>
   <i name="EFERMI">      0.00000000</i>
  </separator>
  <separator name="writing" >
   <i type="int" name="NWRITE">     2</i>
   <i type="logical" name="LWAVE"> F  </i>
   <i type="logical" name="LDOWNSAMPLE"> F  </i>
   <i type="logical" name="LCHARG"> F  </i>
   <i type="logical" name="LPARD"> F  </i>
   <i type="logical" name="LVTOT"> F  </i>
   <i type="logical" name="LVHAR"> F  </i>
   <i type="logical" name="LELF"> F  </i>
   <i type="logical" name="LOPTICS"> F  </i>
   <v name="STM">      0.00000000      0.00000000      0.00000000      0.00000000      0.00000000      0.00000000      0.00000000</v>
  </separator>
  <separator name="performance" >
   <i type="int" name="NPAR">     2</i>
   <i type="int" name="NSIM">     4</i>
   <i type="int" name="NBLK">    -1</i>
   <i type="logical" name="LPLANE"> T  </i>
   <i type="logical" name="LSCALAPACK"> T  </i>
   <i type="logical" name="LSCAAWARE"> F  </i>
   <i type="logical" name="LSCALU"> F  </i>
   <i type="logical" name="LASYNC"> F  </i>
   <i type="logical" name="LORBITALREAL"> F  </i>
  </separator>
  <separator name="miscellaneous" >
   <i type="int" name="IDIOT">     3</i>
   <i type="int" name="ISPECIAL">     0</i>
   <i type="logical" name="LMUSIC"> F  </i>
   <v name="POMASS">     55.84700000</v>
   <v name="DARWINR">      0.00000000</v>
   <v name="DARWINV">      1.00000000</v>
   <i type="logical" name="LCORR"> T  </i>
  </separator>
  <i type="logical" name="GGA_COMPAT"> T  </i>
  <i type="logical" name="LBERRY"> F  </i>
  <i type="int" name="ICORELEVEL">     0</i>
  <i type="logical" name="LDAU"> F  </i>
  <i type="int" name="I_CONSTRAINED_M">     0</i>
  <separator name="electronic exchange-correlation" >
   <i type="string" name="GGA">--</i>
   <i type="int" name="VOSKOWN">     0</i>
   <i type="logical" name="LHFCALC"> F  </i>
   <i type="string" name="PRECFOCK"></i>
   <i type="logical" name="LSYMGRAD"> F  </i>
   <i type="logical" name="LHFONE"> F  </i>
   <i type="logical" name="LRHFCALC"> F  </i>
   <i type="logical" name="LTHOMAS"> F  </i>
   <i type="logical" name="LMODELHF"> F  </i>
   <i name="ENCUT4O">     -1.00000000</i>
   <i type="int" name="EXXOEP">     0</i>
   <i type="int" name="FOURORBIT">     0</i>
   <i name="AEXX">      0.00000000</i>
   <i name="HFALPHA">      0.00000000</i>
   <i name="MCALPHA">      0.00000000</i>
   <i name="ALDAX">      1.00000000</i>
   <i name="AGGAX">      1.00000000</i>
   <i name="ALDAC">      1.00000000</i>
   <i name="AGGAC">      1.00000000</i>
   <i type="int" name="NKREDX">     1</i>
   <i type="int" name="NKREDY">     1</i>
   <i type="int" name="NKREDZ">     1</i>
   <i type="logical" name="SHIFTRED"> F  </i>
   <i type="logical" name="ODDONLY"> F  </i>
   <i type="logical" name="EVENONLY"> F  </i>
   <i type="int" name="LMAXFOCK">     0</i>
   <i type="int" name="NMAXFOCKAE">     0</i>
   <i type="logical" name="LFOCKAEDFT"> F  </i>
   <i name="HFSCREEN">      0.00000000</i>
   <i name="HFSCREENC">      0.00000000</i>
   <i type="int" name="NBANDSGWLOW">     0</i>
  </separator>
  <separator name="vdW DFT" >
   <i type="logical" name="LUSE_VDW"> F  </i>
   <i name="Zab_VDW">     -0.84910000</i>
   <i name="PARAM1">      0.12340000</i>
   <i name="PARAM2">      1.00000000</i>
   <i name="PARAM3">      0.00000000</i>
  </separator>
  <separator name="model GW" >
   <i type="int" name="MODEL_GW">     0</i>
   <i name="MODEL_EPS0">      6.13252964</i>
   <i name="MODEL_ALPHA">      1.00000000</i>
  </separator>
  <separator name="linear response parameters" >
   <i type="logical" name="LEPSILON"> F  </i>
   <i type="logical" name="LRPA"> F  </i>
   <i type="logical" name="LNABLA"> F  </i>
   <i type="logical" name="LVEL"> F  </i>
   <i type="int" name="KINTER">     0</i>
   <i name="CSHIFT">      0.10000000</i>
   <i name="OMEGAMAX">     -1.00000000</i>
   <i name="DEG_THRESHOLD">      0.00200000</i>
   <i name="RTIME">     -0.10000000</i>
   <i name="WPLASMAI">      0.00000000</i>
   <v name="DFIELD">      0.00000000      0.00000000      0.00000000</v>
   <v name="WPLASMA">      0.00000000      0.00000000      0.00000000      0.00000000      0.00000000      0.00000000      0.00000000      0.00000000      0.00000000</v>
  </separator>
  <separator name="orbital magnetization" >
   <i type="logical" name="NUCIND"> F  </i>
   <v name="MAGPOS">      0.00000000      0.00000000      0.00000000</v>
   <i type="logical" name="LNICSALL"> T  </i>
   <i type="logical" name="ORBITALMAG"> F  </i>
   <i type="logical" name="LMAGBLOCH"> F  </i>
   <i type="logical" name="LCHIMAG"> F  </i>
   <i type="logical" name="LGAUGE"> T  </i>
   <i type="int" name="MAGATOM">     0</i>
   <v name="MAGDIPOL">      0.00000000      0.00000000      0.00000000</v>
   <v name="AVECCONST">      0.00000000      0.00000000      0.00000000</v>
  </separator>
  <separator name="response functions" >
   <i type="logical" name="LADDER"> F  </i>
   <i type="logical" name="LRPAFORCE"> F  </i>
   <i type="logical" name="LFXC"> F  </i>
   <i type="logical" name="LHARTREE"> T  </i>
   <i type="int" name="IBSE">     0</i>
   <v type="int" name="KPOINT">    -1     0     0     0</v>
   <i type="logical" name="LTCTE"> F  </i>
   <i type="logical" name="LTETE"> F  </i>
   <i type="logical" name="LTRIPLET"> F  </i>
   <i type="logical" name="LFXCEPS"> F  </i>
   <i type="logical" name="LFXHEG"> F  </i>
   <i type="int" name="NATURALO">     2</i>
   <i type="logical" name="L2ORDER"> F  </i>
   <i type="logical" name="LMP2LT"> F  </i>
   <i type="logical" name="LUSEW"> F  </i>
   <i name="ENCUTGW">     -2.00000000</i>
   <i name="ENCUTGWSOFT">     -2.00000000</i>
   <i name="ENCUTLF">     -1.00000000</i>
   <i type="int" name="LMAXMP2">    -1</i>
   <i name="SCISSOR">      0.00000000</i>
   <i type="int" name="NOMEGA">     0</i>
   <i type="int" name="NOMEGAR">     0</i>
   <i type="int" name="NBANDSGW">    -1</i>
   <i type="int" name="NBANDSO">    -1</i>
   <i type="int" name="NBANDSV">    -1</i>
   <i type="int" name="NELM">   400</i>
   <i type="int" name="NELMHF">     1</i>
   <i type="int" name="DIM">     3</i>
   <i type="int" name="ANTIRES">     0</i>
   <i name="OMEGAMAX">    -30.00000000</i>
   <i name="OMEGAMIN">    -30.00000000</i>
   <i name="OMEGATL">   -200.00000000</i>
   <i type="int" name="OMEGAGRID">   140</i>
   <i name="CSHIFT">     -0.10000000</i>
   <i type="logical" name="SELFENERGY"> F  </i>
   <i type="logical" name="LSPECTRAL"> F  </i>
   <i type="logical" name="LSPECTRALGW"> F  </i>
   <i type="logical" name="LSINGLES"> F  </i>
   <i type="logical" name="LFERMIGW"> F  </i>
   <i type="logical" name="ODDONLYGW"> F  </i>
   <i type="logical" name="EVENONLYGW"> F  </i>
   <i type="int" name="NKREDLFX">     1</i>
   <i type="int" name="NKREDLFY">     1</i>
   <i type="int" name="NKREDLFZ">     1</i>
   <i type="int" name="MAXMEM">  2800</i>
   <i type="int" name="TELESCOPE">     0</i>
   <i type="int" name="TAUPAR">     1</i>
   <i type="int" name="OMEGAPAR">    -1</i>
   <i name="LAMBDA">      1.00000000</i>
  </separator>
  <separator name="External order field" >
   <i name="OFIELD_KAPPA">      0.00000000</i>
   <v name="OFIELD_K">      0.00000000      0.00000000      0.00000000</v>
   <i name="OFIELD_Q6_NEAR">      0.00000000</i>
   <i name="OFIELD_Q6_FAR">      0.00000000</i>
   <i name="OFIELD_A">      0.00000000</i>
  </separator>
 </parameters>
 <atominfo>
  <atoms>     108 </atoms>
  <types>       1 </types>
  <array name="atoms" >
   <dimension dim="1">ion</dimension>
   <field type="string">element</field>
   <field type="int">atomtype</field>
   <set>
    <rc><c>Fe</c><c>   1</c></rc>
    <rc><c>Fe</c><c>   1</c></rc>
    <rc><c>Fe</c><c>   1</c></rc>
    <rc><c>Fe</c><c>   1</c></rc>
    <rc><c>Fe</c><c>   1</c></rc>
    <rc><c>Fe</c><c>   1</c></rc>
    <rc><c>Fe</c><c>   1</c></rc>
    <rc><c>Fe</c><c>   1</c></rc>
    <rc><c>Fe</c><c>   1</c></rc>
    <rc><c>Fe</c><c>   1</c></rc>
    <rc><c>Fe</c><c>   1</c></rc>
    <rc><c>Fe</c><c>   1</c></rc>
    <rc><c>Fe</c><c>   1</c></rc>
    <rc><c>Fe</c><c>   1</c></rc>
    <rc><c>Fe</c><c>   1</c></rc>
    <rc><c>Fe</c><c>   1</c></rc>
    <rc><c>Fe</c><c>   1</c></rc>
    <rc><c>Fe</c><c>   1</c></rc>
    <rc><c>Fe</c><c>   1</c></rc>
    <rc><c>Fe</c><c>   1</c></rc>
    <rc><c>Fe</c><c>   1</c></rc>
    <rc><c>Fe</c><c>   1</c></rc>
    <rc><c>Fe</c><c>   1</c></rc>
    <rc><c>Fe</c><c>   1</c></rc>
    <rc><c>Fe</c><c>   1</c></rc>
    <rc><c>Fe</c><c>   1</c></rc>
    <rc><c>Fe</c><c>   1</c></rc>
    <rc><c>Fe</c><c>   1</c></rc>
    <rc><c>Fe</c><c>   1</c></rc>
    <rc><c>Fe</c><c>   1</c></rc>
    <rc><c>Fe</c><c>   1</c></rc>
    <rc><c>Fe</c><c>   1</c></rc>
    <rc><c>Fe</c><c>   1</c></rc>
    <rc><c>Fe</c><c>   1</c></rc>
    <rc><c>Fe</c><c>   1</c></rc>
    <rc><c>Fe</c><c>   1</c></rc>
    <rc><c>Fe</c><c>   1</c></rc>
    <rc><c>Fe</c><c>   1</c></rc>
    <rc><c>Fe</c><c>   1</c></rc>
    <rc><c>Fe</c><c>   1</c></rc>
    <rc><c>Fe</c><c>   1</c></rc>
    <rc><c>Fe</c><c>   1</c></rc>
    <rc><c>Fe</c><c>   1</c></rc>
    <rc><c>Fe</c><c>   1</c></rc>
    <rc><c>Fe</c><c>   1</c></rc>
    <rc><c>Fe</c><c>   1</c></rc>
    <rc><c>Fe</c><c>   1</c></rc>
    <rc><c>Fe</c><c>   1</c></rc>
    <rc><c>Fe</c><c>   1</c></rc>
    <rc><c>Fe</c><c>   1</c></rc>
    <rc><c>Fe</c><c>   1</c></rc>
    <rc><c>Fe</c><c>   1</c></rc>
    <rc><c>Fe</c><c>   1</c></rc>
    <rc><c>Fe</c><c>   1</c></rc>
    <rc><c>Fe</c><c>   1</c></rc>
    <rc><c>Fe</c><c>   1</c></rc>
    <rc><c>Fe</c><c>   1</c></rc>
    <rc><c>Fe</c><c>   1</c></rc>
    <rc><c>Fe</c><c>   1</c></rc>
    <rc><c>Fe</c><c>   1</c></rc>
    <rc><c>Fe</c><c>   1</c></rc>
    <rc><c>Fe</c><c>   1</c></rc>
    <rc><c>Fe</c><c>   1</c></rc>
    <rc><c>Fe</c><c>   1</c></rc>
    <rc><c>Fe</c><c>   1</c></rc>
    <rc><c>Fe</c><c>   1</c></rc>
    <rc><c>Fe</c><c>   1</c></rc>
    <rc><c>Fe</c><c>   1</c></rc>
    <rc><c>Fe</c><c>   1</c></rc>
    <rc><c>Fe</c><c>   1</c></rc>
    <rc><c>Fe</c><c>   1</c></rc>
    <rc><c>Fe</c><c>   1</c></rc>
    <rc><c>Fe</c><c>   1</c></rc>
    <rc><c>Fe</c><c>   1</c></rc>
    <rc><c>Fe</c><c>   1</c></rc>
    <rc><c>Fe</c><c>   1</c></rc>
    <rc><c>Fe</c><c>   1</c></rc>
    <rc><c>Fe</c><c>   1</c></rc>
    <rc><c>Fe</c><c>   1</c></rc>
    <rc><c>Fe</c><c>   1</c></rc>
    <rc><c>Fe</c><c>   1</c></rc>
    <rc><c>Fe</c><c>   1</c></rc>
    <rc><c>Fe</c><c>   1</c></rc>
    <rc><c>Fe</c><c>   1</c></rc>
    <rc><c>Fe</c><c>   1</c></rc>
    <rc><c>Fe</c><c>   1</c></rc>
    <rc><c>Fe</c><c>   1</c></rc>
    <rc><c>Fe</c><c>   1</c></rc>
    <rc><c>Fe</c><c>   1</c></rc>
    <rc><c>Fe</c><c>   1</c></rc>
    <rc><c>Fe</c><c>   1</c></rc>
    <rc><c>Fe</c><c>   1</c></rc>
    <rc><c>Fe</c><c>   1</c></rc>
    <rc><c>Fe</c><c>   1</c></rc>
    <rc><c>Fe</c><c>   1</c></rc>
    <rc><c>Fe</c><c>   1</c></rc>
    <rc><c>Fe</c><c>   1</c></rc>
    <rc><c>Fe</c><c>   1</c></rc>
    <rc><c>Fe</c><c>   1</c></rc>
    <rc><c>Fe</c><c>   1</c></rc>
    <rc><c>Fe</c><c>   1</c></rc>
    <rc><c>Fe</c><c>   1</c></rc>
    <rc><c>Fe</c><c>   1</c></rc>
    <rc><c>Fe</c><c>   1</c></rc>
    <rc><c>Fe</c><c>   1</c></rc>
    <rc><c>Fe</c><c>   1</c></rc>
    <rc><c>Fe</c><c>   1</c></rc>
    <rc><c>Fe</c><c>   1</c></rc>
   </set>
  </array>
  <array name="atomtypes" >
   <dimension dim="1">type</dimension>
   <field type="int">atomspertype</field>
   <field type="string">element</field>
   <field>mass</field>
   <field>valence</field>
   <field type="string">pseudopotential</field>
   <set>
    <rc><c> 108</c><c>Fe</c><c>     55.84700000</c><c>      8.00000000</c><c> PAW_PBE Fe 06Sep2000                   </c></rc>
   </set>
  </array>
 </atominfo>
 <structure name="initialpos" >
  <crystal>
   <varray name="basis" >
    <v>      10.33484705       0.00000000       0.00000000 </v>
    <v>       0.00000000      10.33484705       0.00000000 </v>
    <v>       0.00000000       0.00000000      10.33484705 </v>
   </varray>
   <i name="volume">   1103.85533447 </i>
   <varray name="rec_basis" >
    <v>       0.09676002       0.00000000       0.00000000 </v>
    <v>       0.00000000       0.09676002       0.00000000 </v>
    <v>       0.00000000       0.00000000       0.09676002 </v>
   </varray>
  </crystal>
  <varray name="positions" >
   <v>       0.00000000       0.00000000       0.00000000 </v>
   <v>       0.00000000       0.16666893       0.16666893 </v>
   <v>       0.16666893       0.00000000       0.16666893 </v>
   <v>       0.16666893       0.16666893       0.00000000 </v>
   <v>       0.33333106       0.00000000       0.00000000 </v>
   <v>       0.33333107       0.16666893       0.16666893 </v>
   <v>       0.50000000       0.00000000       0.16666894 </v>
   <v>       0.50000000       0.16666894       0.00000000 </v>
   <v>       0.66666897       0.00000000       0.00000000 </v>
   <v>       0.66666896       0.16666893       0.16666893 </v>
   <v>       0.83333104       0.00000000       0.16666893 </v>
   <v>       0.83333104       0.16666893       0.00000000 </v>
   <v>       0.00000000       0.33333106       0.00000000 </v>
   <v>       0.00000000       0.50000000       0.16666894 </v>
   <v>       0.16666893       0.33333107       0.16666893 </v>
   <v>       0.16666894       0.50000000       0.00000000 </v>
   <v>       0.33333107       0.33333107       0.00000000 </v>
   <v>       0.33333107       0.50000000       0.16666893 </v>
   <v>       0.50000000       0.33333107       0.16666893 </v>
   <v>       0.50000000       0.50000000       0.00000000 </v>
   <v>       0.66666896       0.33333107       0.00000000 </v>
   <v>       0.66666896       0.50000000       0.16666893 </v>
   <v>       0.83333104       0.33333107       0.16666893 </v>
   <v>       0.83333103       0.50000000       0.00000000 </v>
   <v>       0.00000000       0.66666897       0.00000000 </v>
   <v>       0.00000000       0.83333104       0.16666893 </v>
   <v>       0.16666893       0.66666896       0.16666893 </v>
   <v>       0.16666893       0.83333104       0.00000000 </v>
   <v>       0.33333107       0.66666896       0.00000000 </v>
   <v>       0.33333107       0.83333104       0.16666893 </v>
   <v>       0.50000000       0.66666896       0.16666893 </v>
   <v>       0.50000000       0.83333103       0.00000000 </v>
   <v>       0.66666896       0.66666896       0.00000000 </v>
   <v>       0.66666896       0.83333104       0.16666893 </v>
   <v>       0.83333104       0.66666896       0.16666893 </v>
   <v>       0.83333104       0.83333104       0.00000000 </v>
   <v>       0.00000000       0.00000000       0.33333106 </v>
   <v>       0.00000000       0.16666894       0.50000000 </v>
   <v>       0.16666894       0.00000000       0.50000000 </v>
   <v>       0.16666893       0.16666893       0.33333107 </v>
   <v>       0.33333107       0.00000000       0.33333107 </v>
   <v>       0.33333107       0.16666893       0.50000000 </v>
   <v>       0.50000000       0.00000000       0.50000000 </v>
   <v>       0.50000000       0.16666893       0.33333107 </v>
   <v>       0.66666896       0.00000000       0.33333107 </v>
   <v>       0.66666896       0.16666893       0.50000000 </v>
   <v>       0.83333103       0.00000000       0.50000000 </v>
   <v>       0.83333104       0.16666893       0.33333107 </v>
   <v>       0.00000000       0.33333107       0.33333107 </v>
   <v>       0.00000000       0.50000000       0.50000000 </v>
   <v>       0.16666893       0.33333107       0.50000000 </v>
   <v>       0.16666893       0.50000000       0.33333107 </v>
   <v>       0.33333107       0.33333107       0.33333107 </v>
   <v>       0.33333106       0.50000000       0.50000000 </v>
   <v>       0.50000000       0.33333106       0.50000000 </v>
   <v>       0.50000000       0.50000000       0.33333106 </v>
   <v>       0.66666896       0.33333107       0.33333107 </v>
   <v>       0.66666897       0.50000000       0.50000000 </v>
   <v>       0.83333104       0.33333107       0.50000000 </v>
   <v>       0.83333104       0.50000000       0.33333107 </v>
   <v>       0.00000000       0.66666896       0.33333107 </v>
   <v>       0.00000000       0.83333103       0.50000000 </v>
   <v>       0.16666893       0.66666896       0.50000000 </v>
   <v>       0.16666893       0.83333104       0.33333107 </v>
   <v>       0.33333107       0.66666896       0.33333107 </v>
   <v>       0.33333107       0.83333104       0.50000000 </v>
   <v>       0.50000000       0.66666897       0.50000000 </v>
   <v>       0.50000000       0.83333104       0.33333107 </v>
   <v>       0.66666896       0.66666896       0.33333107 </v>
   <v>       0.66666896       0.83333104       0.50000000 </v>
   <v>       0.83333104       0.66666896       0.50000000 </v>
   <v>       0.83333104       0.83333104       0.33333107 </v>
   <v>       0.00000000       0.00000000       0.66666897 </v>
   <v>       0.00000000       0.16666893       0.83333104 </v>
   <v>       0.16666893       0.00000000       0.83333104 </v>
   <v>       0.16666893       0.16666893       0.66666896 </v>
   <v>       0.33333107       0.00000000       0.66666896 </v>
   <v>       0.33333107       0.16666893       0.83333104 </v>
   <v>       0.50000000       0.00000000       0.83333103 </v>
   <v>       0.50000000       0.16666893       0.66666896 </v>
   <v>       0.66666896       0.00000000       0.66666896 </v>
   <v>       0.66666896       0.16666893       0.83333104 </v>
   <v>       0.83333104       0.00000000       0.83333104 </v>
   <v>       0.83333104       0.16666893       0.66666896 </v>
   <v>       0.00000000       0.33333107       0.66666896 </v>
   <v>       0.00000000       0.50000000       0.83333103 </v>
   <v>       0.16666893       0.33333107       0.83333104 </v>
   <v>       0.16666893       0.50000000       0.66666896 </v>
   <v>       0.33333107       0.33333107       0.66666896 </v>
   <v>       0.33333107       0.50000000       0.83333104 </v>
   <v>       0.50000000       0.33333107       0.83333104 </v>
   <v>       0.50000000       0.50000000       0.66666897 </v>
   <v>       0.66666896       0.33333107       0.66666896 </v>
   <v>       0.66666896       0.50000000       0.83333104 </v>
   <v>       0.83333104       0.33333107       0.83333104 </v>
   <v>       0.83333104       0.50000000       0.66666896 </v>
   <v>       0.00000000       0.66666896       0.66666896 </v>
   <v>       0.00000000       0.83333104       0.83333104 </v>
   <v>       0.16666893       0.66666896       0.83333104 </v>
   <v>       0.16666893       0.83333104       0.66666896 </v>
   <v>       0.33333107       0.66666896       0.66666896 </v>
   <v>       0.33333107       0.83333104       0.83333104 </v>
   <v>       0.50000000       0.66666896       0.83333104 </v>
   <v>       0.50000000       0.83333104       0.66666896 </v>
   <v>       0.66666896       0.66666896       0.66666896 </v>
   <v>       0.66666896       0.83333104       0.83333104 </v>
   <v>       0.83333104       0.66666896       0.83333104 </v>
   <v>       0.83333104       0.83333104       0.66666896 </v>
  </varray>
 </structure>
 <calculation>
  <scstep>
   <time name="dav">  103.98  104.05</time>
   <time name="total">  104.35  104.42</time>
   <energy>
    <i name="alphaZ">   7300.31925852 </i>
    <i name="ewald"> -66232.83996889 </i>
    <i name="hartreedc"> -11197.02572337 </i>
    <i name="XCdc">    446.63038354 </i>
    <i name="pawpsdc">  51723.88885462 </i>
    <i name="pawaedc"> -52548.28121372 </i>
    <i name="eentropy">     -0.03078162 </i>
    <i name="bandstr">  13893.61800594 </i>
    <i name="atom">  64201.67088057 </i>
    <i name="e_fr_energy">   7587.94969560 </i>
    <i name="e_wo_entrp">   7587.98047722 </i>
    <i name="e_0_energy">   7587.95995614 </i>
   </energy>
  </scstep>
  <scstep>
   <time name="dav">  100.85  100.88</time>
   <time name="total">  100.86  100.90</time>
   <energy>
    <i name="e_fr_energy">    -25.22554383 </i>
    <i name="e_wo_entrp">    -25.22029771 </i>
    <i name="e_0_energy">    -25.22379513 </i>
   </energy>
  </scstep>
  <scstep>
   <time name="dav">   94.33   94.35</time>
   <time name="total">   94.35   94.37</time>
   <energy>
    <i name="e_fr_energy">   -852.24892208 </i>
    <i name="e_wo_entrp">   -852.25273006 </i>
    <i name="e_0_energy">   -852.25019141 </i>
   </energy>
  </scstep>
  <scstep>
   <time name="dav">  155.56  155.62</time>
   <time name="total">  155.58  155.64</time>
   <energy>
    <i name="e_fr_energy">  -1029.84261634 </i>
    <i name="e_wo_entrp">  -1029.93478544 </i>
    <i name="e_0_energy">  -1029.87333937 </i>
   </energy>
  </scstep>
  <scstep>
   <time name="dav">  142.23  142.25</time>
   <time name="total">  147.11  147.13</time>
   <energy>
    <i name="e_fr_energy">  -1045.06640964 </i>
    <i name="e_wo_entrp">  -1045.17671271 </i>
    <i name="e_0_energy">  -1045.10317733 </i>
   </energy>
  </scstep>
  <scstep>
   <time name="diag">   12.33   12.35</time>
   <time name="diis">   57.75   57.75</time>
   <time name="orth">    2.55    2.55</time>
   <time name="total">   77.82   77.84</time>
   <energy>
    <i name="e_fr_energy">   -877.38384586 </i>
    <i name="e_wo_entrp">   -877.38987695 </i>
    <i name="e_0_energy">   -877.38585622 </i>
   </energy>
  </scstep>
  <scstep>
   <time name="diag">   12.32   12.32</time>
   <time name="diis">   62.58   62.58</time>
   <time name="orth">    2.55    2.55</time>
   <time name="total">   82.63   82.63</time>
   <energy>
    <i name="e_fr_energy">   -880.27932891 </i>
    <i name="e_wo_entrp">   -880.35117563 </i>
    <i name="e_0_energy">   -880.30327782 </i>
   </energy>
  </scstep>
  <scstep>
   <time name="diag">   12.31   12.31</time>
   <time name="diis">   61.66   61.69</time>
   <time name="orth">    2.55    2.55</time>
   <time name="total">   81.72   81.75</time>
   <energy>
    <i name="e_fr_energy">   -879.47170690 </i>
    <i name="e_wo_entrp">   -879.51890680 </i>
    <i name="e_0_energy">   -879.48744020 </i>
   </energy>
  </scstep>
  <scstep>
   <time name="diag">   12.28   12.30</time>
   <time name="diis">   76.80   76.80</time>
   <time name="orth">    2.55    2.55</time>
   <time name="total">   96.79   96.81</time>
   <energy>
    <i name="e_fr_energy">   -879.69717181 </i>
    <i name="e_wo_entrp">   -879.74657941 </i>
    <i name="e_0_energy">   -879.71364101 </i>
   </energy>
  </scstep>
  <scstep>
   <time name="diag">   12.26   12.26</time>
   <time name="diis">   76.21   76.24</time>
   <time name="orth">    2.54    2.56</time>
   <time name="total">   96.16   96.22</time>
   <energy>
    <i name="e_fr_energy">   -879.53096405 </i>
    <i name="e_wo_entrp">   -879.58351132 </i>
    <i name="e_0_energy">   -879.54847981 </i>
   </energy>
  </scstep>
  <scstep>
   <time name="diag">   12.19   12.19</time>
   <time name="diis">   79.32   79.32</time>
   <time name="orth">    2.56    2.56</time>
   <time name="total">   99.26   99.26</time>
   <energy>
    <i name="e_fr_energy">   -879.54450977 </i>
    <i name="e_wo_entrp">   -879.59842034 </i>
    <i name="e_0_energy">   -879.56247996 </i>
   </energy>
  </scstep>
  <scstep>
   <time name="diag">   12.24   12.24</time>
   <time name="diis">   63.71   63.72</time>
   <time name="orth">    2.55    2.55</time>
   <time name="total">   83.64   83.65</time>
   <energy>
    <i name="e_fr_energy">   -879.54012043 </i>
    <i name="e_wo_entrp">   -879.59488702 </i>
    <i name="e_0_energy">   -879.55837596 </i>
   </energy>
  </scstep>
  <scstep>
   <time name="diag">   11.90   11.90</time>
   <time name="diis">   71.66   71.68</time>
   <time name="orth">    2.58    2.58</time>
   <time name="total">   91.40   91.42</time>
   <energy>
    <i name="e_fr_energy">   -879.54026207 </i>
    <i name="e_wo_entrp">   -879.59566202 </i>
    <i name="e_0_energy">   -879.55872872 </i>
   </energy>
  </scstep>
  <scstep>
   <time name="diag">   12.52   12.52</time>
   <time name="diis">   71.21   71.24</time>
   <time name="orth">    2.54    2.54</time>
   <time name="total">   91.42   91.45</time>
   <energy>
    <i name="e_fr_energy">   -879.54030621 </i>
    <i name="e_wo_entrp">   -879.59614890 </i>
    <i name="e_0_energy">   -879.55892044 </i>
   </energy>
  </scstep>
  <scstep>
   <time name="diag">   12.08   12.08</time>
   <time name="diis">   78.19   78.21</time>
   <time name="orth">    2.57    2.57</time>
   <time name="total">   98.11   98.13</time>
   <energy>
    <i name="e_fr_energy">   -879.54031017 </i>
    <i name="e_wo_entrp">   -879.59648410 </i>
    <i name="e_0_energy">   -879.55903481 </i>
   </energy>
  </scstep>
  <scstep>
   <time name="diag">   12.52   12.52</time>
   <time name="diis">   71.49   71.49</time>
   <time name="orth">    2.57    2.57</time>
   <time name="total">   91.87   91.87</time>
   <energy>
    <i name="e_fr_energy">   -879.54027568 </i>
    <i name="e_wo_entrp">   -879.59674202 </i>
    <i name="e_0_energy">   -879.55909780 </i>
   </energy>
  </scstep>
  <scstep>
   <time name="diag">   12.51   12.51</time>
   <time name="diis">   45.60   45.62</time>
   <time name="orth">    2.58    2.58</time>
   <time name="total">   65.97   65.99</time>
   <energy>
    <i name="e_fr_energy">   -879.54025672 </i>
    <i name="e_wo_entrp">   -879.59697549 </i>
    <i name="e_0_energy">   -879.55916298 </i>
   </energy>
  </scstep>
  <scstep>
   <time name="diag">   12.51   12.51</time>
   <time name="diis">   41.16   41.18</time>
   <time name="orth">    2.55    2.55</time>
   <time name="total">   61.23   61.25</time>
   <energy>
    <i name="e_fr_energy">   -879.54023962 </i>
    <i name="e_wo_entrp">   -879.59717065 </i>
    <i name="e_0_energy">   -879.55921663 </i>
   </energy>
  </scstep>
  <scstep>
   <time name="diag">   11.94   11.94</time>
   <time name="diis">   39.49   39.50</time>
   <time name="orth">    2.58    2.58</time>
   <time name="total">   59.25   59.26</time>
   <energy>
    <i name="e_fr_energy">   -879.54022436 </i>
    <i name="e_wo_entrp">   -879.59735080 </i>
    <i name="e_0_energy">   -879.55926651 </i>
   </energy>
  </scstep>
  <scstep>
   <time name="diag">   12.51   12.51</time>
   <time name="diis">   39.30   39.32</time>
   <time name="orth">    2.59    2.59</time>
   <time name="total">   59.68   59.71</time>
   <energy>
    <i name="e_fr_energy">   -879.54021202 </i>
    <i name="e_wo_entrp">   -879.59749947 </i>
    <i name="e_0_energy">   -879.55930784 </i>
   </energy>
  </scstep>
  <scstep>
   <time name="diag">   12.52   12.52</time>
   <time name="diis">   37.94   37.94</time>
   <time name="orth">    2.53    2.53</time>
   <time name="total">   58.10   58.10</time>
   <energy>
    <i name="e_fr_energy">   -879.54019785 </i>
    <i name="e_wo_entrp">   -879.59766605 </i>
    <i name="e_0_energy">   -879.55935391 </i>
   </energy>
  </scstep>
  <scstep>
   <time name="diag">   12.30   12.30</time>
   <time name="diis">   35.53   35.53</time>
   <time name="orth">    2.50    2.50</time>
   <time name="total">   55.31   55.33</time>
   <energy>
    <i name="e_fr_energy">   -879.54018380 </i>
    <i name="e_wo_entrp">   -879.59783025 </i>
    <i name="e_0_energy">   -879.55939928 </i>
   </energy>
  </scstep>
  <scstep>
   <time name="diag">   11.66   11.66</time>
   <time name="diis">   33.02   33.02</time>
   <time name="orth">    2.53    2.53</time>
   <time name="total">   52.30   52.31</time>
   <energy>
    <i name="e_fr_energy">   -879.54017258 </i>
    <i name="e_wo_entrp">   -879.59796375 </i>
    <i name="e_0_energy">   -879.55943630 </i>
   </energy>
  </scstep>
  <scstep>
   <time name="diag">   12.15   12.15</time>
   <time name="diis">   33.77   33.77</time>
   <time name="orth">    2.54    2.54</time>
   <time name="total">   53.65   53.65</time>
   <energy>
    <i name="e_fr_energy">   -879.54016450 </i>
    <i name="e_wo_entrp">   -879.59806492 </i>
    <i name="e_0_energy">   -879.55946464 </i>
   </energy>
  </scstep>
  <scstep>
   <time name="diag">   12.20   12.20</time>
   <time name="diis">   32.18   32.18</time>
   <time name="orth">    2.51    2.51</time>
   <time name="total">   51.95   51.96</time>
   <energy>
    <i name="e_fr_energy">   -879.54015602 </i>
    <i name="e_wo_entrp">   -879.59816920 </i>
    <i name="e_0_energy">   -879.55949375 </i>
   </energy>
  </scstep>
  <scstep>
   <time name="diag">   11.76   11.76</time>
   <time name="diis">   32.35   32.35</time>
   <time name="orth">    2.55    2.55</time>
   <time name="total">   51.77   51.77</time>
   <energy>
    <i name="e_fr_energy">   -879.54014783 </i>
    <i name="e_wo_entrp">   -879.59826893 </i>
    <i name="e_0_energy">   -879.55952153 </i>
   </energy>
  </scstep>
  <scstep>
   <time name="diag">   12.24   12.25</time>
   <time name="diis">   32.33   32.33</time>
   <time name="orth">    2.58    2.58</time>
   <time name="total">   52.32   52.32</time>
   <energy>
    <i name="e_fr_energy">   -879.54014113 </i>
    <i name="e_wo_entrp">   -879.59835234 </i>
    <i name="e_0_energy">   -879.55954487 </i>
   </energy>
  </scstep>
  <scstep>
   <time name="diag">   12.40   12.40</time>
   <time name="diis">   31.93   31.94</time>
   <time name="orth">    2.58    2.58</time>
   <time name="total">   52.07   52.08</time>
   <energy>
    <i name="e_fr_energy">   -879.54013567 </i>
    <i name="e_wo_entrp">   -879.59842211 </i>
    <i name="e_0_energy">   -879.55956448 </i>
   </energy>
  </scstep>
  <scstep>
   <time name="diag">   12.34   12.34</time>
   <time name="diis">   29.68   29.69</time>
   <time name="orth">    2.55    2.56</time>
   <time name="total">   49.65   49.71</time>
   <energy>
    <i name="e_fr_energy">   -879.54013110 </i>
    <i name="e_wo_entrp">   -879.59848166 </i>
    <i name="e_0_energy">   -879.55958128 </i>
   </energy>
  </scstep>
  <scstep>
   <time name="diag">   12.15   12.15</time>
   <time name="diis">   30.54   30.54</time>
   <time name="orth">    2.58    2.58</time>
   <time name="total">   50.44   50.44</time>
   <energy>
    <i name="e_fr_energy">   -879.54012606 </i>
    <i name="e_wo_entrp">   -879.59854539 </i>
    <i name="e_0_energy">   -879.55959917 </i>
   </energy>
  </scstep>
  <scstep>
   <time name="diag">   12.36   12.36</time>
   <time name="diis">   29.36   29.36</time>
   <time name="orth">    2.57    2.57</time>
   <time name="total">   49.46   49.46</time>
   <energy>
    <i name="e_fr_energy">   -879.54012203 </i>
    <i name="e_wo_entrp">   -879.59859766 </i>
    <i name="e_0_energy">   -879.55961390 </i>
   </energy>
  </scstep>
  <scstep>
   <time name="diag">   12.37   12.37</time>
   <time name="diis">   29.30   29.30</time>
   <time name="orth">    2.50    2.50</time>
   <time name="total">   49.11   49.11</time>
   <energy>
    <i name="e_fr_energy">   -879.54011851 </i>
    <i name="e_wo_entrp">   -879.59864383 </i>
    <i name="e_0_energy">   -879.55962695 </i>
   </energy>
  </scstep>
  <scstep>
   <time name="diag">   11.83   11.83</time>
   <time name="diis">   28.43   28.43</time>
   <time name="orth">    2.58    2.58</time>
   <time name="total">   47.99   47.99</time>
   <energy>
    <i name="e_fr_energy">   -879.54011530 </i>
    <i name="e_wo_entrp">   -879.59868620 </i>
    <i name="e_0_energy">   -879.55963893 </i>
   </energy>
  </scstep>
  <scstep>
   <time name="diag">   12.35   12.35</time>
   <time name="diis">   29.22   29.22</time>
   <time name="orth">    2.57    2.57</time>
   <time name="total">   49.30   49.31</time>
   <energy>
    <i name="e_fr_energy">   -879.54011234 </i>
    <i name="e_wo_entrp">   -879.59872525 </i>
    <i name="e_0_energy">   -879.55964998 </i>
   </energy>
  </scstep>
  <scstep>
   <time name="diag">   12.33   12.33</time>
   <time name="diis">   28.89   28.89</time>
   <time name="orth">    2.58    2.58</time>
   <time name="total">   48.98   48.99</time>
   <energy>
    <i name="e_fr_energy">   -879.54010962 </i>
    <i name="e_wo_entrp">   -879.59876118 </i>
    <i name="e_0_energy">   -879.55966014 </i>
   </energy>
  </scstep>
  <scstep>
   <time name="diag">   12.43   12.43</time>
   <time name="diis">   30.31   30.31</time>
   <time name="orth">    2.48    2.48</time>
   <time name="total">   50.19   50.20</time>
   <energy>
    <i name="e_fr_energy">   -879.54010712 </i>
    <i name="e_wo_entrp">   -879.59879435 </i>
    <i name="e_0_energy">   -879.55966953 </i>
   </energy>
  </scstep>
  <scstep>
   <time name="diag">   12.13   12.13</time>
   <time name="diis">   28.90   28.90</time>
   <time name="orth">    2.58    2.58</time>
   <time name="total">   48.84   48.84</time>
   <energy>
    <i name="e_fr_energy">   -879.54010458 </i>
    <i name="e_wo_entrp">   -879.59882735 </i>
    <i name="e_0_energy">   -879.55967884 </i>
   </energy>
  </scstep>
  <scstep>
   <time name="diag">   12.44   12.44</time>
   <time name="diis">   28.35   28.35</time>
   <time name="orth">    2.58    2.58</time>
   <time name="total">   48.60   48.60</time>
   <energy>
    <i name="e_fr_energy">   -879.54010187 </i>
    <i name="e_wo_entrp">   -879.59886142 </i>
    <i name="e_0_energy">   -879.55968838 </i>
   </energy>
  </scstep>
  <scstep>
   <time name="diag">   12.41   12.41</time>
   <time name="diis">   28.11   28.11</time>
   <time name="orth">    2.57    2.57</time>
   <time name="total">   48.34   48.34</time>
   <energy>
    <i name="e_fr_energy">   -879.54009981 </i>
    <i name="e_wo_entrp">   -879.59888830 </i>
    <i name="e_0_energy">   -879.55969597 </i>
   </energy>
  </scstep>
  <scstep>
   <time name="diag">   12.42   12.42</time>
   <time name="diis">   27.42   27.42</time>
   <time name="orth">    2.48    2.48</time>
   <time name="total">   47.30   47.32</time>
   <energy>
    <i name="e_fr_energy">   -879.54009758 </i>
    <i name="e_wo_entrp">   -879.59891652 </i>
    <i name="e_0_energy">   -879.55970389 </i>
   </energy>
  </scstep>
  <scstep>
   <time name="diag">   12.06   12.06</time>
   <time name="diis">   27.49   27.49</time>
   <time name="orth">    2.58    2.58</time>
   <time name="total">   47.28   47.28</time>
   <energy>
    <i name="e_fr_energy">   -879.54009589 </i>
    <i name="e_wo_entrp">   -879.59893865 </i>
    <i name="e_0_energy">   -879.55971015 </i>
   </energy>
  </scstep>
  <scstep>
   <time name="diag">   12.38   12.38</time>
   <time name="diis">   27.77   27.77</time>
   <time name="orth">    2.58    2.58</time>
   <time name="total">   47.89   47.89</time>
   <energy>
    <i name="e_fr_energy">   -879.54009443 </i>
    <i name="e_wo_entrp">   -879.59895814 </i>
    <i name="e_0_energy">   -879.55971567 </i>
   </energy>
  </scstep>
  <scstep>
   <time name="diag">   12.39   12.39</time>
   <time name="diis">   27.98   28.00</time>
   <time name="orth">    2.57    2.57</time>
   <time name="total">   48.10   48.12</time>
   <energy>
    <i name="e_fr_energy">   -879.54009310 </i>
    <i name="e_wo_entrp">   -879.59897590 </i>
    <i name="e_0_energy">   -879.55972070 </i>
   </energy>
  </scstep>
  <scstep>
   <time name="diag">   12.38   12.38</time>
   <time name="diis">   26.42   26.42</time>
   <time name="orth">    2.54    2.54</time>
   <time name="total">   46.39   46.39</time>
   <energy>
    <i name="e_fr_energy">   -879.54009189 </i>
    <i name="e_wo_entrp">   -879.59899218 </i>
    <i name="e_0_energy">   -879.55972532 </i>
   </energy>
  </scstep>
  <scstep>
   <time name="diag">   12.04   12.04</time>
   <time name="diis">   27.25   27.27</time>
   <time name="orth">    2.58    2.58</time>
   <time name="total">   47.02   47.05</time>
   <energy>
    <i name="e_fr_energy">   -879.54009078 </i>
    <i name="e_wo_entrp">   -879.59900710 </i>
    <i name="e_0_energy">   -879.55972955 </i>
   </energy>
  </scstep>
  <scstep>
   <time name="diag">   12.34   12.34</time>
   <time name="diis">   27.56   27.56</time>
   <time name="orth">    2.60    2.60</time>
   <time name="total">   47.68   47.69</time>
   <energy>
    <i name="e_fr_energy">   -879.54008976 </i>
    <i name="e_wo_entrp">   -879.59902080 </i>
    <i name="e_0_energy">   -879.55973344 </i>
   </energy>
  </scstep>
  <scstep>
   <time name="diag">   12.34   12.34</time>
   <time name="diis">   27.25   27.25</time>
   <time name="orth">    2.58    2.58</time>
   <time name="total">   42.52   42.53</time>
   <energy>
    <i name="alphaZ">   7300.31925852 </i>
    <i name="ewald"> -66232.83996889 </i>
    <i name="hartreedc">  -9349.49842747 </i>
    <i name="XCdc">    360.57245306 </i>
    <i name="pawpsdc">  58020.99467678 </i>
    <i name="pawaedc"> -58957.28497363 </i>
    <i name="eentropy">      0.05894453 </i>
    <i name="bandstr">   3776.46706768 </i>
    <i name="atom">  64201.67088057 </i>
    <i name="e_fr_energy">   -879.54008883 </i>
    <i name="e_wo_entrp">   -879.59903336 </i>
    <i name="e_0_energy">   -879.55973700 </i>
   </energy>
  </scstep>
  <structure>
   <crystal>
    <varray name="basis" >
     <v>      10.33484705       0.00000000       0.00000000 </v>
     <v>       0.00000000      10.33484705       0.00000000 </v>
     <v>       0.00000000       0.00000000      10.33484705 </v>
    </varray>
    <i name="volume">   1103.85533447 </i>
    <varray name="rec_basis" >
     <v>       0.09676002       0.00000000       0.00000000 </v>
     <v>       0.00000000       0.09676002       0.00000000 </v>
     <v>       0.00000000       0.00000000       0.09676002 </v>
    </varray>
   </crystal>
   <varray name="positions" >
    <v>       0.00000000       0.00000000       0.00000000 </v>
    <v>       0.00000000       0.16666893       0.16666893 </v>
    <v>       0.16666893       0.00000000       0.16666893 </v>
    <v>       0.16666893       0.16666893       0.00000000 </v>
    <v>       0.33333106       0.00000000       0.00000000 </v>
    <v>       0.33333107       0.16666893       0.16666893 </v>
    <v>       0.50000000       0.00000000       0.16666894 </v>
    <v>       0.50000000       0.16666894       0.00000000 </v>
    <v>       0.66666897       0.00000000       0.00000000 </v>
    <v>       0.66666896       0.16666893       0.16666893 </v>
    <v>       0.83333104       0.00000000       0.16666893 </v>
    <v>       0.83333104       0.16666893       0.00000000 </v>
    <v>       0.00000000       0.33333106       0.00000000 </v>
    <v>       0.00000000       0.50000000       0.16666894 </v>
    <v>       0.16666893       0.33333107       0.16666893 </v>
    <v>       0.16666894       0.50000000       0.00000000 </v>
    <v>       0.33333107       0.33333107       0.00000000 </v>
    <v>       0.33333107       0.50000000       0.16666893 </v>
    <v>       0.50000000       0.33333107       0.16666893 </v>
    <v>       0.50000000       0.50000000       0.00000000 </v>
    <v>       0.66666896       0.33333107       0.00000000 </v>
    <v>       0.66666896       0.50000000       0.16666893 </v>
    <v>       0.83333104       0.33333107       0.16666893 </v>
    <v>       0.83333103       0.50000000       0.00000000 </v>
    <v>       0.00000000       0.66666897       0.00000000 </v>
    <v>       0.00000000       0.83333104       0.16666893 </v>
    <v>       0.16666893       0.66666896       0.16666893 </v>
    <v>       0.16666893       0.83333104       0.00000000 </v>
    <v>       0.33333107       0.66666896       0.00000000 </v>
    <v>       0.33333107       0.83333104       0.16666893 </v>
    <v>       0.50000000       0.66666896       0.16666893 </v>
    <v>       0.50000000       0.83333103       0.00000000 </v>
    <v>       0.66666896       0.66666896       0.00000000 </v>
    <v>       0.66666896       0.83333104       0.16666893 </v>
    <v>       0.83333104       0.66666896       0.16666893 </v>
    <v>       0.83333104       0.83333104       0.00000000 </v>
    <v>       0.00000000       0.00000000       0.33333106 </v>
    <v>       0.00000000       0.16666894       0.50000000 </v>
    <v>       0.16666894       0.00000000       0.50000000 </v>
    <v>       0.16666893       0.16666893       0.33333107 </v>
    <v>       0.33333107       0.00000000       0.33333107 </v>
    <v>       0.33333107       0.16666893       0.50000000 </v>
    <v>       0.50000000       0.00000000       0.50000000 </v>
    <v>       0.50000000       0.16666893       0.33333107 </v>
    <v>       0.66666896       0.00000000       0.33333107 </v>
    <v>       0.66666896       0.16666893       0.50000000 </v>
    <v>       0.83333103       0.00000000       0.50000000 </v>
    <v>       0.83333104       0.16666893       0.33333107 </v>
    <v>       0.00000000       0.33333107       0.33333107 </v>
    <v>       0.00000000       0.50000000       0.50000000 </v>
    <v>       0.16666893       0.33333107       0.50000000 </v>
    <v>       0.16666893       0.50000000       0.33333107 </v>
    <v>       0.33333107       0.33333107       0.33333107 </v>
    <v>       0.33333106       0.50000000       0.50000000 </v>
    <v>       0.50000000       0.33333106       0.50000000 </v>
    <v>       0.50000000       0.50000000       0.33333106 </v>
    <v>       0.66666896       0.33333107       0.33333107 </v>
    <v>       0.66666897       0.50000000       0.50000000 </v>
    <v>       0.83333104       0.33333107       0.50000000 </v>
    <v>       0.83333104       0.50000000       0.33333107 </v>
    <v>       0.00000000       0.66666896       0.33333107 </v>
    <v>       0.00000000       0.83333103       0.50000000 </v>
    <v>       0.16666893       0.66666896       0.50000000 </v>
    <v>       0.16666893       0.83333104       0.33333107 </v>
    <v>       0.33333107       0.66666896       0.33333107 </v>
    <v>       0.33333107       0.83333104       0.50000000 </v>
    <v>       0.50000000       0.66666897       0.50000000 </v>
    <v>       0.50000000       0.83333104       0.33333107 </v>
    <v>       0.66666896       0.66666896       0.33333107 </v>
    <v>       0.66666896       0.83333104       0.50000000 </v>
    <v>       0.83333104       0.66666896       0.50000000 </v>
    <v>       0.83333104       0.83333104       0.33333107 </v>
    <v>       0.00000000       0.00000000       0.66666897 </v>
    <v>       0.00000000       0.16666893       0.83333104 </v>
    <v>       0.16666893       0.00000000       0.83333104 </v>
    <v>       0.16666893       0.16666893       0.66666896 </v>
    <v>       0.33333107       0.00000000       0.66666896 </v>
    <v>       0.33333107       0.16666893       0.83333104 </v>
    <v>       0.50000000       0.00000000       0.83333103 </v>
    <v>       0.50000000       0.16666893       0.66666896 </v>
    <v>       0.66666896       0.00000000       0.66666896 </v>
    <v>       0.66666896       0.16666893       0.83333104 </v>
    <v>       0.83333104       0.00000000       0.83333104 </v>
    <v>       0.83333104       0.16666893       0.66666896 </v>
    <v>       0.00000000       0.33333107       0.66666896 </v>
    <v>       0.00000000       0.50000000       0.83333103 </v>
    <v>       0.16666893       0.33333107       0.83333104 </v>
    <v>       0.16666893       0.50000000       0.66666896 </v>
    <v>       0.33333107       0.33333107       0.66666896 </v>
    <v>       0.33333107       0.50000000       0.83333104 </v>
    <v>       0.50000000       0.33333107       0.83333104 </v>
    <v>       0.50000000       0.50000000       0.66666897 </v>
    <v>       0.66666896       0.33333107       0.66666896 </v>
    <v>       0.66666896       0.50000000       0.83333104 </v>
    <v>       0.83333104       0.33333107       0.83333104 </v>
    <v>       0.83333104       0.50000000       0.66666896 </v>
    <v>       0.00000000       0.66666896       0.66666896 </v>
    <v>       0.00000000       0.83333104       0.83333104 </v>
    <v>       0.16666893       0.66666896       0.83333104 </v>
    <v>       0.16666893       0.83333104       0.66666896 </v>
    <v>       0.33333107       0.66666896       0.66666896 </v>
    <v>       0.33333107       0.83333104       0.83333104 </v>
    <v>       0.50000000       0.66666896       0.83333104 </v>
    <v>       0.50000000       0.83333104       0.66666896 </v>
    <v>       0.66666896       0.66666896       0.66666896 </v>
    <v>       0.66666896       0.83333104       0.83333104 </v>
    <v>       0.83333104       0.66666896       0.83333104 </v>
    <v>       0.83333104       0.83333104       0.66666896 </v>
   </varray>
  </structure>
  <varray name="forces" >
   <v>       0.00000000      -0.00000000       0.00000000 </v>
   <v>       0.00000000      -0.00000000       0.00000000 </v>
   <v>       0.00000000      -0.00000000       0.00000000 </v>
   <v>      -0.00000000      -0.00000000      -0.00000000 </v>
   <v>      -0.00000000      -0.00000000      -0.00000000 </v>
   <v>      -0.00000000      -0.00000000      -0.00000000 </v>
   <v>      -0.00000000       0.00000000       0.00000000 </v>
   <v>       0.00000000       0.00000000      -0.00000000 </v>
   <v>      -0.00000000       0.00000000       0.00000000 </v>
   <v>      -0.00000000      -0.00000000      -0.00000000 </v>
   <v>       0.00000000      -0.00000000       0.00000000 </v>
   <v>      -0.00000000       0.00000000      -0.00000000 </v>
   <v>       0.00000000       0.00000000      -0.00000000 </v>
   <v>      -0.00000000       0.00000000       0.00000000 </v>
   <v>      -0.00000000      -0.00000000      -0.00000000 </v>
   <v>      -0.00000000      -0.00000000      -0.00000000 </v>
   <v>      -0.00000000       0.00000000       0.00000000 </v>
   <v>       0.00000000       0.00000000       0.00000000 </v>
   <v>       0.00000000       0.00000000       0.00000000 </v>
   <v>       0.00000000      -0.00000000       0.00000000 </v>
   <v>       0.00000000      -0.00000000       0.00000000 </v>
   <v>      -0.00000000       0.00000000      -0.00000000 </v>
   <v>       0.00000000      -0.00000000       0.00000000 </v>
   <v>      -0.00000000      -0.00000000       0.00000000 </v>
   <v>       0.00000000       0.00000000       0.00000000 </v>
   <v>      -0.00000000      -0.00000000      -0.00000000 </v>
   <v>      -0.00000000      -0.00000000      -0.00000000 </v>
   <v>       0.00000000       0.00000000      -0.00000000 </v>
   <v>       0.00000000       0.00000000       0.00000000 </v>
   <v>      -0.00000000      -0.00000000       0.00000000 </v>
   <v>      -0.00000000       0.00000000      -0.00000000 </v>
   <v>       0.00000000       0.00000000      -0.00000000 </v>
   <v>       0.00000000       0.00000000      -0.00000000 </v>
   <v>       0.00000000      -0.00000000       0.00000000 </v>
   <v>       0.00000000      -0.00000000      -0.00000000 </v>
   <v>       0.00000000      -0.00000000      -0.00000000 </v>
   <v>       0.00000000      -0.00000000      -0.00000000 </v>
   <v>       0.00000000       0.00000000      -0.00000000 </v>
   <v>       0.00000000      -0.00000000       0.00000000 </v>
   <v>       0.00000000       0.00000000       0.00000000 </v>
   <v>      -0.00000000      -0.00000000       0.00000000 </v>
   <v>       0.00000000      -0.00000000      -0.00000000 </v>
   <v>       0.00000000       0.00000000       0.00000000 </v>
   <v>      -0.00000000       0.00000000       0.00000000 </v>
   <v>       0.00000000       0.00000000      -0.00000000 </v>
   <v>      -0.00000000      -0.00000000      -0.00000000 </v>
   <v>      -0.00000000      -0.00000000       0.00000000 </v>
   <v>       0.00000000       0.00000000      -0.00000000 </v>
   <v>       0.00000000       0.00000000       0.00000000 </v>
   <v>      -0.00000000      -0.00000000       0.00000000 </v>
   <v>      -0.00000000      -0.00000000       0.00000000 </v>
   <v>       0.00000000       0.00000000       0.00000000 </v>
   <v>       0.00000000       0.00000000      -0.00000000 </v>
   <v>       0.00000000       0.00000000      -0.00000000 </v>
   <v>       0.00000000      -0.00000000      -0.00000000 </v>
   <v>       0.00000000      -0.00000000       0.00000000 </v>
   <v>       0.00000000       0.00000000      -0.00000000 </v>
   <v>      -0.00000000       0.00000000      -0.00000000 </v>
   <v>      -0.00000000      -0.00000000       0.00000000 </v>
   <v>       0.00000000      -0.00000000      -0.00000000 </v>
   <v>      -0.00000000      -0.00000000      -0.00000000 </v>
   <v>       0.00000000       0.00000000       0.00000000 </v>
   <v>      -0.00000000      -0.00000000      -0.00000000 </v>
   <v>       0.00000000      -0.00000000       0.00000000 </v>
   <v>       0.00000000      -0.00000000       0.00000000 </v>
   <v>       0.00000000      -0.00000000      -0.00000000 </v>
   <v>      -0.00000000       0.00000000      -0.00000000 </v>
   <v>       0.00000000       0.00000000       0.00000000 </v>
   <v>      -0.00000000       0.00000000      -0.00000000 </v>
   <v>      -0.00000000       0.00000000      -0.00000000 </v>
   <v>       0.00000000       0.00000000      -0.00000000 </v>
   <v>       0.00000000      -0.00000000       0.00000000 </v>
   <v>      -0.00000000       0.00000000       0.00000000 </v>
   <v>       0.00000000       0.00000000       0.00000000 </v>
   <v>      -0.00000000      -0.00000000      -0.00000000 </v>
   <v>      -0.00000000       0.00000000       0.00000000 </v>
   <v>       0.00000000      -0.00000000      -0.00000000 </v>
   <v>      -0.00000000      -0.00000000       0.00000000 </v>
   <v>       0.00000000       0.00000000      -0.00000000 </v>
   <v>      -0.00000000       0.00000000      -0.00000000 </v>
   <v>       0.00000000       0.00000000       0.00000000 </v>
   <v>       0.00000000       0.00000000       0.00000000 </v>
   <v>      -0.00000000      -0.00000000      -0.00000000 </v>
   <v>       0.00000000       0.00000000      -0.00000000 </v>
   <v>      -0.00000000      -0.00000000       0.00000000 </v>
   <v>       0.00000000       0.00000000      -0.00000000 </v>
   <v>       0.00000000      -0.00000000      -0.00000000 </v>
   <v>       0.00000000       0.00000000      -0.00000000 </v>
   <v>       0.00000000      -0.00000000       0.00000000 </v>
   <v>       0.00000000       0.00000000      -0.00000000 </v>
   <v>       0.00000000       0.00000000       0.00000000 </v>
   <v>       0.00000000       0.00000000      -0.00000000 </v>
   <v>       0.00000000      -0.00000000       0.00000000 </v>
   <v>      -0.00000000       0.00000000       0.00000000 </v>
   <v>       0.00000000      -0.00000000      -0.00000000 </v>
   <v>       0.00000000      -0.00000000      -0.00000000 </v>
   <v>      -0.00000000       0.00000000       0.00000000 </v>
   <v>       0.00000000       0.00000000       0.00000000 </v>
   <v>       0.00000000      -0.00000000       0.00000000 </v>
   <v>       0.00000000      -0.00000000      -0.00000000 </v>
   <v>       0.00000000      -0.00000000      -0.00000000 </v>
   <v>       0.00000000      -0.00000000       0.00000000 </v>
   <v>       0.00000000       0.00000000       0.00000000 </v>
   <v>       0.00000000       0.00000000      -0.00000000 </v>
   <v>      -0.00000000       0.00000000      -0.00000000 </v>
   <v>      -0.00000000       0.00000000       0.00000000 </v>
   <v>       0.00000000      -0.00000000       0.00000000 </v>
   <v>      -0.00000000      -0.00000000      -0.00000000 </v>
  </varray>
  <varray name="stress" >
   <v>      -0.45562312       0.00000000      -0.00000000 </v>
   <v>      -0.00000000      -0.45562312      -0.00000000 </v>
   <v>      -0.00000000       0.00000000      -0.45562312 </v>
  </varray>
  <energy>
   <i name="e_fr_energy">   -879.54008883 </i>
   <i name="e_wo_entrp">   -879.55973700 </i>
   <i name="e_0_energy">      0.05894453 </i>
  </energy>
  <time name="totalsc"> 3312.68 3313.38</time>
  <eigenvalues>
   <array>
    <dimension dim="1">band</dimension>
    <dimension dim="2">kpoint</dimension>
    <dimension dim="3">spin</dimension>
    <field>eigene</field>
    <field>occ</field>
    <set>
     <set comment="spin 1">
      <set comment="kpoint 1">
       <r>   -1.9674    1.0000 </r>
       <r>   -0.7120    1.0000 </r>
       <r>   -0.7120    1.0000 </r>
       <r>   -0.7120    1.0000 </r>
       <r>   -0.2542    1.0000 </r>
       <r>   -0.2542    1.0000 </r>
       <r>   -0.2542    1.0000 </r>
       <r>    0.4022    1.0000 </r>
       <r>    0.4022    1.0000 </r>
       <r>    0.4022    1.0000 </r>
       <r>    0.8039    1.0000 </r>
       <r>    0.8039    1.0000 </r>
       <r>    0.8039    1.0000 </r>
       <r>    0.8039    1.0000 </r>
       <r>    0.8039    1.0000 </r>
       <r>    0.8039    1.0000 </r>
       <r>    1.1155    1.0000 </r>
       <r>    1.1807    1.0000 </r>
       <r>    1.1807    1.0000 </r>
       <r>    1.1807    1.0000 </r>
       <r>    1.3526    1.0000 </r>
       <r>    1.3526    1.0000 </r>
       <r>    1.3526    1.0000 </r>
       <r>    1.5312    1.0000 </r>
       <r>    1.5312    1.0000 </r>
       <r>    1.5312    1.0000 </r>
       <r>    1.6494    1.0000 </r>
       <r>    1.8363    1.0000 </r>
       <r>    1.8363    1.0000 </r>
       <r>    1.8363    1.0000 </r>
       <r>    1.8829    1.0000 </r>
       <r>    1.8829    1.0000 </r>
       <r>    1.8829    1.0000 </r>
       <r>    1.9652    1.0000 </r>
       <r>    1.9652    1.0000 </r>
       <r>    1.9652    1.0000 </r>
       <r>    2.4364    1.0000 </r>
       <r>    2.4364    1.0000 </r>
       <r>    2.4364    1.0000 </r>
       <r>    2.5106    1.0000 </r>
       <r>    2.5106    1.0000 </r>
       <r>    2.5106    1.0000 </r>
       <r>    2.5106    1.0000 </r>
       <r>    2.5106    1.0000 </r>
       <r>    2.5106    1.0000 </r>
       <r>    2.5362    1.0000 </r>
       <r>    2.5362    1.0000 </r>
       <r>    2.5362    1.0000 </r>
       <r>    2.5780    1.0000 </r>
       <r>    2.5780    1.0000 </r>
       <r>    2.5780    1.0000 </r>
       <r>    2.5780    1.0000 </r>
       <r>    2.5780    1.0000 </r>
       <r>    2.5780    1.0000 </r>
       <r>    2.6224    1.0000 </r>
       <r>    2.6224    1.0000 </r>
       <r>    2.6224    1.0000 </r>
       <r>    2.6309    1.0000 </r>
       <r>    2.6309    1.0000 </r>
       <r>    2.6309    1.0000 </r>
       <r>    2.6793    1.0000 </r>
       <r>    2.6793    1.0000 </r>
       <r>    2.6793    1.0000 </r>
       <r>    2.6793    1.0000 </r>
       <r>    2.6793    1.0000 </r>
       <r>    2.6793    1.0000 </r>
       <r>    2.7076    1.0000 </r>
       <r>    2.7076    1.0000 </r>
       <r>    2.7076    1.0000 </r>
       <r>    2.7076    1.0000 </r>
       <r>    2.7076    1.0000 </r>
       <r>    2.7076    1.0000 </r>
       <r>    2.7294    1.0000 </r>
       <r>    2.7294    1.0000 </r>
       <r>    2.7294    1.0000 </r>
       <r>    2.7739    1.0000 </r>
       <r>    2.7739    1.0000 </r>
       <r>    2.7739    1.0000 </r>
       <r>    2.7739    1.0000 </r>
       <r>    2.7739    1.0000 </r>
       <r>    2.7739    1.0000 </r>
       <r>    2.7882    1.0000 </r>
       <r>    2.7882    1.0000 </r>
       <r>    2.7882    1.0000 </r>
       <r>    2.7882    1.0000 </r>
       <r>    2.7882    1.0000 </r>
       <r>    2.7882    1.0000 </r>
       <r>    2.9394    1.0000 </r>
       <r>    2.9394    1.0000 </r>
       <r>    2.9394    1.0000 </r>
       <r>    2.9394    1.0000 </r>
       <r>    2.9394    1.0000 </r>
       <r>    2.9394    1.0000 </r>
       <r>    3.0441    1.0000 </r>
       <r>    3.0441    1.0000 </r>
       <r>    3.0441    1.0000 </r>
       <r>    3.0441    1.0000 </r>
       <r>    3.0441    1.0000 </r>
       <r>    3.0441    1.0000 </r>
       <r>    3.1075    1.0000 </r>
       <r>    3.1075    1.0000 </r>
       <r>    3.1075    1.0000 </r>
       <r>    3.1442    1.0000 </r>
       <r>    3.1442    1.0000 </r>
       <r>    3.1442    1.0000 </r>
       <r>    3.2156    1.0000 </r>
       <r>    3.2156    1.0000 </r>
       <r>    3.2156    1.0000 </r>
       <r>    3.2156    1.0000 </r>
       <r>    3.2156    1.0000 </r>
       <r>    3.2156    1.0000 </r>
       <r>    3.2869    1.0000 </r>
       <r>    3.2869    1.0000 </r>
       <r>    3.2869    1.0000 </r>
       <r>    3.3234    1.0000 </r>
       <r>    3.3234    1.0000 </r>
       <r>    3.3234    1.0000 </r>
       <r>    3.3234    1.0000 </r>
       <r>    3.3234    1.0000 </r>
       <r>    3.3234    1.0000 </r>
       <r>    3.4378    1.0000 </r>
       <r>    3.4378    1.0000 </r>
       <r>    3.4378    1.0000 </r>
       <r>    3.4519    1.0000 </r>
       <r>    3.4519    1.0000 </r>
       <r>    3.4519    1.0000 </r>
       <r>    3.4519    1.0000 </r>
       <r>    3.4519    1.0000 </r>
       <r>    3.4519    1.0000 </r>
       <r>    3.4909    1.0000 </r>
       <r>    3.4909    1.0000 </r>
       <r>    3.4909    1.0000 </r>
       <r>    3.5601    1.0000 </r>
       <r>    3.5601    1.0000 </r>
       <r>    3.5601    1.0000 </r>
       <r>    3.5601    1.0000 </r>
       <r>    3.5601    1.0000 </r>
       <r>    3.5601    1.0000 </r>
       <r>    3.5722    1.0000 </r>
       <r>    3.5722    1.0000 </r>
       <r>    3.5722    1.0000 </r>
       <r>    3.5722    1.0000 </r>
       <r>    3.5722    1.0000 </r>
       <r>    3.5722    1.0000 </r>
       <r>    3.6612    1.0000 </r>
       <r>    3.6612    1.0000 </r>
       <r>    3.6612    1.0000 </r>
       <r>    3.6850    1.0000 </r>
       <r>    3.6850    1.0000 </r>
       <r>    3.6850    1.0000 </r>
       <r>    3.6850    1.0000 </r>
       <r>    3.6850    1.0000 </r>
       <r>    3.6850    1.0000 </r>
       <r>    3.7324    1.0000 </r>
       <r>    3.7324    1.0000 </r>
       <r>    3.7324    1.0000 </r>
       <r>    3.7324    1.0000 </r>
       <r>    3.7324    1.0000 </r>
       <r>    3.7324    1.0000 </r>
       <r>    3.8344    1.0000 </r>
       <r>    3.8344    1.0000 </r>
       <r>    3.8344    1.0000 </r>
       <r>    3.8344    1.0000 </r>
       <r>    3.8344    1.0000 </r>
       <r>    3.8344    1.0000 </r>
       <r>    4.0498    1.0000 </r>
       <r>    4.0498    1.0000 </r>
       <r>    4.0498    1.0000 </r>
       <r>    4.1808    1.0000 </r>
       <r>    4.1808    1.0000 </r>
       <r>    4.1808    1.0000 </r>
       <r>    4.1808    1.0000 </r>
       <r>    4.1808    1.0000 </r>
       <r>    4.1808    1.0000 </r>
       <r>    4.2771    1.0000 </r>
       <r>    4.2771    1.0000 </r>
       <r>    4.2771    1.0000 </r>
       <r>    4.2928    1.0000 </r>
       <r>    4.2928    1.0000 </r>
       <r>    4.2928    1.0000 </r>
       <r>    4.3195    1.0000 </r>
       <r>    4.3195    1.0000 </r>
       <r>    4.3195    1.0000 </r>
       <r>    4.3390    1.0000 </r>
       <r>    4.3390    1.0000 </r>
       <r>    4.3390    1.0000 </r>
       <r>    4.3390    1.0000 </r>
       <r>    4.3390    1.0000 </r>
       <r>    4.3390    1.0000 </r>
       <r>    4.3608    1.0000 </r>
       <r>    4.3608    1.0000 </r>
       <r>    4.3608    1.0000 </r>
       <r>    4.4082    1.0000 </r>
       <r>    4.4082    1.0000 </r>
       <r>    4.4082    1.0000 </r>
       <r>    4.4082    1.0000 </r>
       <r>    4.4082    1.0000 </r>
       <r>    4.4082    1.0000 </r>
       <r>    4.4323    1.0000 </r>
       <r>    4.4323    1.0000 </r>
       <r>    4.4323    1.0000 </r>
       <r>    4.5126    1.0000 </r>
       <r>    4.5126    1.0000 </r>
       <r>    4.5126    1.0000 </r>
       <r>    4.5126    1.0000 </r>
       <r>    4.5126    1.0000 </r>
       <r>    4.5126    1.0000 </r>
       <r>    4.5348    1.0000 </r>
       <r>    4.5348    1.0000 </r>
       <r>    4.5348    1.0000 </r>
       <r>    4.5361    1.0000 </r>
       <r>    4.5361    1.0000 </r>
       <r>    4.5361    1.0000 </r>
       <r>    4.5361    1.0000 </r>
       <r>    4.5361    1.0000 </r>
       <r>    4.5361    1.0000 </r>
       <r>    4.5665    1.0000 </r>
       <r>    4.5665    1.0000 </r>
       <r>    4.5665    1.0000 </r>
       <r>    4.7119    1.0000 </r>
       <r>    4.7119    1.0000 </r>
       <r>    4.7119    1.0000 </r>
       <r>    4.7638    1.0000 </r>
       <r>    4.7638    1.0000 </r>
       <r>    4.7638    1.0000 </r>
       <r>    4.7638    1.0000 </r>
       <r>    4.7638    1.0000 </r>
       <r>    4.7638    1.0000 </r>
       <r>    4.8167    1.0000 </r>
       <r>    4.8510    1.0000 </r>
       <r>    4.8510    1.0000 </r>
       <r>    4.8510    1.0000 </r>
       <r>    4.8510    1.0000 </r>
       <r>    4.8510    1.0000 </r>
       <r>    4.8510    1.0000 </r>
       <r>    4.8565    1.0000 </r>
       <r>    4.8565    1.0000 </r>
       <r>    4.8565    1.0000 </r>
       <r>    4.8565    1.0000 </r>
       <r>    4.8565    1.0000 </r>
       <r>    4.8565    1.0000 </r>
       <r>    4.9190    1.0000 </r>
       <r>    4.9190    1.0000 </r>
       <r>    4.9190    1.0000 </r>
       <r>    5.0739    1.0000 </r>
       <r>    5.0739    1.0000 </r>
       <r>    5.0739    1.0000 </r>
       <r>    5.1010    1.0000 </r>
       <r>    5.1010    1.0000 </r>
       <r>    5.1010    1.0000 </r>
       <r>    5.1028    1.0000 </r>
       <r>    5.1028    1.0000 </r>
       <r>    5.1028    1.0000 </r>
       <r>    5.1214    1.0000 </r>
       <r>    5.1214    1.0000 </r>
       <r>    5.1214    1.0000 </r>
       <r>    5.1654    1.0000 </r>
       <r>    5.1759    1.0000 </r>
       <r>    5.1759    1.0000 </r>
       <r>    5.1759    1.0000 </r>
       <r>    5.1759    1.0000 </r>
       <r>    5.1759    1.0000 </r>
       <r>    5.1759    1.0000 </r>
       <r>    5.1880    1.0000 </r>
       <r>    5.1880    1.0000 </r>
       <r>    5.2042    1.0000 </r>
       <r>    5.2042    1.0000 </r>
       <r>    5.2042    1.0000 </r>
       <r>    5.2042    1.0000 </r>
       <r>    5.2042    1.0000 </r>
       <r>    5.2042    1.0000 </r>
       <r>    5.2320    1.0000 </r>
       <r>    5.2320    1.0000 </r>
       <r>    5.2320    1.0000 </r>
       <r>    5.2440    1.0000 </r>
       <r>    5.2440    1.0000 </r>
       <r>    5.2440    1.0000 </r>
       <r>    5.2440    1.0000 </r>
       <r>    5.2440    1.0000 </r>
       <r>    5.2440    1.0000 </r>
       <r>    5.2456    1.0000 </r>
       <r>    5.2456    1.0000 </r>
       <r>    5.2758    1.0000 </r>
       <r>    5.2758    1.0000 </r>
       <r>    5.2758    1.0000 </r>
       <r>    5.2932    1.0000 </r>
       <r>    5.2932    1.0000 </r>
       <r>    5.2932    1.0000 </r>
       <r>    5.3048    1.0000 </r>
       <r>    5.3048    1.0000 </r>
       <r>    5.3048    1.0000 </r>
       <r>    5.3190    1.0000 </r>
       <r>    5.3190    1.0000 </r>
       <r>    5.3190    1.0000 </r>
       <r>    5.3227    1.0000 </r>
       <r>    5.3227    1.0000 </r>
       <r>    5.3227    1.0000 </r>
       <r>    5.3227    1.0000 </r>
       <r>    5.3227    1.0000 </r>
       <r>    5.3227    1.0000 </r>
       <r>    5.3442    1.0000 </r>
       <r>    5.3442    1.0000 </r>
       <r>    5.3442    1.0000 </r>
       <r>    5.3614    1.0000 </r>
       <r>    5.3614    1.0000 </r>
       <r>    5.3694    1.0000 </r>
       <r>    5.4032    1.0000 </r>
       <r>    5.4032    1.0000 </r>
       <r>    5.4032    1.0000 </r>
       <r>    5.4470    1.0000 </r>
       <r>    5.4470    1.0000 </r>
       <r>    5.4470    1.0000 </r>
       <r>    5.5066    1.0000 </r>
       <r>    5.5066    1.0000 </r>
       <r>    5.5066    1.0000 </r>
       <r>    5.6245    1.0000 </r>
       <r>    5.6245    1.0000 </r>
       <r>    5.6245    1.0000 </r>
       <r>    5.6245    1.0000 </r>
       <r>    5.6245    1.0000 </r>
       <r>    5.6245    1.0000 </r>
       <r>    5.6459    1.0000 </r>
       <r>    5.6459    1.0000 </r>
       <r>    5.6459    1.0000 </r>
       <r>    5.6471    1.0000 </r>
       <r>    5.6471    1.0000 </r>
       <r>    5.6471    1.0000 </r>
       <r>    5.6523    1.0000 </r>
       <r>    5.6523    1.0000 </r>
       <r>    5.6523    1.0000 </r>
       <r>    5.6606    1.0000 </r>
       <r>    5.6606    1.0000 </r>
       <r>    5.6606    1.0000 </r>
       <r>    5.6606    1.0000 </r>
       <r>    5.6606    1.0000 </r>
       <r>    5.6606    1.0000 </r>
       <r>    5.7252    1.0000 </r>
       <r>    5.7252    1.0000 </r>
       <r>    5.7252    1.0000 </r>
       <r>    5.7715    1.0000 </r>
       <r>    5.7715    1.0000 </r>
       <r>    5.7715    1.0000 </r>
       <r>    5.7715    1.0000 </r>
       <r>    5.7715    1.0000 </r>
       <r>    5.7715    1.0000 </r>
       <r>    5.7962    1.0000 </r>
       <r>    5.7962    1.0000 </r>
       <r>    5.7962    1.0000 </r>
       <r>    5.8180    1.0000 </r>
       <r>    5.8180    1.0000 </r>
       <r>    5.8180    1.0000 </r>
       <r>    5.8307    1.0000 </r>
       <r>    5.8307    1.0000 </r>
       <r>    5.8307    1.0000 </r>
       <r>    5.8803    1.0000 </r>
       <r>    5.8803    1.0000 </r>
       <r>    5.8803    1.0000 </r>
       <r>    5.9259    1.0000 </r>
       <r>    5.9259    1.0000 </r>
       <r>    5.9259    1.0000 </r>
       <r>    5.9259    1.0000 </r>
       <r>    5.9259    1.0000 </r>
       <r>    5.9259    1.0000 </r>
       <r>    5.9751    1.0000 </r>
       <r>    5.9751    1.0000 </r>
       <r>    5.9751    1.0000 </r>
       <r>    6.0782    1.0000 </r>
       <r>    6.0782    1.0000 </r>
       <r>    6.0782    1.0000 </r>
       <r>    6.1780    1.0000 </r>
       <r>    6.1780    1.0000 </r>
       <r>    6.1780    1.0000 </r>
       <r>    6.1884    1.0001 </r>
       <r>    6.1884    1.0001 </r>
       <r>    6.1884    1.0001 </r>
       <r>    6.1884    1.0001 </r>
       <r>    6.1884    1.0001 </r>
       <r>    6.1884    1.0001 </r>
       <r>    6.2055    1.0001 </r>
       <r>    6.2055    1.0001 </r>
       <r>    6.2055    1.0001 </r>
       <r>    6.2056    1.0001 </r>
       <r>    6.2056    1.0001 </r>
       <r>    6.2056    1.0001 </r>
       <r>    6.2720    1.0005 </r>
       <r>    6.2720    1.0005 </r>
       <r>    6.2720    1.0005 </r>
       <r>    6.4058    1.0078 </r>
       <r>    6.4058    1.0078 </r>
       <r>    6.4058    1.0078 </r>
       <r>    6.5214    1.0307 </r>
       <r>    6.5214    1.0307 </r>
       <r>    6.5214    1.0307 </r>
       <r>    6.5214    1.0307 </r>
       <r>    6.5214    1.0307 </r>
       <r>    6.5214    1.0307 </r>
       <r>    6.5478    1.0347 </r>
       <r>    6.5478    1.0347 </r>
       <r>    6.5478    1.0347 </r>
       <r>    6.5478    1.0347 </r>
       <r>    6.5478    1.0347 </r>
       <r>    6.5478    1.0347 </r>
       <r>    6.6473    0.9899 </r>
       <r>    6.6473    0.9899 </r>
       <r>    6.6473    0.9899 </r>
       <r>    6.6887    0.9166 </r>
       <r>    6.6887    0.9166 </r>
       <r>    6.6887    0.9166 </r>
       <r>    6.6887    0.9166 </r>
       <r>    6.6887    0.9166 </r>
       <r>    6.6887    0.9166 </r>
       <r>    6.6968    0.8973 </r>
       <r>    6.6968    0.8973 </r>
       <r>    6.6968    0.8973 </r>
       <r>    6.6968    0.8973 </r>
       <r>    6.6968    0.8973 </r>
       <r>    6.6968    0.8973 </r>
       <r>    6.7325    0.7929 </r>
       <r>    6.7325    0.7929 </r>
       <r>    6.7326    0.7927 </r>
       <r>    6.7331    0.7909 </r>
       <r>    6.7331    0.7909 </r>
       <r>    6.8537    0.3088 </r>
       <r>    6.8537    0.3088 </r>
       <r>    6.8537    0.3088 </r>
       <r>    6.8538    0.3088 </r>
       <r>    6.8538    0.3088 </r>
       <r>    6.8538    0.3088 </r>
       <r>    6.8600    0.2850 </r>
       <r>    6.8600    0.2850 </r>
       <r>    6.8600    0.2850 </r>
       <r>    6.8600    0.2850 </r>
       <r>    6.8600    0.2850 </r>
       <r>    6.8600    0.2850 </r>
       <r>    6.9509    0.0338 </r>
       <r>    6.9509    0.0338 </r>
       <r>    6.9509    0.0338 </r>
       <r>    6.9898   -0.0136 </r>
       <r>    6.9898   -0.0136 </r>
       <r>    6.9898   -0.0136 </r>
       <r>    7.0298   -0.0332 </r>
       <r>    7.0298   -0.0332 </r>
       <r>    7.0298   -0.0332 </r>
       <r>    7.0600   -0.0352 </r>
       <r>    7.0600   -0.0352 </r>
       <r>    7.0600   -0.0352 </r>
       <r>    7.0600   -0.0352 </r>
       <r>    7.0600   -0.0352 </r>
       <r>    7.0600   -0.0352 </r>
       <r>    7.0664   -0.0348 </r>
       <r>    7.0664   -0.0348 </r>
       <r>    7.0664   -0.0348 </r>
       <r>    7.0664   -0.0348 </r>
       <r>    7.0664   -0.0348 </r>
       <r>    7.0664   -0.0348 </r>
       <r>    7.0771   -0.0334 </r>
       <r>    7.0771   -0.0334 </r>
       <r>    7.0771   -0.0334 </r>
       <r>    7.0771   -0.0334 </r>
       <r>    7.0771   -0.0334 </r>
       <r>    7.0771   -0.0334 </r>
       <r>    7.1259   -0.0234 </r>
       <r>    7.1259   -0.0234 </r>
       <r>    7.1260   -0.0234 </r>
       <r>    7.1295   -0.0225 </r>
       <r>    7.1295   -0.0225 </r>
       <r>    7.1804   -0.0120 </r>
       <r>    7.1804   -0.0120 </r>
       <r>    7.1804   -0.0120 </r>
       <r>    7.2298   -0.0055 </r>
       <r>    7.2298   -0.0055 </r>
       <r>    7.2298   -0.0055 </r>
       <r>    7.2387   -0.0047 </r>
       <r>    7.2387   -0.0047 </r>
       <r>    7.2387   -0.0047 </r>
       <r>    7.2948   -0.0015 </r>
       <r>    7.2948   -0.0015 </r>
       <r>    7.2948   -0.0015 </r>
[...]
       <r>    -1.8142     2.4334     0.3388 </r>
       <r>    -1.7684     2.8708     0.4703 </r>
       <r>    -1.7226     3.2510     0.6192 </r>
       <r>    -1.6768     3.5627     0.7825 </r>
       <r>    -1.6310     3.8105     0.9570 </r>
       <r>    -1.5851     4.0275     1.1415 </r>
       <r>    -1.5393     4.2661     1.3370 </r>
       <r>    -1.4935     4.5600     1.5459 </r>
       <r>    -1.4477     4.8870     1.7698 </r>
       <r>    -1.4019     5.1755     2.0069 </r>
       <r>    -1.3561     5.3619     2.2525 </r>
       <r>    -1.3103     5.4519     2.5023 </r>
       <r>    -1.2644     5.5263     2.7555 </r>
       <r>    -1.2186     5.6807     3.0158 </r>
       <r>    -1.1728     5.9548     3.2886 </r>
       <r>    -1.1270     6.3119     3.5777 </r>
       <r>    -1.0812     6.6758     3.8836 </r>
       <r>    -1.0354     6.9793     4.2033 </r>
       <r>    -0.9896     7.1832     4.5324 </r>
       <r>    -0.9437     7.2703     4.8655 </r>
       <r>    -0.8979     7.2519     5.1977 </r>
       <r>    -0.8521     7.1923     5.5272 </r>
       <r>    -0.8063     7.2148     5.8578 </r>
       <r>    -0.7605     7.4499     6.1991 </r>
       <r>    -0.7147     7.9407     6.5629 </r>
       <r>    -0.6689     8.5814     6.9560 </r>
       <r>    -0.6231     9.1535     7.3754 </r>
       <r>    -0.5772     9.4473     7.8082 </r>
       <r>    -0.5314     9.3863     8.2382 </r>
       <r>    -0.4856     9.0728     8.6539 </r>
       <r>    -0.4398     8.7371     9.0541 </r>
       <r>    -0.3940     8.6317     9.4496 </r>
       <r>    -0.3482     8.9158     9.8580 </r>
       <r>    -0.3024     9.5705    10.2965 </r>
       <r>    -0.2565    10.3895    10.7725 </r>
       <r>    -0.2107    11.0768    11.2800 </r>
       <r>    -0.1649    11.4150    11.8029 </r>
       <r>    -0.1191    11.3918    12.3248 </r>
       <r>    -0.0733    11.1880    12.8374 </r>
       <r>    -0.0275    11.0397    13.3431 </r>
       <r>     0.0183    11.0898    13.8512 </r>
       <r>     0.0641    11.3337    14.3704 </r>
       <r>     0.1100    11.6698    14.9051 </r>
       <r>     0.1558    11.9926    15.4545 </r>
       <r>     0.2016    12.2643    16.0164 </r>
       <r>     0.2474    12.5362    16.5907 </r>
       <r>     0.2932    12.9109    17.1822 </r>
       <r>     0.3390    13.4545    17.7986 </r>
       <r>     0.3848    14.1088    18.4450 </r>
       <r>     0.4307    14.6819    19.1176 </r>
       <r>     0.4765    14.9532    19.8027 </r>
       <r>     0.5223    14.8317    20.4822 </r>
       <r>     0.5681    14.4484    21.1441 </r>
       <r>     0.6139    14.1062    21.7903 </r>
       <r>     0.6597    14.1241    22.4374 </r>
       <r>     0.7055    14.6783    23.1099 </r>
       <r>     0.7514    15.7236    23.8302 </r>
       <r>     0.7972    17.0130    24.6097 </r>
       <r>     0.8430    18.1876    25.4429 </r>
       <r>     0.8888    18.9046    26.3090 </r>
       <r>     0.9346    18.9817    27.1786 </r>
       <r>     0.9804    18.5156    28.0269 </r>
       <r>     1.0262    17.8979    28.8468 </r>
       <r>     1.0720    17.6644    29.6561 </r>
       <r>     1.1179    18.2158    30.4906 </r>
       <r>     1.1637    19.5722    31.3873 </r>
       <r>     1.2095    21.3390    32.3649 </r>
       <r>     1.2553    22.9220    33.4151 </r>
       <r>     1.3011    23.8534    34.5079 </r>
       <r>     1.3469    24.0306    35.6088 </r>
       <r>     1.3927    23.7606    36.6974 </r>
       <r>     1.4386    23.6108    37.7791 </r>
       <r>     1.4844    24.1257    38.8844 </r>
       <r>     1.5302    25.5200    40.0535 </r>
       <r>     1.5760    27.5209    41.3143 </r>
       <r>     1.6218    29.5332    42.6674 </r>
       <r>     1.6676    31.1182    44.0930 </r>
       <r>     1.7134    32.4980    45.5818 </r>
       <r>     1.7593    34.6852    47.1709 </r>
       <r>     1.8051    39.0455    48.9597 </r>
       <r>     1.8509    46.5102    51.0905 </r>
       <r>     1.8967    56.9338    53.6989 </r>
       <r>     1.9425    69.0120    56.8605 </r>
       <r>     1.9883    80.8135    60.5629 </r>
       <r>     2.0341    90.5982    64.7135 </r>
       <r>     2.0799    97.4630    69.1787 </r>
       <r>     2.1258   101.5168    73.8295 </r>
       <r>     2.1716   103.5796    78.5749 </r>
       <r>     2.2174   104.6424    83.3689 </r>
       <r>     2.2632   105.3969    88.1975 </r>
       <r>     2.3090   106.0629    93.0566 </r>
       <r>     2.3548   106.5541    97.9383 </r>
       <r>     2.4006   106.8292   102.8325 </r>
       <r>     2.4465   107.1658   107.7421 </r>
       <r>     2.4923   108.1537   112.6970 </r>
       <r>     2.5381   110.4110   117.7554 </r>
       <r>     2.5839   114.2362   122.9889 </r>
       <r>     2.6297   119.4493   128.4613 </r>
       <r>     2.6755   125.5138   134.2116 </r>
       <r>     2.7213   131.8177   140.2506 </r>
       <r>     2.7672   137.9190   146.5692 </r>
       <r>     2.8130   143.6433   153.1500 </r>
       <r>     2.8588   149.0313   159.9776 </r>
       <r>     2.9046   154.1755   167.0410 </r>
       <r>     2.9504   159.0139   174.3260 </r>
       <r>     2.9962   163.2154   181.8035 </r>
       <r>     3.0420   166.2885   189.4217 </r>
       <r>     3.0878   167.8642   197.1122 </r>
       <r>     3.1337   167.8996   204.8043 </r>
       <r>     3.1795   166.6168   212.4376 </r>
       <r>     3.2253   164.2929   219.9644 </r>
       <r>     3.2711   161.1767   227.3485 </r>
       <r>     3.3169   157.6021   234.5688 </r>
       <r>     3.3627   154.0691   241.6273 </r>
       <r>     3.4085   151.1005   248.5497 </r>
       <r>     3.4544   148.9983   255.3759 </r>
       <r>     3.5002   147.7661   262.1456 </r>
       <r>     3.5460   147.2411   268.8912 </r>
       <r>     3.5918   147.2017   275.6351 </r>
       <r>     3.6376   147.2865   282.3828 </r>
       <r>     3.6834   146.8912   289.1124 </r>
       <r>     3.7292   145.3323   295.7706 </r>
       <r>     3.7750   142.2769   302.2888 </r>
       <r>     3.8209   138.0644   308.6140 </r>
       <r>     3.8667   133.5637   314.7331 </r>
       <r>     3.9125   129.6551   320.6730 </r>
       <r>     3.9583   126.8073   326.4825 </r>
       <r>     4.0041   125.0974   332.2137 </r>
       <r>     4.0499   124.5476   337.9197 </r>
       <r>     4.0957   125.3684   343.6632 </r>
       <r>     4.1416   127.8940   349.5225 </r>
       <r>     4.1874   132.3451   355.5857 </r>
       <r>     4.2332   138.6396   361.9373 </r>
       <r>     4.2790   146.2971   368.6397 </r>
       <r>     4.3248   154.4200   375.7142 </r>
       <r>     4.3706   161.8456   383.1289 </r>
       <r>     4.4164   167.5705   390.8059 </r>
       <r>     4.4623   171.2821   398.6530 </r>
       <r>     4.5081   173.5780   406.6052 </r>
       <r>     4.5539   175.5874   414.6495 </r>
       <r>     4.5997   178.1881   422.8130 </r>
       <r>     4.6455   181.3941   431.1233 </r>
       <r>     4.6913   184.4306   439.5727 </r>
       <r>     4.7371   186.5077   448.1173 </r>
       <r>     4.7829   187.7305   456.7179 </r>
       <r>     4.8288   189.3791   465.3940 </r>
       <r>     4.8746   193.2003   474.2452 </r>
       <r>     4.9204   200.1217   483.4135 </r>
       <r>     4.9662   209.3456   493.0044 </r>
       <r>     5.0120   218.5857   503.0186 </r>
       <r>     5.0578   225.3729   513.3437 </r>
       <r>     5.1036   228.5315   523.8136 </r>
       <r>     5.1495   228.8262   534.2969 </r>
       <r>     5.1953   228.4598   544.7635 </r>
       <r>     5.2411   229.8947   555.2958 </r>
       <r>     5.2869   234.7084   566.0486 </r>
       <r>     5.3327   242.8873   577.1761 </r>
       <r>     5.3785   252.6535   588.7511 </r>
       <r>     5.4243   260.8896   600.7034 </r>
       <r>     5.4702   264.1899   612.8069 </r>
       <r>     5.5160   260.2245   624.7287 </r>
       <r>     5.5618   248.7313   636.1240 </r>
       <r>     5.6076   231.5600   646.7326 </r>
       <r>     5.6534   211.8076   656.4362 </r>
       <r>     5.6992   192.6398   665.2618 </r>
       <r>     5.7450   176.4150   673.3440 </r>
       <r>     5.7908   164.3337   680.8727 </r>
       <r>     5.8367   156.5026   688.0426 </r>
       <r>     5.8825   152.2192   695.0163 </r>
       <r>     5.9283   150.3559   701.9047 </r>
       <r>     5.9741   149.7816   708.7667 </r>
       <r>     6.0199   149.7604   715.6278 </r>
       <r>     6.0657   150.2178   722.5098 </r>
       <r>     6.1115   151.7173   729.4605 </r>
       <r>     6.1574   155.0793   736.5652 </r>
       <r>     6.2032   160.8176   743.9329 </r>
       <r>     6.2490   168.7652   751.6646 </r>
       <r>     6.2948   178.1423   759.8259 </r>
       <r>     6.3406   187.9494   768.4366 </r>
       <r>     6.3864   197.3093   777.4760 </r>
       <r>     6.4322   205.5111   786.8912 </r>
       <r>     6.4781   211.8561   796.5971 </r>
       <r>     6.5239   215.6064   806.4748 </r>
       <r>     6.5697   216.1891   816.3792 </r>
       <r>     6.6155   213.5214   826.1614 </r>
       <r>     6.6613   208.1879   835.6992 </r>
       <r>     6.7071   201.3230   844.9226 </r>
       <r>     6.7529   194.2522   853.8219 </r>
       <r>     6.7987   188.0683   862.4380 </r>
       <r>     6.8446   183.3271   870.8369 </r>
       <r>     6.8904   179.9927   879.0830 </r>
       <r>     6.9362   177.6441   887.2215 </r>
       <r>     6.9820   175.8269   895.2768 </r>
       <r>     7.0278   174.3521   903.2645 </r>
       <r>     7.0736   173.3778   911.2075 </r>
       <r>     7.1194   173.2339   919.1440 </r>
       <r>     7.1653   174.1121   927.1207 </r>
       <r>     7.2111   175.8641   935.1777 </r>
       <r>     7.2569   178.0985   943.3370 </r>
       <r>     7.3027   180.5376   951.6081 </r>
       <r>     7.3485   183.3250   960.0068 </r>
       <r>     7.3943   186.9373   968.5711 </r>
       <r>     7.4401   191.6048   977.3492 </r>
       <r>     7.4860   196.5531   986.3540 </r>
       <r>     7.5318   199.6015   995.4985 </r>
       <r>     7.5776   197.5180  1004.5475 </r>
       <r>     7.6234   187.1200  1013.1201 </r>
       <r>     7.6692   166.6875  1020.7567 </r>
       <r>     7.7150   137.0514  1027.0355 </r>
       <r>     7.7608   101.7751  1031.6982 </r>
       <r>     7.8066    66.1859  1034.7304 </r>
       <r>     7.8525    35.5714  1036.3600 </r>
       <r>     7.8983    13.3793  1036.9730 </r>
       <r>     7.9441     0.3277  1036.9880 </r>
       <r>     7.9899    -5.2189  1036.7489 </r>
       <r>     8.0357    -6.0192  1036.4732 </r>
       <r>     8.0815    -4.6781  1036.2588 </r>
       <r>     8.1273    -2.9274  1036.1247 </r>
       <r>     8.1732    -1.5565  1036.0534 </r>
       <r>     8.2190    -0.7199  1036.0204 </r>
       <r>     8.2648    -0.2931  1036.0070 </r>
       <r>     8.3106    -0.1058  1036.0022 </r>
       <r>     8.3564    -0.0340  1036.0006 </r>
       <r>     8.4022    -0.0098  1036.0001 </r>
       <r>     8.4480    -0.0025  1036.0000 </r>
       <r>     8.4938    -0.0006  1036.0000 </r>
       <r>     8.5397    -0.0001  1036.0000 </r>
       <r>     8.5855    -0.0000  1036.0000 </r>
       <r>     8.6313    -0.0000  1036.0000 </r>
       <r>     8.6771    -0.0000  1036.0000 </r>
       <r>     8.7229    -0.0000  1036.0000 </r>
       <r>     8.7687    -0.0000  1036.0000 </r>
       <r>     8.8145    -0.0000  1036.0000 </r>
       <r>     8.8604    -0.0000  1036.0000 </r>
       <r>     8.9062    -0.0000  1036.0000 </r>
       <r>     8.9520    -0.0000  1036.0000 </r>
       <r>     8.9978    -0.0000  1036.0000 </r>
       <r>     9.0436     0.0000  1036.0000 </r>
       <r>     9.0894     0.0000  1036.0000 </r>
       <r>     9.1352     0.0000  1036.0000 </r>
       <r>     9.1811     0.0000  1036.0000 </r>
       <r>     9.2269     0.0000  1036.0000 </r>
       <r>     9.2727     0.0000  1036.0000 </r>
       <r>     9.3185     0.0000  1036.0000 </r>
       <r>     9.3643     0.0000  1036.0000 </r>
       <r>     9.4101     0.0000  1036.0000 </r>
       <r>     9.4559     0.0000  1036.0000 </r>
       <r>     9.5017     0.0000  1036.0000 </r>
       <r>     9.5476     0.0000  1036.0000 </r>
       <r>     9.5934     0.0000  1036.0000 </r>
       <r>     9.6392     0.0000  1036.0000 </r>
       <r>     9.6850     0.0000  1036.0000 </r>
       <r>     9.7308     0.0000  1036.0000 </r>
       <r>     9.7766     0.0000  1036.0000 </r>
      </set>
     </set>
    </array>
   </total>
  </dos>
 </calculation>
 <structure name="finalpos" >
  <crystal>
   <varray name="basis" >
    <v>      10.33484705       0.00000000       0.00000000 </v>
    <v>       0.00000000      10.33484705       0.00000000 </v>
    <v>       0.00000000       0.00000000      10.33484705 </v>
   </varray>
   <i name="volume">   1103.85533447 </i>
   <varray name="rec_basis" >
    <v>       0.09676002       0.00000000       0.00000000 </v>
    <v>       0.00000000       0.09676002       0.00000000 </v>
    <v>       0.00000000       0.00000000       0.09676002 </v>
   </varray>
  </crystal>
  <varray name="positions" >
   <v>       0.00000000       0.00000000       0.00000000 </v>
   <v>       0.00000000       0.16666893       0.16666893 </v>
   <v>       0.16666893       0.00000000       0.16666893 </v>
   <v>       0.16666893       0.16666893       0.00000000 </v>
   <v>       0.33333106       0.00000000       0.00000000 </v>
   <v>       0.33333107       0.16666893       0.16666893 </v>
   <v>       0.50000000       0.00000000       0.16666894 </v>
   <v>       0.50000000       0.16666894       0.00000000 </v>
   <v>       0.66666897       0.00000000       0.00000000 </v>
   <v>       0.66666896       0.16666893       0.16666893 </v>
   <v>       0.83333104       0.00000000       0.16666893 </v>
   <v>       0.83333104       0.16666893       0.00000000 </v>
   <v>       0.00000000       0.33333106       0.00000000 </v>
   <v>       0.00000000       0.50000000       0.16666894 </v>
   <v>       0.16666893       0.33333107       0.16666893 </v>
   <v>       0.16666894       0.50000000       0.00000000 </v>
   <v>       0.33333107       0.33333107       0.00000000 </v>
   <v>       0.33333107       0.50000000       0.16666893 </v>
   <v>       0.50000000       0.33333107       0.16666893 </v>
   <v>       0.50000000       0.50000000       0.00000000 </v>
   <v>       0.66666896       0.33333107       0.00000000 </v>
   <v>       0.66666896       0.50000000       0.16666893 </v>
   <v>       0.83333104       0.33333107       0.16666893 </v>
   <v>       0.83333103       0.50000000       0.00000000 </v>
   <v>       0.00000000       0.66666897       0.00000000 </v>
   <v>       0.00000000       0.83333104       0.16666893 </v>
   <v>       0.16666893       0.66666896       0.16666893 </v>
   <v>       0.16666893       0.83333104       0.00000000 </v>
   <v>       0.33333107       0.66666896       0.00000000 </v>
   <v>       0.33333107       0.83333104       0.16666893 </v>
   <v>       0.50000000       0.66666896       0.16666893 </v>
   <v>       0.50000000       0.83333103       0.00000000 </v>
   <v>       0.66666896       0.66666896       0.00000000 </v>
   <v>       0.66666896       0.83333104       0.16666893 </v>
   <v>       0.83333104       0.66666896       0.16666893 </v>
   <v>       0.83333104       0.83333104       0.00000000 </v>
   <v>       0.00000000       0.00000000       0.33333106 </v>
   <v>       0.00000000       0.16666894       0.50000000 </v>
   <v>       0.16666894       0.00000000       0.50000000 </v>
   <v>       0.16666893       0.16666893       0.33333107 </v>
   <v>       0.33333107       0.00000000       0.33333107 </v>
   <v>       0.33333107       0.16666893       0.50000000 </v>
   <v>       0.50000000       0.00000000       0.50000000 </v>
   <v>       0.50000000       0.16666893       0.33333107 </v>
   <v>       0.66666896       0.00000000       0.33333107 </v>
   <v>       0.66666896       0.16666893       0.50000000 </v>
   <v>       0.83333103       0.00000000       0.50000000 </v>
   <v>       0.83333104       0.16666893       0.33333107 </v>
   <v>       0.00000000       0.33333107       0.33333107 </v>
   <v>       0.00000000       0.50000000       0.50000000 </v>
   <v>       0.16666893       0.33333107       0.50000000 </v>
   <v>       0.16666893       0.50000000       0.33333107 </v>
   <v>       0.33333107       0.33333107       0.33333107 </v>
   <v>       0.33333106       0.50000000       0.50000000 </v>
   <v>       0.50000000       0.33333106       0.50000000 </v>
   <v>       0.50000000       0.50000000       0.33333106 </v>
   <v>       0.66666896       0.33333107       0.33333107 </v>
   <v>       0.66666897       0.50000000       0.50000000 </v>
   <v>       0.83333104       0.33333107       0.50000000 </v>
   <v>       0.83333104       0.50000000       0.33333107 </v>
   <v>       0.00000000       0.66666896       0.33333107 </v>
   <v>       0.00000000       0.83333103       0.50000000 </v>
   <v>       0.16666893       0.66666896       0.50000000 </v>
   <v>       0.16666893       0.83333104       0.33333107 </v>
   <v>       0.33333107       0.66666896       0.33333107 </v>
   <v>       0.33333107       0.83333104       0.50000000 </v>
   <v>       0.50000000       0.66666897       0.50000000 </v>
   <v>       0.50000000       0.83333104       0.33333107 </v>
   <v>       0.66666896       0.66666896       0.33333107 </v>
   <v>       0.66666896       0.83333104       0.50000000 </v>
   <v>       0.83333104       0.66666896       0.50000000 </v>
   <v>       0.83333104       0.83333104       0.33333107 </v>
   <v>       0.00000000       0.00000000       0.66666897 </v>
   <v>       0.00000000       0.16666893       0.83333104 </v>
   <v>       0.16666893       0.00000000       0.83333104 </v>
   <v>       0.16666893       0.16666893       0.66666896 </v>
   <v>       0.33333107       0.00000000       0.66666896 </v>
   <v>       0.33333107       0.16666893       0.83333104 </v>
   <v>       0.50000000       0.00000000       0.83333103 </v>
   <v>       0.50000000       0.16666893       0.66666896 </v>
   <v>       0.66666896       0.00000000       0.66666896 </v>
   <v>       0.66666896       0.16666893       0.83333104 </v>
   <v>       0.83333104       0.00000000       0.83333104 </v>
   <v>       0.83333104       0.16666893       0.66666896 </v>
   <v>       0.00000000       0.33333107       0.66666896 </v>
   <v>       0.00000000       0.50000000       0.83333103 </v>
   <v>       0.16666893       0.33333107       0.83333104 </v>
   <v>       0.16666893       0.50000000       0.66666896 </v>
   <v>       0.33333107       0.33333107       0.66666896 </v>
   <v>       0.33333107       0.50000000       0.83333104 </v>
   <v>       0.50000000       0.33333107       0.83333104 </v>
   <v>       0.50000000       0.50000000       0.66666897 </v>
   <v>       0.66666896       0.33333107       0.66666896 </v>
   <v>       0.66666896       0.50000000       0.83333104 </v>
   <v>       0.83333104       0.33333107       0.83333104 </v>
   <v>       0.83333104       0.50000000       0.66666896 </v>
   <v>       0.00000000       0.66666896       0.66666896 </v>
   <v>       0.00000000       0.83333104       0.83333104 </v>
   <v>       0.16666893       0.66666896       0.83333104 </v>
   <v>       0.16666893       0.83333104       0.66666896 </v>
   <v>       0.33333107       0.66666896       0.66666896 </v>
   <v>       0.33333107       0.83333104       0.83333104 </v>
   <v>       0.50000000       0.66666896       0.83333104 </v>
   <v>       0.50000000       0.83333104       0.66666896 </v>
   <v>       0.66666896       0.66666896       0.66666896 </v>
   <v>       0.66666896       0.83333104       0.83333104 </v>
   <v>       0.83333104       0.66666896       0.83333104 </v>
   <v>       0.83333104       0.83333104       0.66666896 </v>
  </varray>
 </structure>
</modeling>
