  107  107  100    1
  0.1031640E+02  0.1033485E-08  0.1033485E-08  0.1033485E-08  0.5000000E-15
  1.000000000000000E-004
  CAR 
 Opt                                     
    854     32    512
 
  0.1250000E+00  0.1250000E+00  0.1250000E+00  0.3125000E-01
    1       -6.621082   1.000000
    2       -1.696453   1.000000
    3       -0.838612   1.000000
    4       -0.805505   1.000000
    5       -0.530378   1.000000
    6       -0.220258   1.000000
    7       -0.215009   1.000000
    8       -0.054093   1.000000
    9        0.178370   1.000000
   10        0.221936   1.000000
   11        0.421791   1.000000
   12        0.479095   1.000000
   13        0.559455   1.000000
   14        0.847382   1.000000
   15        0.926109   1.000000
   16        0.945814   1.000000
   17        0.957648   1.000000
   18        1.175576   1.000000
   19        1.247832   1.000000
   20        1.266292   1.000000
   21        1.317275   1.000000
   22        1.474767   1.000000
   23        1.508230   1.000000
   24        1.636549   1.000000
   25        1.643860   1.000000
   26        1.648378   1.000000
   27        1.689232   1.000000
   28        1.825495   1.000000
   29        1.850029   1.000000
   30        1.871721   1.000000
   31        2.000750   1.000000
   32        2.020639   1.000000
   33        2.026884   1.000000
   34        2.047074   1.000000
   35        2.068323   1.000000
   36        2.095158   1.000000
   37        2.140020   1.000000
   38        2.196839   1.000000
   39        2.262592   1.000000
   40        2.477054   1.000000
   41        2.487353   1.000000
   42        2.490223   1.000000
   43        2.547165   1.000000
   44        2.577254   1.000000
   45        2.584339   1.000000
   46        2.590230   1.000000
   47        2.602759   1.000000
   48        2.605273   1.000000
   49        2.614774   1.000000
   50        2.621816   1.000000
   51        2.630913   1.000000
   52        2.640983   1.000000
   53        2.642905   1.000000
   54        2.647612   1.000000
   55        2.659401   1.000000
   56        2.659818   1.000000
   57        2.662231   1.000000
   58        2.667115   1.000000
   59        2.677833   1.000000
   60        2.693581   1.000000
   61        2.695104   1.000000
   62        2.733879   1.000000
   63        2.749644   1.000000
   64        2.759899   1.000000
   65        2.762958   1.000000
   66        2.775862   1.000000
   67        2.788772   1.000000
   68        2.823491   1.000000
   69        2.824952   1.000000
   70        2.840431   1.000000
   71        2.848808   1.000000
   72        2.855980   1.000000
   73        2.859546   1.000000
   74        2.869903   1.000000
   75        2.874281   1.000000
   76        2.878245   1.000000
   77        2.886323   1.000000
   78        2.893939   1.000000
   79        2.914043   1.000000
   80        2.916238   1.000000
   81        2.931845   1.000000
   82        2.932037   1.000000
   83        2.949872   1.000000
   84        2.962288   1.000000
   85        2.972054   1.000000
   86        2.981873   1.000000
   87        2.990103   1.000000
   88        3.011988   1.000000
   89        3.014919   1.000000
   90        3.038216   1.000000
   91        3.057573   1.000000
   92        3.090249   1.000000
   93        3.094298   1.000000
   94        3.132246   1.000000
   95        3.164463   1.000000
   96        3.174575   1.000000
   97        3.187172   1.000000
   98        3.192621   1.000000
   99        3.202837   1.000000
  100        3.202953   1.000000
  101        3.214790   1.000000
  102        3.223210   1.000000
  103        3.247298   1.000000
  104        3.255195   1.000000
  105        3.272762   1.000000
  106        3.282108   1.000000
  107        3.291889   1.000000
  108        3.299765   1.000000
  109        3.319237   1.000000
  110        3.331295   1.000000
  111        3.348859   1.000000
  112        3.417582   1.000000
  113        3.431547   1.000000
  114        3.435330   1.000000
  115        3.444155   1.000000
  116        3.455982   1.000000
  117        3.458014   1.000000
  118        3.467042   1.000000
  119        3.467225   1.000000
  120        3.499780   1.000000
  121        3.514452   1.000000
  122        3.529368   1.000000
  123        3.552599   1.000000
  124        3.562964   1.000000
  125        3.564627   1.000000
  126        3.577699   1.000000
  127        3.583078   1.000000
  128        3.593462   1.000000
  129        3.598522   1.000000
  130        3.610373   1.000000
  131        3.618868   1.000000
  132        3.624802   1.000000
  133        3.636505   1.000000
  134        3.637138   1.000000
  135        3.641510   1.000000
  136        3.654201   1.000000
  137        3.657309   1.000000
  138        3.669983   1.000000
  139        3.683658   1.000000
  140        3.689105   1.000000
  141        3.708130   1.000000
  142        3.719636   1.000000
  143        3.731121   1.000000
  144        3.744458   1.000000
  145        3.770824   1.000000
  146        3.770862   1.000000
  147        3.800812   1.000000
  148        3.808838   1.000000
  149        3.822941   1.000000
  150        3.839238   1.000000
  151        3.847138   1.000000
  152        3.854114   1.000000
  153        3.859690   1.000000
  154        3.874032   1.000000
  155        3.878860   1.000000
  156        3.883330   1.000000
  157        3.931707   1.000000
  158        3.935830   1.000000
  159        3.965960   1.000000
  160        4.001804   1.000000
  161        4.009722   1.000000
  162        4.017497   1.000000
  163        4.032622   1.000000
  164        4.050469   1.000000
  165        4.056796   1.000000
  166        4.091106   1.000000
  167        4.120702   1.000000
  168        4.125994   1.000000
  169        4.157944   1.000000
  170        4.180349   1.000000
  171        4.229971   1.000000
  172        4.234011   1.000000
  173        4.253135   1.000000
  174        4.266972   1.000000
  175        4.282008   1.000000
  176        4.333810   1.000000
  177        4.354752   1.000000
  178        4.382328   1.000000
  179        4.395744   1.000000
  180        4.407969   1.000000
  181        4.409462   1.000000
  182        4.413938   1.000000
  183        4.423528   1.000000
  184        4.426603   1.000000
  185        4.432077   1.000000
  186        4.435425   1.000000
  187        4.449627   1.000000
  188        4.455976   1.000000
  189        4.471268   1.000000
  190        4.475982   1.000000
  191        4.478127   1.000000
  192        4.521947   1.000000
  193        4.523057   1.000000
  194        4.544671   1.000000
  195        4.549344   1.000000
  196        4.565119   1.000000
  197        4.575750   1.000000
  198        4.576844   1.000000
  199        4.580874   1.000000
  200        4.589312   1.000000
  201        4.595544   1.000000
  202        4.597470   1.000000
  203        4.605567   1.000000
  204        4.616451   1.000000
  205        4.619848   1.000000
  206        4.640433   1.000000
  207        4.641975   1.000000
  208        4.652484   1.000000
  209        4.681130   1.000000
  210        4.682241   1.000000
  211        4.694891   1.000000
  212        4.705582   1.000000
  213        4.706943   1.000000
  214        4.723238   1.000000
  215        4.726696   1.000000
  216        4.728826   1.000000
  217        4.751632   1.000000
  218        4.762119   1.000000
  219        4.796377   1.000000
  220        4.810284   1.000000
  221        4.821958   1.000000
  222        4.842066   1.000000
  223        4.875542   1.000000
  224        4.883857   1.000000
  225        4.893114   1.000000
  226        4.910676   1.000000
  227        4.921668   1.000000
  228        4.932037   1.000000
  229        4.937591   1.000000
  230        4.942301   1.000000
  231        4.943383   1.000000
  232        4.973820   1.000000
  233        4.984565   1.000000
  234        4.985305   1.000000
  235        5.007552   1.000000
  236        5.022736   1.000000
  237        5.036227   1.000000
  238        5.054942   1.000000
  239        5.070512   1.000000
  240        5.081558   1.000000
  241        5.104477   1.000000
  242        5.108060   1.000000
  243        5.133952   1.000000
  244        5.145704   1.000000
  245        5.145938   1.000000
  246        5.157824   1.000000
  247        5.162050   1.000000
  248        5.173389   1.000000
  249        5.179170   1.000000
  250        5.188840   1.000000
  251        5.192965   1.000000
  252        5.199307   1.000000
  253        5.213006   1.000000
  254        5.219034   1.000000
  255        5.219088   1.000000
  256        5.227330   1.000000
  257        5.239970   1.000000
  258        5.245584   1.000000
  259        5.252978   1.000000
  260        5.256971   1.000000
  261        5.260997   1.000000
  262        5.268148   1.000000
  263        5.271753   1.000000
  264        5.285070   1.000000
  265        5.288405   1.000000
  266        5.297063   1.000000
  267        5.297448   1.000000
  268        5.312447   1.000000
  269        5.320124   1.000000
  270        5.322471   1.000000
  271        5.329342   1.000000
  272        5.331219   1.000000
  273        5.335666   1.000000
  274        5.345333   1.000000
  275        5.351586   1.000000
  276        5.352333   1.000000
  277        5.370023   1.000000
  278        5.374469   1.000000
  279        5.374838   1.000000
  280        5.383696   1.000000
  281        5.398424   1.000000
  282        5.406274   1.000000
  283        5.408373   1.000000
  284        5.411689   1.000000
  285        5.422152   1.000000
  286        5.427020   1.000000
  287        5.427466   1.000000
  288        5.433061   1.000000
  289        5.437510   1.000000
  290        5.442125   1.000000
  291        5.447566   1.000000
  292        5.458561   1.000000
  293        5.460971   1.000000
  294        5.477754   1.000000
  295        5.479989   1.000000
  296        5.487557   1.000000
  297        5.491559   1.000000
  298        5.496734   1.000000
  299        5.517977   1.000000
  300        5.523072   1.000000
  301        5.534253   1.000000
  302        5.535716   1.000000
  303        5.546115   1.000000
  304        5.554428   1.000000
  305        5.573530   1.000000
  306        5.583603   1.000000
  307        5.583653   1.000000
  308        5.599754   1.000000
  309        5.614747   1.000000
  310        5.628242   1.000000
  311        5.635348   1.000000
  312        5.664777   1.000000
  313        5.666283   1.000000
  314        5.687889   1.000000
  315        5.688889   1.000000
  316        5.710553   1.000000
  317        5.714299   1.000000
  318        5.719366   1.000000
  319        5.725764   1.000000
  320        5.735180   1.000000
  321        5.744477   1.000000
  322        5.745038   1.000000
  323        5.767517   1.000000
  324        5.776816   1.000000
  325        5.789493   1.000000
  326        5.800329   1.000000
  327        5.801303   1.000000
  328        5.805179   1.000000
  329        5.824628   1.000000
  330        5.832312   1.000000
  331        5.834457   1.000000
  332        5.849219   1.000000
  333        5.857801   1.000000
  334        5.866085   1.000000
  335        5.882622   1.000000
  336        5.887827   1.000000
  337        5.894432   1.000000
  338        5.907268   1.000000
  339        5.911408   1.000000
  340        5.928615   1.000000
  341        5.933042   1.000000
  342        5.939895   1.000000
  343        5.942708   1.000000
  344        5.953622   1.000000
  345        5.955415   1.000000
  346        5.968528   1.000000
  347        5.972399   1.000000
  348        5.987121   1.000000
  349        5.988511   1.000000
  350        6.009756   1.000000
  351        6.018284   1.000000
  352        6.025235   1.000000
  353        6.032992   1.000000
  354        6.038293   1.000000
  355        6.047334   1.000000
  356        6.063805   1.000000
  357        6.073992   1.000000
  358        6.099390   1.000000
  359        6.120086   1.000000
  360        6.137517   1.000000
  361        6.139255   1.000000
  362        6.196490   1.000001
  363        6.196572   1.000001
  364        6.227920   1.000003
  365        6.236861   1.000004
  366        6.246262   1.000006
  367        6.257612   1.000009
  368        6.303726   1.000037
  369        6.313630   1.000049
  370        6.338354   1.000099
  371        6.344191   1.000116
  372        6.347178   1.000126
  373        6.362510   1.000191
  374        6.364264   1.000200
  375        6.373428   1.000254
  376        6.374854   1.000264
  377        6.384219   1.000335
  378        6.393143   1.000419
  379        6.402547   1.000527
  380        6.413002   1.000678
  381        6.442525   1.001330
  382        6.443364   1.001354
  383        6.447480   1.001481
  384        6.478148   1.002801
  385        6.484909   1.003199
  386        6.521229   1.006221
  387        6.539698   1.008444
  388        6.541925   1.008747
  389        6.557933   1.011161
  390        6.566884   1.012690
  391        6.583691   1.015894
  392        6.587570   1.016690
  393        6.604583   1.020388
  394        6.618748   1.023635
  395        6.625479   1.025192
  396        6.639474   1.028355
  397        6.649869   1.030541
  398        6.665480   1.033311
  399        6.671408   1.034126
  400        6.714571   1.033036
  401        6.715135   1.032908
  402        6.732114   1.027160
  403        6.743329   1.021078
  404        6.745844   1.019432
  405        6.763842   1.004301
  406        6.774882   0.991826
  407        6.782948   0.981033
  408        6.787873   0.973712
  409        6.790315   0.969871
  410        6.800201   0.952859
  411        6.807667   0.938423
  412        6.818633   0.914686
  413        6.822242   0.906211
  414        6.832320   0.880802
  415        6.834791   0.874184
  416        6.858543   0.803033
  417        6.858742   0.802384
  418        6.882397   0.719117
  419        6.886647   0.703050
  420        6.903845   0.635302
  421        6.922220   0.559372
  422        6.933249   0.512862
  423        6.938579   0.490310
  424        6.960260   0.399373
  425        6.965635   0.377296
  426        6.987587   0.290657
  427        6.990889   0.278239
  428        7.000732   0.242381
  429        7.001053   0.241239
  430        7.023169   0.168029
  431        7.028828   0.151075
  432        7.029427   0.149326
  433        7.056636   0.079208
  434        7.067593   0.056233
  435        7.068960   0.053578
  436        7.071286   0.049166
  437        7.123810  -0.017382
  438        7.128533  -0.020621
  439        7.128906  -0.020860
  440        7.146481  -0.029639
  441        7.151202  -0.031235
  442        7.162834  -0.033984
  443        7.174076  -0.035250
  444        7.191280  -0.035095
  445        7.193283  -0.034943
  446        7.198542  -0.034435
  447        7.203709  -0.033796
  448        7.209715  -0.032904
  449        7.215345  -0.031943
  450        7.217983  -0.031458
  451        7.226008  -0.029870
  452        7.227577  -0.029543
  453        7.230536  -0.028913
  454        7.232963  -0.028387
  455        7.239154  -0.027008
  456        7.243445  -0.026032
  457        7.250128  -0.024492
  458        7.263900  -0.021316
  459        7.274818  -0.018869
  460        7.279478  -0.017858
  461        7.286463  -0.016389
  462        7.299429  -0.013835
  463        7.316779  -0.010816
  464        7.343707  -0.007079
  465        7.344741  -0.006958
  466        7.351821  -0.006171
  467        7.356869  -0.005653
  468        7.365226  -0.004873
  469        7.374518  -0.004110
  470        7.386984  -0.003242
  471        7.396299  -0.002699
  472        7.396772  -0.002674
  473        7.412625  -0.001933
  474        7.420523  -0.001635
  475        7.439935  -0.001067
  476        7.443342  -0.000988
  477        7.451362  -0.000821
  478        7.476393  -0.000451
  479        7.489057  -0.000329
  480        7.496513  -0.000272
  481        7.503591  -0.000226
  482        7.504957  -0.000218
  483        7.524435  -0.000130
  484        7.525407  -0.000126
  485        7.527868  -0.000118
  486        7.536759  -0.000092
  487        7.556279  -0.000053
  488        7.561910  -0.000045
  489        7.563522  -0.000043
  490        7.571121  -0.000034
  491        7.577013  -0.000029
  492        7.577623  -0.000028
  493        7.582033  -0.000025
  494        7.592305  -0.000018
  495        7.599083  -0.000015
  496        7.600697  -0.000014
  497        7.619726  -0.000008
  498        7.619937  -0.000007
  499        7.640660  -0.000004
  500        7.655083  -0.000002
  501        7.659305  -0.000002
  502        7.659405  -0.000002
  503        7.673167  -0.000001
  504        7.674836  -0.000001
  505        7.683052  -0.000001
  506        7.695031  -0.000001
  507        7.697127  -0.000001
  508        7.703723  -0.000000
  509        7.713221  -0.000000
  510        7.731251  -0.000000
  511        7.737181  -0.000000
  512        7.753508  -0.000000
 
  0.3750000E+00  0.1250000E+00  0.1250000E+00  0.3125000E-01
    1       -6.620797   1.000000
    2       -1.542816   1.000000
    3       -1.175761   1.000000
    4       -0.676112   1.000000
    5       -0.545881   1.000000
    6       -0.318330   1.000000
    7       -0.232501   1.000000
    8        0.020050   1.000000
    9        0.089996   1.000000
   10        0.224617   1.000000
   11        0.363948   1.000000
   12        0.499798   1.000000
   13        0.615651   1.000000
   14        0.680476   1.000000
   15        0.850426   1.000000
   16        0.951392   1.000000
   17        1.134823   1.000000
   18        1.150481   1.000000
   19        1.200129   1.000000
   20        1.357518   1.000000
   21        1.508983   1.000000
   22        1.579177   1.000000
   23        1.624371   1.000000
   24        1.728424   1.000000
   25        1.755975   1.000000
   26        1.905778   1.000000
   27        1.947586   1.000000
   28        2.018888   1.000000
   29        2.024856   1.000000
   30        2.034795   1.000000
   31        2.070329   1.000000
   32        2.088634   1.000000
   33        2.123121   1.000000
   34        2.133167   1.000000
   35        2.147204   1.000000
   36        2.174366   1.000000
   37        2.187072   1.000000
   38        2.231574   1.000000
   39        2.239865   1.000000
   40        2.254257   1.000000
   41        2.262842   1.000000
   42        2.290839   1.000000
   43        2.302386   1.000000
   44        2.320852   1.000000
   45        2.356112   1.000000
   46        2.357391   1.000000
   47        2.379691   1.000000
   48        2.414016   1.000000
   49        2.433289   1.000000
   50        2.458324   1.000000
   51        2.517606   1.000000
   52        2.536116   1.000000
   53        2.554433   1.000000
   54        2.608330   1.000000
   55        2.622929   1.000000
   56        2.633660   1.000000
   57        2.649578   1.000000
   58        2.655733   1.000000
   59        2.662153   1.000000
   60        2.689507   1.000000
   61        2.694451   1.000000
   62        2.714595   1.000000
   63        2.731071   1.000000
   64        2.753926   1.000000
   65        2.757579   1.000000
   66        2.765089   1.000000
   67        2.785109   1.000000
   68        2.807865   1.000000
   69        2.829449   1.000000
   70        2.840911   1.000000
   71        2.843081   1.000000
   72        2.852599   1.000000
   73        2.863127   1.000000
   74        2.873512   1.000000
   75        2.873895   1.000000
   76        2.895306   1.000000
   77        2.901359   1.000000
   78        2.920468   1.000000
   79        2.932251   1.000000
   80        2.938210   1.000000
   81        2.950383   1.000000
   82        2.977961   1.000000
   83        2.982422   1.000000
   84        2.997474   1.000000
   85        3.019250   1.000000
   86        3.028960   1.000000
   87        3.040147   1.000000
   88        3.045244   1.000000
   89        3.050115   1.000000
   90        3.071167   1.000000
   91        3.080282   1.000000
   92        3.088720   1.000000
   93        3.107921   1.000000
   94        3.121414   1.000000
   95        3.140850   1.000000
   96        3.148072   1.000000
   97        3.153485   1.000000
   98        3.172493   1.000000
   99        3.179795   1.000000
  100        3.194897   1.000000
  101        3.221065   1.000000
  102        3.240980   1.000000
  103        3.257090   1.000000
  104        3.267386   1.000000
  105        3.283053   1.000000
  106        3.303030   1.000000
  107        3.319885   1.000000
  108        3.331811   1.000000
  109        3.343001   1.000000
  110        3.350377   1.000000
  111        3.354911   1.000000
  112        3.364724   1.000000
  113        3.375700   1.000000
  114        3.392119   1.000000
  115        3.404444   1.000000
  116        3.418458   1.000000
  117        3.425413   1.000000
  118        3.446481   1.000000
  119        3.458567   1.000000
  120        3.473246   1.000000
  121        3.502982   1.000000
  122        3.511170   1.000000
  123        3.523821   1.000000
  124        3.532873   1.000000
  125        3.548491   1.000000
  126        3.558134   1.000000
  127        3.589994   1.000000
  128        3.604688   1.000000
  129        3.616251   1.000000
  130        3.628309   1.000000
  131        3.634590   1.000000
  132        3.641160   1.000000
  133        3.657048   1.000000
  134        3.665757   1.000000
  135        3.675766   1.000000
  136        3.695012   1.000000
  137        3.701844   1.000000
  138        3.712368   1.000000
  139        3.727952   1.000000
  140        3.739666   1.000000
  141        3.746652   1.000000
  142        3.761787   1.000000
  143        3.768889   1.000000
  144        3.778625   1.000000
  145        3.795906   1.000000
  146        3.802214   1.000000
  147        3.811444   1.000000
  148        3.837205   1.000000
  149        3.863310   1.000000
  150        3.877898   1.000000
  151        3.893098   1.000000
  152        3.912310   1.000000
  153        3.919238   1.000000
  154        3.942647   1.000000
  155        3.964572   1.000000
  156        3.979398   1.000000
  157        3.990625   1.000000
  158        4.002186   1.000000
  159        4.026698   1.000000
  160        4.036144   1.000000
  161        4.046529   1.000000
  162        4.055539   1.000000
  163        4.063031   1.000000
  164        4.074469   1.000000
  165        4.085600   1.000000
  166        4.097808   1.000000
  167        4.113372   1.000000
  168        4.129137   1.000000
  169        4.145287   1.000000
  170        4.153601   1.000000
  171        4.173492   1.000000
  172        4.180975   1.000000
  173        4.191340   1.000000
  174        4.206719   1.000000
  175        4.220880   1.000000
  176        4.237031   1.000000
  177        4.261856   1.000000
  178        4.286633   1.000000
  179        4.302971   1.000000
  180        4.315444   1.000000
  181        4.322260   1.000000
  182        4.328419   1.000000
  183        4.358195   1.000000
  184        4.369917   1.000000
  185        4.389629   1.000000
  186        4.405183   1.000000
  187        4.409264   1.000000
  188        4.420961   1.000000
  189        4.439281   1.000000
  190        4.448492   1.000000
  191        4.464229   1.000000
  192        4.487684   1.000000
  193        4.494004   1.000000
  194        4.513258   1.000000
  195        4.522534   1.000000
  196        4.556043   1.000000
  197        4.562552   1.000000
  198        4.574948   1.000000
  199        4.586722   1.000000
  200        4.596586   1.000000
  201        4.621783   1.000000
  202        4.632282   1.000000
  203        4.645830   1.000000
  204        4.647914   1.000000
  205        4.656056   1.000000
  206        4.673948   1.000000
  207        4.681124   1.000000
  208        4.690206   1.000000
  209        4.697481   1.000000
  210        4.709397   1.000000
  211        4.724581   1.000000
  212        4.728957   1.000000
  213        4.750765   1.000000
  214        4.761251   1.000000
  215        4.766722   1.000000
  216        4.774160   1.000000
  217        4.797802   1.000000
  218        4.802752   1.000000
  219        4.816508   1.000000
  220        4.832494   1.000000
  221        4.838807   1.000000
  222        4.859826   1.000000
  223        4.875175   1.000000
  224        4.884622   1.000000
  225        4.899208   1.000000
  226        4.916555   1.000000
  227        4.928454   1.000000
  228        4.943840   1.000000
  229        4.955678   1.000000
  230        4.969844   1.000000
  231        4.974196   1.000000
  232        4.989388   1.000000
  233        5.001133   1.000000
  234        5.005849   1.000000
  235        5.008709   1.000000
  236        5.019057   1.000000
  237        5.022252   1.000000
  238        5.031619   1.000000
  239        5.043265   1.000000
  240        5.056980   1.000000
  241        5.060266   1.000000
  242        5.064502   1.000000
  243        5.073734   1.000000
  244        5.084187   1.000000
  245        5.089438   1.000000
  246        5.099752   1.000000
  247        5.105386   1.000000
  248        5.115785   1.000000
  249        5.125927   1.000000
  250        5.131654   1.000000
  251        5.149002   1.000000
  252        5.161148   1.000000
  253        5.170639   1.000000
  254        5.175843   1.000000
  255        5.187341   1.000000
  256        5.196804   1.000000
  257        5.202749   1.000000
  258        5.209980   1.000000
  259        5.217263   1.000000
  260        5.233348   1.000000
  261        5.237962   1.000000
  262        5.250481   1.000000
  263        5.253121   1.000000
  264        5.267582   1.000000
  265        5.277839   1.000000
  266        5.280857   1.000000
  267        5.313417   1.000000
  268        5.317374   1.000000
  269        5.321297   1.000000
  270        5.330294   1.000000
  271        5.340018   1.000000
  272        5.346451   1.000000
  273        5.356909   1.000000
  274        5.359973   1.000000
  275        5.373396   1.000000
  276        5.377245   1.000000
  277        5.387062   1.000000
  278        5.395769   1.000000
  279        5.405468   1.000000
  280        5.411856   1.000000
  281        5.419167   1.000000
  282        5.429772   1.000000
  283        5.434651   1.000000
  284        5.444039   1.000000
  285        5.449756   1.000000
  286        5.455763   1.000000
  287        5.458182   1.000000
  288        5.468663   1.000000
  289        5.475647   1.000000
  290        5.491043   1.000000
  291        5.502681   1.000000
  292        5.510782   1.000000
  293        5.516033   1.000000
  294        5.524812   1.000000
  295        5.530797   1.000000
  296        5.537770   1.000000
  297        5.542936   1.000000
  298        5.553909   1.000000
  299        5.555274   1.000000
  300        5.565662   1.000000
  301        5.568806   1.000000
  302        5.574118   1.000000
  303        5.580553   1.000000
  304        5.582642   1.000000
  305        5.600282   1.000000
  306        5.604939   1.000000
  307        5.610535   1.000000
  308        5.619528   1.000000
  309        5.620270   1.000000
  310        5.634078   1.000000
  311        5.638715   1.000000
  312        5.647337   1.000000
  313        5.653266   1.000000
  314        5.658007   1.000000
  315        5.667937   1.000000
  316        5.677357   1.000000
  317        5.682646   1.000000
  318        5.688252   1.000000
  319        5.696087   1.000000
  320        5.700561   1.000000
  321        5.705935   1.000000
  322        5.715346   1.000000
  323        5.729248   1.000000
  324        5.743097   1.000000
  325        5.751465   1.000000
  326        5.757998   1.000000
  327        5.764811   1.000000
  328        5.770102   1.000000
  329        5.781510   1.000000
  330        5.795238   1.000000
  331        5.810197   1.000000
  332        5.821238   1.000000
  333        5.826766   1.000000
  334        5.849810   1.000000
  335        5.853901   1.000000
  336        5.869420   1.000000
  337        5.881013   1.000000
  338        5.892358   1.000000
  339        5.897012   1.000000
  340        5.915973   1.000000
  341        5.926700   1.000000
  342        5.942279   1.000000
  343        5.966620   1.000000
  344        5.980247   1.000000
  345        5.991635   1.000000
  346        5.993569   1.000000
  347        6.008569   1.000000
  348        6.034908   1.000000
  349        6.046109   1.000000
  350        6.061387   1.000000
  351        6.097066   1.000000
  352        6.120192   1.000000
  353        6.136918   1.000000
  354        6.171092   1.000000
  355        6.182412   1.000001
  356        6.191264   1.000001
  357        6.206965   1.000002
  358        6.217996   1.000002
  359        6.233957   1.000004
  360        6.238967   1.000005
  361        6.244792   1.000006
  362        6.262914   1.000010
  363        6.268075   1.000012
  364        6.274048   1.000015
  365        6.288989   1.000023
  366        6.303810   1.000037
  367        6.317658   1.000055
  368        6.332058   1.000083
  369        6.341764   1.000109
  370        6.345819   1.000122
  371        6.350474   1.000138
  372        6.362103   1.000189
  373        6.374031   1.000258
  374        6.383199   1.000326
  375        6.388460   1.000373
  376        6.396175   1.000451
  377        6.398933   1.000483
  378        6.412162   1.000664
  379        6.423755   1.000871
  380        6.433708   1.001093
  381        6.444550   1.001390
  382        6.445933   1.001432
  383        6.453588   1.001689
  384        6.460780   1.001966
  385        6.468950   1.002328
  386        6.478228   1.002806
  387        6.483652   1.003122