       N       E                     dE             d eps       ncg     rms          rms(c)
DAV:   1     0.751515553701E+04    0.75152E+04   -0.28517E+05 32832   0.183E+03
DAV:   2    -0.957527417768E+01   -0.75247E+04   -0.73585E+04 32768   0.457E+02
DAV:   3    -0.832347254186E+03   -0.82277E+03   -0.70427E+03 32960   0.192E+02
DAV:   4    -0.100733560187E+04   -0.17499E+03   -0.16411E+03 59816   0.574E+01
DAV:   5    -0.102226752560E+04   -0.14932E+02   -0.14095E+02 52688   0.218E+01    0.921E+01
RMM:   6    -0.877302688560E+03    0.14496E+03   -0.13926E+03 32768   0.111E+02    0.413E+01
RMM:   7    -0.114385764449E+04   -0.26655E+03   -0.42143E+02 42414   0.353E+01    0.168E+02
RMM:   8    -0.878096439114E+03    0.26576E+03   -0.20842E+02 32768   0.419E+01    0.547E+01
RMM:   9    -0.862252372139E+03    0.15844E+02   -0.60710E+01 33413   0.171E+01    0.174E+01
RMM:  10    -0.865555602418E+03   -0.33032E+01   -0.44926E+01 46882   0.867E+00    0.221E+01
RMM:  11    -0.863960687899E+03    0.15949E+01   -0.12047E+01 37640   0.640E+00    0.150E+01
RMM:  12    -0.863557223432E+03    0.40346E+00   -0.60870E+00 46478   0.326E+00    0.132E+01
RMM:  13    -0.862816672556E+03    0.74055E+00   -0.20912E+00 34260   0.342E+00    0.976E+00
RMM:  14    -0.862433387929E+03    0.38328E+00   -0.19658E+00 36499   0.277E+00    0.678E+00
RMM:  15    -0.862464572805E+03   -0.31185E-01   -0.12589E+00 47722   0.121E+00    0.791E+00
RMM:  16    -0.862231089021E+03    0.23348E+00   -0.36633E-01 34108   0.152E+00    0.573E+00
RMM:  17    -0.862180291905E+03    0.50797E-01   -0.27986E-01 36779   0.101E+00    0.475E+00
RMM:  18    -0.862091357245E+03    0.88935E-01   -0.28353E-01 34501   0.118E+00    0.215E+00
RMM:  19    -0.862085169363E+03    0.61879E-02   -0.19432E-01 48325   0.504E-01    0.101E+00
RMM:  20    -0.862086890420E+03   -0.17211E-02   -0.44188E-02 43437   0.249E-01    0.112E+00
RMM:  21    -0.862084083008E+03    0.28074E-02   -0.23927E-02 38314   0.282E-01    0.104E+00
RMM:  22    -0.862085470289E+03   -0.13873E-02   -0.17011E-02 44201   0.183E-01    0.117E+00
RMM:  23    -0.862080297358E+03    0.51729E-02   -0.78798E-03 33810   0.228E-01    0.567E-01
RMM:  24    -0.862079158419E+03    0.11389E-02   -0.30267E-03 37577   0.106E-01    0.290E-01
RMM:  25    -0.862079198618E+03   -0.40199E-04   -0.24418E-03 47933   0.569E-02    0.228E-01
RMM:  26    -0.862078964919E+03    0.23370E-03   -0.75802E-04 40742   0.451E-02    0.812E-02
RMM:  27    -0.862078957669E+03    0.72498E-05   -0.27543E-04 48908   0.207E-02    0.679E-02
RMM:  28    -0.862078927754E+03    0.29916E-04   -0.29717E-05 37988   0.196E-02    0.636E-02
RMM:  29    -0.862078898065E+03    0.29689E-04    0.10087E-05 36093   0.150E-02    0.268E-02
RMM:  30    -0.862078893249E+03    0.48167E-05    0.14987E-05 44298   0.979E-03    0.435E-02
RMM:  31    -0.862078874010E+03    0.19239E-04    0.40182E-05 31809   0.752E-03    0.202E-02
RMM:  32    -0.862078868140E+03    0.58704E-05    0.43368E-05 24588   0.305E-03    0.171E-02
RMM:  33    -0.862078861922E+03    0.62173E-05    0.40591E-05 20731   0.338E-03    0.122E-02
RMM:  34    -0.862078857194E+03    0.47282E-05    0.33642E-05 20265   0.316E-03    0.554E-03
RMM:  35    -0.862078854001E+03    0.31933E-05    0.29036E-05 19821   0.205E-03    0.510E-03
RMM:  36    -0.862078850671E+03    0.33302E-05    0.27989E-05 19559   0.230E-03    0.167E-03
RMM:  37    -0.862078848191E+03    0.24799E-05    0.24326E-05 19347   0.133E-03    0.159E-03
RMM:  38    -0.862078845665E+03    0.25257E-05    0.25404E-05 18680   0.144E-03    0.123E-03
RMM:  39    -0.862078843598E+03    0.20670E-05    0.20328E-05 16888   0.874E-04    0.706E-04
RMM:  40    -0.862078841780E+03    0.18183E-05    0.18479E-05 16742   0.917E-04    0.953E-04
RMM:  41    -0.862078840186E+03    0.15941E-05    0.16963E-05 14276   0.612E-04    0.496E-04
RMM:  42    -0.862078838600E+03    0.15861E-05    0.15886E-05 12759   0.591E-04    0.604E-04
RMM:  43    -0.862078837220E+03    0.13792E-05    0.14203E-05 11404   0.478E-04    0.423E-04
RMM:  44    -0.862078835878E+03    0.13428E-05    0.13373E-05  9281   0.436E-04    0.451E-04
RMM:  45    -0.862078834662E+03    0.12159E-05    0.12224E-05 11187   0.417E-04    0.296E-04
RMM:  46    -0.862078833542E+03    0.11201E-05    0.11202E-05  8210   0.322E-04    0.126E-04
RMM:  47    -0.862078832548E+03    0.99393E-06    0.98593E-06  6779   0.297E-04
   1 F= -.86207883E+03 E0= -.86206952E+03  d E =-.862079E+03
       N       E                     dE             d eps       ncg     rms          rms(c)
DAV:   1    -0.862924547361E+03   -0.84571E+00   -0.42442E+02 32768   0.297E+01    0.108E+01
RMM:   2    -0.903735101788E+03   -0.40811E+02   -0.19474E+02 37602   0.313E+01    0.584E+01
RMM:   3    -0.865783854662E+03    0.37951E+02   -0.36462E+01 32768   0.186E+01    0.222E+01
RMM:   4    -0.863689861210E+03    0.20940E+01   -0.48186E+00 34186   0.432E+00    0.106E+01
RMM:   5    -0.863632185934E+03    0.57675E-01   -0.23210E+00 47093   0.164E+00    0.721E+00
RMM:   6    -0.863532713928E+03    0.99472E-01   -0.20865E+00 42327   0.211E+00    0.454E+00
RMM:   7    -0.863581957136E+03   -0.49243E-01   -0.77492E-01 46565   0.119E+00    0.547E+00
RMM:   8    -0.863444812286E+03    0.13714E+00   -0.23841E-01 33543   0.111E+00    0.296E+00
RMM:   9    -0.863407338917E+03    0.37473E-01   -0.15943E-01 33553   0.876E-01    0.141E+00
RMM:  10    -0.863498589045E+03   -0.91250E-01   -0.39307E-01 44163   0.940E-01    0.440E+00
RMM:  11    -0.863428231470E+03    0.70358E-01   -0.10023E-01 32846   0.750E-01    0.245E+00
RMM:  12    -0.863422661363E+03    0.55701E-02   -0.69649E-02 46174   0.327E-01    0.229E+00
RMM:  13    -0.863398532935E+03    0.24128E-01   -0.27532E-02 35427   0.339E-01    0.105E+00
RMM:  14    -0.863396643013E+03    0.18899E-02   -0.21559E-02 46626   0.166E-01    0.581E-01
RMM:  15    -0.863396170408E+03    0.47260E-03   -0.79822E-03 44430   0.120E-01    0.420E-01
RMM:  16    -0.863395569279E+03    0.60113E-03   -0.45535E-03 41707   0.106E-01    0.167E-01
RMM:  17    -0.863395724799E+03   -0.15552E-03   -0.18658E-03 48404   0.460E-02    0.225E-01
RMM:  18    -0.863395607529E+03    0.11727E-03   -0.23893E-04 36627   0.306E-02    0.178E-01
RMM:  19    -0.863395563821E+03    0.43708E-04   -0.87826E-05 37054   0.190E-02    0.155E-01
RMM:  20    -0.863395493192E+03    0.70628E-04   -0.14241E-04 39430   0.218E-02    0.103E-01
RMM:  21    -0.863395448866E+03    0.44327E-04   -0.11870E-04 40730   0.189E-02    0.306E-02
RMM:  22    -0.863395452018E+03   -0.31522E-05   -0.53567E-05 46466   0.795E-03    0.275E-02
RMM:  23    -0.863395450598E+03    0.14194E-05   -0.17845E-05 37811   0.664E-03    0.207E-02
RMM:  24    -0.863395449679E+03    0.91944E-06   -0.43491E-06 28701   0.446E-03
   2 F= -.86339545E+03 E0= -.86338800E+03  d E =-.131662E+01
       N       E                     dE             d eps       ncg     rms          rms(c)
DAV:   1    -0.863418816892E+03   -0.23366E-01   -0.17259E+01 33120   0.588E+00    0.153E+00
RMM:   2    -0.864473290549E+03   -0.10545E+01   -0.30716E+00 34771   0.408E+00    0.130E+01
RMM:   3    -0.863453773022E+03    0.10195E+01   -0.72592E-01 32774   0.265E+00    0.205E+00
RMM:   4    -0.863434429868E+03    0.19343E-01   -0.14679E-01 46028   0.490E-01    0.739E-01
RMM:   5    -0.863442431059E+03   -0.80012E-02   -0.62568E-02 41946   0.383E-01    0.136E+00
RMM:   6    -0.863433483401E+03    0.89477E-02   -0.24651E-02 35584   0.315E-01    0.519E-01
RMM:   7    -0.863436530972E+03   -0.30476E-02   -0.22392E-02 43108   0.218E-01    0.904E-01
RMM:   8    -0.863433220424E+03    0.33105E-02   -0.62969E-03 33093   0.182E-01    0.516E-01
RMM:   9    -0.863432123172E+03    0.10973E-02   -0.34429E-03 36561   0.116E-01    0.229E-01
RMM:  10    -0.863432370541E+03   -0.24737E-03   -0.26512E-03 42085   0.807E-02    0.312E-01
RMM:  11    -0.863431874529E+03    0.49601E-03   -0.75920E-04 33946   0.672E-02    0.673E-02
RMM:  12    -0.863431915207E+03   -0.40678E-04   -0.60030E-04 46582   0.280E-02    0.794E-02
RMM:  13    -0.863431915913E+03   -0.70607E-06   -0.14990E-04 39575   0.189E-02    0.765E-02
RMM:  14    -0.863431890793E+03    0.25121E-04   -0.54416E-05 35838   0.152E-02    0.332E-02
RMM:  15    -0.863431896724E+03   -0.59312E-05   -0.52501E-05 43436   0.110E-02    0.460E-02
RMM:  16    -0.863431887356E+03    0.93674E-05   -0.14098E-05 34163   0.909E-03    0.172E-02
RMM:  17    -0.863431887819E+03   -0.46233E-06   -0.96459E-06 33368   0.543E-03
   3 F= -.86343189E+03 E0= -.86342437E+03  d E =-.135306E+01
       N       E                     dE             d eps       ncg     rms          rms(c)
DAV:   1    -0.863503142428E+03   -0.71255E-01   -0.23083E+01 32768   0.688E+00    0.169E+00
RMM:   2    -0.865284424858E+03   -0.17813E+01   -0.42849E+00 36515   0.433E+00    0.176E+01
RMM:   3    -0.863563741190E+03    0.17207E+01   -0.10167E+00 32768   0.293E+00    0.304E+00
RMM:   4    -0.863511842808E+03    0.51898E-01   -0.33832E-01 39479   0.765E-01    0.985E-01
RMM:   5    -0.863527173984E+03   -0.15331E-01   -0.15004E-01 46567   0.457E-01    0.160E+00
RMM:   6    -0.863515866360E+03    0.11308E-01   -0.41423E-02 36731   0.355E-01    0.653E-01
RMM:   7    -0.863518656826E+03   -0.27905E-02   -0.31919E-02 45218   0.247E-01    0.942E-01
RMM:   8    -0.863515881489E+03    0.27753E-02   -0.10349E-02 33626   0.224E-01    0.746E-01
RMM:   9    -0.863513216787E+03    0.26647E-02   -0.52932E-03 32969   0.176E-01    0.282E-01
RMM:  10    -0.863514087937E+03   -0.87115E-03   -0.57601E-03 39465   0.134E-01    0.482E-01
RMM:  11    -0.863512888335E+03    0.11996E-02   -0.17828E-03 33090   0.108E-01    0.956E-02
RMM:  12    -0.863512946931E+03   -0.58596E-04   -0.10680E-03 46774   0.366E-02    0.105E-01
RMM:  13    -0.863512941889E+03    0.50417E-05   -0.23052E-04 38611   0.249E-02    0.942E-02
RMM:  14    -0.863512903595E+03    0.38294E-04   -0.85195E-05 36668   0.184E-02    0.389E-02
RMM:  15    -0.863512912439E+03   -0.88443E-05   -0.75356E-05 41540   0.139E-02    0.538E-02
RMM:  16    -0.863512900462E+03    0.11977E-04   -0.23821E-05 34499   0.114E-02    0.232E-02
RMM:  17    -0.863512900959E+03   -0.49718E-06   -0.17894E-05 38692   0.661E-03    0.228E-02
RMM:  18    -0.863512899226E+03    0.17330E-05   -0.54893E-06 28321   0.557E-03    0.118E-02
RMM:  19    -0.863512898612E+03    0.61451E-06   -0.17290E-06 19809   0.361E-03
   4 F= -.86351290E+03 E0= -.86350476E+03  d E =-.810108E-01
       N       E                     dE             d eps       ncg     rms          rms(c)
DAV:   1    -0.863525132277E+03   -0.12233E-01   -0.11822E+01 32768   0.493E+00    0.119E+00
RMM:   2    -0.864417064155E+03   -0.89193E+00   -0.21155E+00 36554   0.302E+00    0.126E+01
RMM:   3    -0.863552948717E+03    0.86412E+00   -0.50791E-01 32768   0.207E+00    0.203E+00
RMM:   4    -0.863529673387E+03    0.23275E-01   -0.17456E-01 40561   0.526E-01    0.668E-01
RMM:   5    -0.863537477589E+03   -0.78042E-02   -0.74596E-02 46666   0.321E-01    0.115E+00
RMM:   6    -0.863531424845E+03    0.60527E-02   -0.20632E-02 36584   0.256E-01    0.441E-01
RMM:   7    -0.863533253796E+03   -0.18290E-02   -0.16777E-02 44949   0.183E-01    0.719E-01
RMM:   8    -0.863531314860E+03    0.19389E-02   -0.47403E-03 33424   0.153E-01    0.492E-01
RMM:   9    -0.863530191010E+03    0.11239E-02   -0.25863E-03 33343   0.119E-01    0.201E-01
RMM:  10    -0.863530598546E+03   -0.40754E-03   -0.28554E-03 40406   0.914E-02    0.330E-01
RMM:  11    -0.863530038607E+03    0.55994E-03   -0.85122E-04 33210   0.730E-02    0.672E-02
RMM:  12    -0.863530070018E+03   -0.31411E-04   -0.54813E-04 47231   0.248E-02    0.726E-02
RMM:  13    -0.863530067918E+03    0.21000E-05   -0.11305E-04 38760   0.174E-02    0.658E-02
RMM:  14    -0.863530049973E+03    0.17945E-04   -0.42826E-05 36908   0.129E-02    0.296E-02
RMM:  15    -0.863530054293E+03   -0.43196E-05   -0.37270E-05 40713   0.101E-02    0.395E-02
RMM:  16    -0.863530047545E+03    0.67479E-05   -0.12071E-05 32908   0.840E-03    0.158E-02
RMM:  17    -0.863530047651E+03   -0.10658E-06   -0.66456E-06 29533   0.465E-03
   5 F= -.86353005E+03 E0= -.86352156E+03  d E =-.981598E-01
       N       E                     dE             d eps       ncg     rms          rms(c)
DAV:   1    -0.863540462765E+03   -0.10415E-01   -0.43618E+00 33088   0.299E+00    0.618E-01
RMM:   2    -0.863794527694E+03   -0.25406E+00   -0.59238E-01 36500   0.160E+00    0.677E+00
RMM:   3    -0.863551296262E+03    0.24323E+00   -0.13712E-01 32776   0.106E+00    0.904E-01
RMM:   4    -0.863546118877E+03    0.51774E-02   -0.53310E-02 41521   0.284E-01    0.377E-01
RMM:   5    -0.863548294128E+03   -0.21753E-02   -0.20950E-02 45892   0.171E-01    0.657E-01
RMM:   6    -0.863546271158E+03    0.20230E-02   -0.61646E-03 36278   0.146E-01    0.204E-01
RMM:   7    -0.863547508410E+03   -0.12373E-02   -0.67191E-03 41644   0.132E-01    0.536E-01
RMM:   8    -0.863546158439E+03    0.13500E-02   -0.15826E-03 32843   0.962E-02    0.245E-01
RMM:   9    -0.863545944721E+03    0.21372E-03   -0.11890E-03 38600   0.640E-02    0.129E-01
RMM:  10    -0.863545990486E+03   -0.45765E-04   -0.69744E-04 38676   0.469E-02    0.148E-01
RMM:  11    -0.863545876512E+03    0.11397E-03   -0.20542E-04 34174   0.346E-02    0.320E-02
RMM:  12    -0.863545891716E+03   -0.15204E-04   -0.16806E-04 47301   0.139E-02    0.506E-02
RMM:  13    -0.863545882882E+03    0.88339E-05   -0.28229E-05 36292   0.102E-02    0.287E-02
RMM:  14    -0.863545880924E+03    0.19577E-05   -0.12627E-05 34512   0.549E-03    0.203E-02
RMM:  15    -0.863545881750E+03   -0.82576E-06   -0.89661E-06 32695   0.600E-03
   6 F= -.86354588E+03 E0= -.86353780E+03  d E =-.158341E-01
       N       E                     dE             d eps       ncg     rms          rms(c)
DAV:   1    -0.863546511736E+03   -0.63081E-03   -0.15965E+00 33376   0.181E+00    0.376E-01
RMM:   2    -0.863640223606E+03   -0.93712E-01   -0.22075E-01 36499   0.974E-01    0.411E+00
RMM:   3    -0.863550469552E+03    0.89754E-01   -0.50591E-02 32780   0.646E-01    0.553E-01
RMM:   4    -0.863548557794E+03    0.19118E-02   -0.19608E-02 41506   0.172E-01    0.230E-01
RMM:   5    -0.863549364506E+03   -0.80671E-03   -0.78178E-03 46029   0.104E-01    0.400E-01
RMM:   6    -0.863548616966E+03    0.74754E-03   -0.22961E-03 36291   0.890E-02    0.125E-01
RMM:   7    -0.863549066886E+03   -0.44992E-03   -0.24718E-03 41818   0.799E-02    0.323E-01
RMM:   8    -0.863548576723E+03    0.49016E-03   -0.57887E-04 32866   0.579E-02    0.149E-01
RMM:   9    -0.863548498877E+03    0.77847E-04   -0.44156E-04 39127   0.383E-02    0.789E-02
RMM:  10    -0.863548515201E+03   -0.16324E-04   -0.24974E-04 38347   0.286E-02    0.900E-02
RMM:  11    -0.863548472916E+03    0.42285E-04   -0.74244E-05 34093   0.209E-02    0.196E-02
RMM:  12    -0.863548477972E+03   -0.50560E-05   -0.60200E-05 45669   0.823E-03    0.291E-02
RMM:  13    -0.863548475681E+03    0.22904E-05   -0.99647E-06 30902   0.600E-03    0.198E-02
RMM:  14    -0.863548474246E+03    0.14353E-05   -0.28992E-06 22459   0.405E-03    0.115E-02
RMM:  15    -0.863548474591E+03   -0.34516E-06   -0.29082E-06 20895   0.389E-03
   7 F= -.86354847E+03 E0= -.86354064E+03  d E =-.184269E-01
       N       E                     dE             d eps       ncg     rms          rms(c)
DAV:   1    -0.863551966565E+03   -0.34923E-02   -0.21467E+00 32768   0.209E+00    0.320E-01
RMM:   2    -0.863596858411E+03   -0.44892E-01   -0.13717E-01 34901   0.878E-01    0.277E+00
RMM:   3    -0.863555652788E+03    0.41206E-01   -0.32331E-02 32768   0.546E-01    0.398E-01
RMM:   4    -0.863554830773E+03    0.82201E-03   -0.76468E-03 46845   0.115E-01    0.197E-01
RMM:   5    -0.863555141530E+03   -0.31076E-03   -0.30761E-03 41976   0.830E-02    0.351E-01
RMM:   6    -0.863554443400E+03    0.69813E-03   -0.12766E-03 34148   0.807E-02    0.104E-01
RMM:   7    -0.863555087945E+03   -0.64455E-03   -0.28674E-03 36697   0.104E-01    0.365E-01
RMM:   8    -0.863554390958E+03    0.69699E-03   -0.80412E-04 32768   0.761E-02    0.121E-01
RMM:   9    -0.863554345359E+03    0.45599E-04   -0.38638E-04 41640   0.288E-02    0.643E-02
RMM:  10    -0.863554347687E+03   -0.23286E-05   -0.15387E-04 40384   0.207E-02    0.630E-02
RMM:  11    -0.863554328387E+03    0.19300E-04   -0.48349E-05 35600   0.147E-02    0.164E-02
RMM:  12    -0.863554331157E+03   -0.27693E-05   -0.34261E-05 44407   0.657E-03    0.233E-02
RMM:  13    -0.863554329186E+03    0.19708E-05   -0.64829E-06 28551   0.547E-03    0.144E-02
RMM:  14    -0.863554328497E+03    0.68857E-06   -0.20909E-06 20506   0.339E-03
   8 F= -.86355433E+03 E0= -.86354668E+03  d E =-.585391E-02
       N       E                     dE             d eps       ncg     rms          rms(c)
DAV:   1    -0.863554460152E+03   -0.13097E-03   -0.85811E-01 33184   0.132E+00    0.203E-01
RMM:   2    -0.863572534210E+03   -0.18074E-01   -0.55335E-02 34995   0.556E-01    0.176E+00
RMM:   3    -0.863555928421E+03    0.16606E-01   -0.13117E-02 32768   0.347E-01    0.254E-01
RMM:   4    -0.863555602619E+03    0.32580E-03   -0.31330E-03 46817   0.732E-02    0.124E-01
RMM:   5    -0.863555731210E+03   -0.12859E-03   -0.12499E-03 41998   0.528E-02    0.223E-01
RMM:   6    -0.863555449762E+03    0.28145E-03   -0.51767E-04 34213   0.513E-02    0.661E-02
RMM:   7    -0.863555708895E+03   -0.25913E-03   -0.11639E-03 36666   0.663E-02    0.231E-01
RMM:   8    -0.863555426262E+03    0.28263E-03   -0.32999E-04 32771   0.489E-02    0.736E-02
RMM:   9    -0.863555411092E+03    0.15170E-04   -0.15333E-04 42651   0.174E-02    0.410E-02
RMM:  10    -0.863555411608E+03   -0.51606E-06   -0.59066E-05 39494   0.131E-02    0.393E-02
RMM:  11    -0.863555404022E+03    0.75856E-05   -0.19241E-05 34997   0.932E-03    0.991E-03
RMM:  12    -0.863555404998E+03   -0.97626E-06   -0.11663E-05 33862   0.425E-03    0.140E-02
RMM:  13    -0.863555404238E+03    0.76022E-06   -0.24564E-06 20233   0.406E-03
   9 F= -.86355540E+03 E0= -.86354787E+03  d E =-.692965E-02
       N       E                     dE             d eps       ncg     rms          rms(c)
DAV:   1    -0.863556808992E+03   -0.14040E-02   -0.12746E+00 32768   0.161E+00    0.265E-01
RMM:   2    -0.863597544291E+03   -0.40735E-01   -0.10350E-01 36207   0.698E-01    0.269E+00
RMM:   3    -0.863559055284E+03    0.38489E-01   -0.23653E-02 32768   0.451E-01    0.396E-01
RMM:   4    -0.863558185072E+03    0.87021E-03   -0.79902E-03 44995   0.111E-01    0.144E-01
RMM:   5    -0.863558428724E+03   -0.24365E-03   -0.29105E-03 44096   0.680E-02    0.272E-01
RMM:   6    -0.863558061088E+03    0.36764E-03   -0.97737E-04 35794   0.628E-02    0.917E-02
RMM:   7    -0.863558473229E+03   -0.41214E-03   -0.17031E-03 40457   0.695E-02    0.305E-01
RMM:   8    -0.863558022306E+03    0.45092E-03   -0.47721E-04 32769   0.551E-02    0.112E-01
RMM:   9    -0.863557974320E+03    0.47985E-04   -0.25534E-04 38466   0.298E-02    0.586E-02
RMM:  10    -0.863557980619E+03   -0.62992E-05   -0.14397E-04 40814   0.190E-02    0.616E-02
RMM:  11    -0.863557962646E+03    0.17973E-04   -0.39358E-05 35325   0.132E-02    0.143E-02
RMM:  12    -0.863557964537E+03   -0.18907E-05   -0.27731E-05 40733   0.530E-03    0.181E-02
RMM:  13    -0.863557963498E+03    0.10392E-05   -0.29372E-06 22272   0.404E-03    0.127E-02
RMM:  14    -0.863557962869E+03    0.62853E-06   -0.15493E-06 18711   0.335E-03
  10 F= -.86355796E+03 E0= -.86355052E+03  d E =-.255863E-02
       N       E                     dE             d eps       ncg     rms          rms(c)
DAV:   1    -0.863557887510E+03    0.75988E-04   -0.55635E-01 32912   0.107E+00    0.179E-01
RMM:   2    -0.863576408606E+03   -0.18521E-01   -0.46973E-02 36192   0.471E-01    0.182E+00
RMM:   3    -0.863558891300E+03    0.17517E-01   -0.10766E-02 32768   0.305E-01    0.272E-01
RMM:   4    -0.863558476535E+03    0.41477E-03   -0.36018E-03 44809   0.753E-02    0.966E-02
RMM:   5    -0.863558595464E+03   -0.11893E-03   -0.13417E-03 44401   0.461E-02    0.185E-01
RMM:   6    -0.863558424920E+03    0.17054E-03   -0.44544E-04 35842   0.421E-02    0.612E-02
RMM:   7    -0.863558601163E+03   -0.17624E-03   -0.74844E-04 40534   0.459E-02    0.200E-01
RMM:   8    -0.863558411329E+03    0.18983E-03   -0.20888E-04 32770   0.362E-02    0.778E-02
RMM:   9    -0.863558386911E+03    0.24418E-04   -0.10867E-04 37549   0.202E-02    0.388E-02
RMM:  10    -0.863558390630E+03   -0.37187E-05   -0.69357E-05 41079   0.129E-02    0.423E-02
RMM:  11    -0.863558382131E+03    0.84987E-05   -0.18403E-05 34277   0.912E-03    0.989E-03
RMM:  12    -0.863558382798E+03   -0.66657E-06   -0.10877E-05 32195   0.361E-03    0.114E-02
RMM:  13    -0.863558382479E+03    0.31890E-06   -0.18664E-06 19245   0.333E-03
  11 F= -.86355838E+03 E0= -.86355100E+03  d E =-.297824E-02
       N       E                     dE             d eps       ncg     rms          rms(c)
DAV:   1    -0.863558381351E+03    0.14466E-05   -0.56173E-03 34368   0.107E-01    0.155E-02
RMM:   2    -0.863558516098E+03   -0.13475E-03   -0.35559E-04 36005   0.423E-02    0.154E-01
RMM:   3    -0.863558390999E+03    0.12510E-03   -0.77712E-05 32768   0.258E-02    0.223E-02
RMM:   4    -0.863558388018E+03    0.29808E-05   -0.24503E-05 40526   0.641E-03    0.934E-03
RMM:   5    -0.863558388627E+03   -0.60961E-06   -0.83576E-06 28794   0.454E-03
  12 F= -.86355839E+03 E0= -.86355100E+03  d E =-.298439E-02
       N       E                     dE             d eps       ncg     rms          rms(c)
DAV:   1    -0.863558402885E+03   -0.14867E-04   -0.22389E-01 33216   0.674E-01    0.123E-01
RMM:   2    -0.863566570501E+03   -0.81676E-02   -0.22528E-02 35975   0.331E-01    0.119E+00
RMM:   3    -0.863559003115E+03    0.75674E-02   -0.48372E-03 32772   0.205E-01    0.202E-01
RMM:   4    -0.863558767096E+03    0.23602E-03   -0.15481E-03 43316   0.538E-02    0.712E-02
RMM:   5    -0.863558821882E+03   -0.54786E-04   -0.64883E-04 44906   0.336E-02    0.122E-01
RMM:   6    -0.863558747682E+03    0.74200E-04   -0.21366E-04 35506   0.296E-02    0.378E-02
RMM:   7    -0.863558819733E+03   -0.72050E-04   -0.33906E-04 39505   0.322E-02    0.125E-01
RMM:   8    -0.863558741383E+03    0.78350E-04   -0.93754E-05 32770   0.245E-02    0.465E-02
RMM:   9    -0.863558735500E+03    0.58835E-05   -0.49496E-05 41434   0.101E-02    0.278E-02
RMM:  10    -0.863558736582E+03   -0.10824E-05   -0.24885E-05 37834   0.905E-03    0.304E-02
RMM:  11    -0.863558731804E+03    0.47778E-05   -0.80256E-06 30109   0.676E-03    0.610E-03
RMM:  12    -0.863558731956E+03   -0.15158E-06   -0.31900E-06 23477   0.273E-03
  13 F= -.86355873E+03 E0= -.86355145E+03  d E =-.343328E-03
       N       E                     dE             d eps       ncg     rms          rms(c)
DAV:   1    -0.863558731819E+03   -0.14341E-07   -0.72977E-04 34608   0.390E-02    0.737E-03
RMM:   2    -0.863558760482E+03   -0.28664E-04   -0.80205E-05 36219   0.192E-02    0.702E-02
RMM:   3    -0.863558734008E+03    0.26474E-04   -0.16886E-05 32648   0.120E-02    0.127E-02
RMM:   4    -0.863558732875E+03    0.11338E-05   -0.38518E-06 22015   0.336E-03    0.469E-03
RMM:   5    -0.863558733035E+03   -0.15983E-06   -0.18988E-06 19153   0.280E-03
  14 F= -.86355873E+03 E0= -.86355144E+03  d E =-.344407E-03
       N       E                     dE             d eps       ncg     rms          rms(c)
DAV:   1    -0.863558767686E+03   -0.34811E-04   -0.40342E-02 33200   0.286E-01    0.446E-02
RMM:   2    -0.863559614170E+03   -0.84648E-03   -0.24994E-03 34663   0.120E-01    0.383E-01
RMM:   3    -0.863558827059E+03    0.78711E-03   -0.62023E-04 32768   0.761E-02    0.548E-02
RMM:   4    -0.863558810733E+03    0.16327E-04   -0.13686E-04 46213   0.159E-02    0.282E-02
RMM:   5    -0.863558816886E+03   -0.61531E-05   -0.58274E-05 42417   0.111E-02    0.481E-02
RMM:   6    -0.863558803903E+03    0.12983E-04   -0.24434E-05 34589   0.106E-02    0.160E-02
RMM:   7    -0.863558815264E+03   -0.11361E-04   -0.51954E-05 35717   0.143E-02    0.486E-02
RMM:   8    -0.863558802380E+03    0.12884E-04   -0.15470E-05 32612   0.108E-02    0.107E-02
RMM:   9    -0.863558802072E+03    0.30847E-06   -0.39352E-06 24823   0.337E-03
  15 F= -.86355880E+03 E0= -.86355151E+03  d E =-.690371E-04
