Opt                                     
           1
    10.334847    0.000000    0.000000
     0.000000   10.334847    0.000000
     0.000000    0.000000   10.334847
   Fe   Te
 106   1
Direct configuration=     1
   0.00000000  0.00000000  0.00000000
   0.00000000  0.16666893  0.16666893
   0.00000000  0.33333106  0.00000000
   0.00000000  0.50000000  0.16666894
   0.00000000  0.66666897  0.00000000
   0.00000000  0.83333104  0.16666893
   0.00000000  0.00000000  0.33333106
   0.00000000  0.16666894  0.50000000
   0.00000000  0.33333107  0.33333107
   0.00000000  0.50000000  0.50000000
   0.00000000  0.66666896  0.33333107
   0.00000000  0.83333103  0.50000000
   0.00000000  0.00000000  0.66666897
   0.00000000  0.16666893  0.83333104
   0.00000000  0.33333107  0.66666896
   0.00000000  0.50000000  0.83333103
   0.00000000  0.66666896  0.66666896
   0.00000000  0.83333104  0.83333104
   0.16666893  0.00000000  0.16666893
   0.16666893  0.16666893  0.00000000
   0.16666893  0.83333104  0.00000000
   0.16666893  0.33333107  0.50000000
   0.16666893  0.50000000  0.33333107
   0.16666893  0.66666896  0.50000000
   0.16666893  0.00000000  0.83333104
   0.16666893  0.50000000  0.66666896
   0.16666893  0.33333107  0.16666893
   0.16666893  0.66666896  0.16666893
   0.16666893  0.16666893  0.33333107
   0.16666893  0.83333104  0.33333107
   0.16666893  0.16666893  0.66666896
   0.16666893  0.33333107  0.83333104
   0.16666893  0.66666896  0.83333104
   0.16666893  0.83333104  0.66666896
   0.16666894  0.50000000  0.00000000
   0.16666894  0.00000000  0.50000000
   0.33333106  0.00000000  0.00000000
   0.33333107  0.16666893  0.16666893
   0.33333107  0.83333104  0.16666893
   0.33333107  0.33333107  0.33333107
   0.33333107  0.66666896  0.33333107
   0.33333107  0.16666893  0.83333104
   0.33333107  0.33333107  0.66666896
   0.33333107  0.66666896  0.66666896
   0.33333107  0.83333104  0.83333104
   0.33333107  0.33333107  0.00000000
   0.33333107  0.50000000  0.16666893
   0.33333107  0.66666896  0.00000000
   0.33333107  0.00000000  0.33333107
   0.33333107  0.16666893  0.50000000
   0.33333107  0.83333104  0.50000000
   0.33333107  0.00000000  0.66666896
   0.33333107  0.50000000  0.83333104
   0.50000000  0.00000000  0.16666894
   0.50000000  0.16666894  0.00000000
   0.50000000  0.33333107  0.16666893
   0.50000000  0.50000000  0.00000000
   0.50000000  0.66666896  0.16666893
   0.50000000  0.83333103  0.00000000
   0.50000000  0.00000000  0.50000000
   0.50000000  0.16666893  0.33333107
   0.50000000  0.33333106  0.50000000
   0.50000000  0.50000000  0.33333106
   0.50000000  0.66666897  0.50000000
   0.50000000  0.83333104  0.33333107
   0.50000000  0.00000000  0.83333103
   0.50000000  0.16666893  0.66666896
   0.50000000  0.33333107  0.83333104
   0.50000000  0.66666896  0.83333104
   0.50000000  0.83333104  0.66666896
   0.66666896  0.33333107  0.00000000
   0.66666896  0.50000000  0.16666893
   0.66666896  0.66666896  0.00000000
   0.66666896  0.00000000  0.33333107
   0.66666896  0.16666893  0.50000000
   0.66666896  0.83333104  0.50000000
   0.66666896  0.00000000  0.66666896
   0.66666896  0.50000000  0.83333104
   0.66666896  0.16666893  0.16666893
   0.66666896  0.83333104  0.16666893
   0.66666896  0.33333107  0.33333107
   0.66666896  0.66666896  0.33333107
   0.66666896  0.16666893  0.83333104
   0.66666896  0.33333107  0.66666896
   0.66666896  0.66666896  0.66666896
   0.66666896  0.83333104  0.83333104
   0.66666897  0.00000000  0.00000000
   0.66666897  0.50000000  0.50000000
   0.83333103  0.50000000  0.00000000
   0.83333103  0.00000000  0.50000000
   0.83333104  0.33333107  0.16666893
   0.83333104  0.66666896  0.16666893
   0.83333104  0.16666893  0.33333107
   0.83333104  0.83333104  0.33333107
   0.83333104  0.16666893  0.66666896
   0.83333104  0.33333107  0.83333104
   0.83333104  0.66666896  0.83333104
   0.83333104  0.83333104  0.66666896
   0.83333104  0.00000000  0.16666893
   0.83333104  0.16666893  0.00000000
   0.83333104  0.83333104  0.00000000
   0.83333104  0.33333107  0.50000000
   0.83333104  0.50000000  0.33333107
   0.83333104  0.66666896  0.50000000
   0.83333104  0.00000000  0.83333104
   0.83333104  0.50000000  0.66666896
   0.33333106  0.50000000  0.50000000
Direct configuration=     2
  -0.00029886 -0.00000001  0.00029233
   0.00001824  0.16644498  0.16668530
  -0.00005871  0.33342487 -0.00002755
   0.00088441  0.50000000  0.16755145
  -0.00005871  0.66657515 -0.00002755
   0.00001825  0.83355500  0.16668530
  -0.00005041 -0.00000001  0.33316686
   0.00072489  0.16739999  0.50005033
   0.00007540  0.33324968  0.33316248
  -0.00012367  0.50000001  0.49997449
   0.00007541  0.66675034  0.33316248
   0.00072488  0.83259999  0.50005033
   0.00018668 -0.00000001  0.66657345
   0.00000915  0.16675002  0.83329431
   0.00015001  0.33325293  0.66673841
   0.00104276  0.50000000  0.83241310
   0.00015001  0.66674709  0.66673841
   0.00000915  0.83324996  0.83329431
   0.16650091 -0.00000001  0.16661667
   0.16661166  0.16652518  0.00013340
   0.16661166  0.83347479  0.00013341
   0.15995913  0.32662743  0.50002950
   0.16026994  0.50000000  0.32693598
   0.15995913  0.67337258  0.50002949
   0.16681890 -0.00000000  0.83329870
   0.16090076  0.50000000  0.67358478
   0.16649650  0.33324966  0.16674245
   0.16649650  0.66675037  0.16674244
   0.16646507  0.16674128  0.33313104
   0.16646507  0.83325870  0.33313104
   0.16739754  0.16759991  0.66683149
   0.16657870  0.33310764  0.83328858
   0.16657870  0.66689239  0.83328858
   0.16739753  0.83240007  0.66683149
   0.16751248  0.50000001 -0.00104108
   0.16664412  0.00000000  0.49997248
   0.33333682 -0.00000001  0.00001254
   0.33338331  0.16740008  0.16739191
   0.33338331  0.83259989  0.16739190
   0.33336278  0.32662810  0.32662567
   0.33336276  0.67337192  0.32662567
   0.33327437  0.16753618  0.83260467
   0.33363069  0.32710708  0.67298561
   0.33363066  0.67289294  0.67298561
   0.33327435  0.83246382  0.83260467
   0.33327052  0.33325418 -0.00013663
   0.33330753  0.50000001  0.16654340
   0.33327051  0.66674585 -0.00013662
   0.33330538 -0.00000000  0.33331010
   0.33325958  0.16639055  0.49992674
   0.33325958  0.83360943  0.49992673
   0.33335412 -0.00000000  0.66674779
   0.33368319  0.49999999  0.83398510
   0.49990639 -0.00000000  0.16685380
   0.49993890  0.16761741 -0.00103531
   0.50007134  0.33325289  0.16681714
   0.49996725  0.49999998 -0.00113519
   0.50007134  0.66674713  0.16681715
   0.49993889  0.83238258 -0.00103529
   0.50008086  0.00000000  0.50002106
   0.50016443  0.16759988  0.33406354
   0.50631830  0.32710814  0.50029778
   0.50691670  0.50000000  0.32756755
   0.50631830  0.67289187  0.50029775
   0.50016443  0.83240010  0.33406353
   0.49998102  0.00000001  0.83327763
   0.50007074  0.16773886  0.66673788
   0.50035663  0.33355889  0.83327753
   0.50035662  0.66644112  0.83327754
   0.50007074  0.83226114  0.66673787
   0.66677208  0.33333982 -0.00003304
   0.66574714  0.50000000  0.16770972
   0.66677209  0.66666019 -0.00003303
   0.66663285  0.00000001  0.33348473
   0.66593881  0.16753614  0.49994147
   0.66593883  0.83246385  0.49994146
   0.66661178  0.00000001  0.66664813
   0.66623509  0.49999998  0.83290107
   0.66662844  0.16674998  0.16667623
   0.66662844  0.83325000  0.16667623
   0.66662285  0.33310763  0.33324448
   0.66662286  0.66689238  0.33324449
   0.66665788  0.16672551  0.83332373
   0.66661248  0.33355805  0.66702376
   0.66661251  0.66644198  0.66702375
   0.66665790  0.83327448  0.83332372
   0.66688057  0.00000000 -0.00007033
   0.66731926  0.50000000  0.50034982
   0.83236076  0.49999999 -0.00097230
   0.83334552 -0.00000001  0.50000389
   0.83330541  0.33342490  0.16660837
   0.83330541  0.66657513  0.16660837
   0.83346634  0.16652519  0.33327761
   0.83346634  0.83347479  0.33327761
   0.83229783  0.16761737  0.66660596
   0.83329991  0.33333985  0.83343791
   0.83329993  0.66666017  0.83343791
   0.83229784  0.83238262  0.66660595
   0.83362527 -0.00000001  0.16636817
   0.83348684  0.16631670  0.00015390
   0.83348685  0.83368329  0.00015390
   0.83319617  0.33325419  0.49993766
   0.83229199  0.50000000  0.33417847
   0.83319619  0.66674583  0.49993765
   0.83326260 -0.00000000  0.83354646
   0.83219759  0.50000000  0.66663415
   0.33973384  0.50000000  0.50639754
Direct configuration=     3
  -0.00036005 -0.00000001  0.00035217
   0.00002197  0.16639913  0.16668865
  -0.00007074  0.33344407 -0.00003319
   0.00106548  0.50000000  0.16773212
  -0.00007073  0.66655595 -0.00003318
   0.00002198  0.83360086  0.16668865
  -0.00006074 -0.00000002  0.33313324
   0.00087330  0.16754966  0.50006063
   0.00009084  0.33323302  0.33312796
  -0.00014899  0.50000001  0.49996926
   0.00009085  0.66676701  0.33312796
   0.00087329  0.83245032  0.50006063
   0.00022490 -0.00000001  0.66655389
   0.00001102  0.16676663  0.83328679
   0.00018072  0.33323693  0.66675263
   0.00125624  0.50000000  0.83222517
   0.00018073  0.66676309  0.66675263
   0.00001103  0.83323336  0.83328678
   0.16646652 -0.00000001  0.16660597
   0.16659993  0.16649575  0.00016071
   0.16659993  0.83350423  0.00016072
   0.15858541  0.32525498  0.50003554
   0.15895986  0.50000000  0.32562670
   0.15858542  0.67474503  0.50003553
   0.16684960 -0.00000001  0.83329208
   0.15971983  0.50000000  0.67500067
   0.16646119  0.33323299  0.16675750
   0.16646119  0.66676704  0.16675749
   0.16642333  0.16675609  0.33309009
   0.16642334  0.83324389  0.33309008
   0.16754671  0.16779051  0.66686476
   0.16656023  0.33306189  0.83327988
   0.16656022  0.66693813  0.83327989
   0.16754670  0.83220948  0.66686476
   0.16768518  0.50000001 -0.00125423
   0.16663904  0.00000000  0.49996684
   0.33333800 -0.00000001  0.00001511
   0.33339401  0.16754977  0.16753992
   0.33339400  0.83245021  0.16753992
   0.33336927  0.32525579  0.32525286
   0.33336925  0.67474424  0.32525286
   0.33326276  0.16771373  0.83245595
   0.33369204  0.32583283  0.67427883
   0.33369200  0.67416719  0.67427884
   0.33326274  0.83228627  0.83245596
   0.33325813  0.33323844 -0.00016460
   0.33330271  0.50000001  0.16651769
   0.33325811  0.66676159 -0.00016459
   0.33330012 -0.00000000  0.33330580
   0.33324495  0.16633356  0.49991174
   0.33324494  0.83366642  0.49991172
   0.33335884 -0.00000000  0.66676393
   0.33375529  0.49999999  0.83411900
   0.49988723 -0.00000001  0.16689164
   0.49992639  0.16781159 -0.00124727
   0.50008595  0.33323688  0.16684748
   0.49996054  0.49999998 -0.00136760
   0.50008594  0.66676314  0.16684750
   0.49992638  0.83218840 -0.00124725
   0.50009741  0.00000000  0.50002537
   0.50019810  0.16779048  0.33421350
   0.50761186  0.32583411  0.50035874
   0.50833277  0.50000000  0.32638757
   0.50761186  0.67416590  0.50035871
   0.50019809  0.83220950  0.33421349
   0.49997713  0.00000001  0.83326669
   0.50008522  0.16795791  0.66675199
   0.50042964  0.33360553  0.83326657
   0.50042964  0.66639447  0.83326659
   0.50008522  0.83204210  0.66675198
   0.66679319  0.33334162 -0.00003980
   0.66555841  0.50000000  0.16792281
   0.66679320  0.66665840 -0.00003979
   0.66662546  0.00000001  0.33351619
   0.66578933  0.16771368  0.49992949
   0.66578934  0.83228631  0.49992948
   0.66660007  0.00000001  0.66664387
   0.66614627  0.49999998  0.83281304
   0.66662014  0.16676658  0.16667772
   0.66662014  0.83323341  0.16667773
   0.66661341  0.33306189  0.33322676
   0.66661342  0.66693813  0.33322676
   0.66665562  0.16673710  0.83332223
   0.66660092  0.33360452  0.66709639
   0.66660095  0.66639551  0.66709638
   0.66665564  0.83326290  0.83332222
   0.66692389  0.00000000 -0.00008473
   0.66745239  0.49999999  0.50042143
   0.83216211  0.49999999 -0.00117136
   0.83334849 -0.00000001  0.50000469
   0.83330016  0.33344411  0.16659596
   0.83330016  0.66655592  0.16659597
   0.83349404  0.16649577  0.33326667
   0.83349404  0.83350422  0.33326667
   0.83208630  0.16781154  0.66659307
   0.83329354  0.33334165  0.83345979
   0.83329356  0.66665837  0.83345980
   0.83208631  0.83218845  0.66659305
   0.83368551 -0.00000001  0.16630659
   0.83351874  0.16624459  0.00018541
   0.83351875  0.83375540  0.00018541
   0.83316856  0.33323845  0.49992489
   0.83207926  0.50000000  0.33435196
   0.83316858  0.66676157  0.49992489
   0.83324858 -0.00000000  0.83359056
   0.83196554  0.50000000  0.66662702
   0.34104469  0.50000000  0.50770733
Direct configuration=     4
  -0.00040003 -0.00000004  0.00044264
  -0.00010888  0.16628769  0.16655784
  -0.00071229  0.33358772 -0.00003662
   0.00058124  0.49999999  0.16724796
  -0.00071235  0.66641234 -0.00003660
  -0.00010896  0.83371230  0.16655782
  -0.00070834 -0.00000006  0.33312042
   0.00013824  0.16673755  0.50018597
  -0.00035603  0.33321068  0.33292704
   0.00054118  0.49999999  0.49991030
  -0.00035611  0.66678938  0.33292704
   0.00013819  0.83326246  0.50018598
  -0.00014846 -0.00000006  0.66657582
  -0.00009042  0.16667657  0.83321836
  -0.00006258  0.33308039  0.66690867
   0.00058453  0.50000002  0.83292333
  -0.00006259  0.66691967  0.66690866
  -0.00009043  0.83332340  0.83321835
   0.16645339 -0.00000003  0.16595833
   0.16656293  0.16579376  0.00019254
   0.16656293  0.83420624  0.00019257
   0.15868669  0.32563761  0.49993887
   0.15970137  0.49999997  0.32636861
   0.15868673  0.67436244  0.49993895
   0.16695288 -0.00000002  0.83377573
   0.15919053  0.50000001  0.67541891
   0.16626000  0.33321066  0.16631067
   0.16626002  0.66678939  0.16631065
   0.16628198  0.16635233  0.33294901
   0.16628199  0.83364769  0.33294902
   0.16735495  0.16731530  0.66710444
   0.16633875  0.33287714  0.83373860
   0.16633878  0.66712289  0.83373858
   0.16735495  0.83268469  0.66710439
   0.16799315  0.50000000 -0.00178162
   0.16640196 -0.00000004  0.50007277
   0.33346470 -0.00000003 -0.00014516
   0.33351933  0.16673765  0.16680497
   0.33351941  0.83326231  0.16680491
   0.33327233  0.32563749  0.32535376
   0.33327244  0.67436252  0.32535380
   0.33325707  0.16667329  0.83352981
   0.33313971  0.32407974  0.67516190
   0.33313969  0.67592028  0.67516184
   0.33325704  0.83332669  0.83352976
   0.33324651  0.33305688 -0.00023518
   0.33324368  0.50000004  0.16720773
   0.33324655  0.66694316 -0.00023514
   0.33340613 -0.00000003  0.33306903
   0.33326546  0.16688504  0.49993217
   0.33326548  0.83311489  0.49993219
   0.33337782 -0.00000004  0.66693453
   0.33402512  0.50000002  0.83413955
   0.49990928 -0.00000004  0.16651821
   0.49997120  0.16784655 -0.00193252
   0.50024219  0.33308034  0.16660413
   0.50003379  0.50000005 -0.00205517
   0.50024217  0.66691972  0.16660415
   0.49997118  0.83215339 -0.00193249
   0.50026812 -0.00000004  0.50004439
   0.50043788  0.16731540  0.33402219
   0.50849672  0.32408074  0.49980719
   0.50875299  0.50000008  0.32585682
   0.50849665  0.67591925  0.49980715
   0.50043786  0.83268452  0.33402214
   0.49999373 -0.00000001  0.83370244
   0.50027176  0.16801584  0.66693824
   0.50086572  0.33381631  0.83365444
   0.50086570  0.66618369  0.83365446
   0.50027174  0.83198412  0.66693817
   0.66740977  0.33332627 -0.00012444
   0.66625641  0.50000007  0.16725116
   0.66740977  0.66667376 -0.00012439
   0.66710891 -0.00000002  0.33361983
   0.66686289  0.16667334  0.49992375
   0.66686292  0.83332662  0.49992369
   0.66703565 -0.00000002  0.66666023
   0.66601132  0.50000001  0.83267808
   0.66655151  0.16667651  0.16657623
   0.66655152  0.83332340  0.16657624
   0.66707188  0.33287720  0.33300572
   0.66707185  0.66712286  0.33300572
   0.66674911  0.16663209  0.83341597
   0.66698838  0.33381563  0.66753225
   0.66698844  0.66618441  0.66753219
   0.66674916  0.83336789  0.83341598
   0.66671633 -0.00000002 -0.00013197
   0.66747305  0.50000005  0.50069160
   0.83126827  0.50000004 -0.00206502
   0.83318809 -0.00000006  0.50013128
   0.83329671  0.33358777  0.16595438
   0.83329672  0.66641231  0.16595436
   0.83352590  0.16579380  0.33322997
   0.83352592  0.83420615  0.33322997
   0.83140103  0.16784642  0.66663771
   0.83320892  0.33332630  0.83407657
   0.83320891  0.66667374  0.83407659
   0.83140104  0.83215356  0.66663763
   0.83377608 -0.00000006  0.16626668
   0.83362233  0.16623572  0.00028893
   0.83362235  0.83376423  0.00028898
   0.83309809  0.33305696  0.49991316
   0.83155181  0.50000003  0.33466023
   0.83309809  0.66694310  0.49991316
   0.83320138 -0.00000003  0.83338323
   0.83127793  0.50000002  0.66670012
   0.34138448  0.50000008  0.50804676
Direct configuration=     5
  -0.00042865 -0.00000007  0.00050740
  -0.00020255  0.16620791  0.16646420
  -0.00117153  0.33369054 -0.00003908
   0.00023462  0.49999999  0.16690139
  -0.00117162  0.66630955 -0.00003904
  -0.00020268  0.83379207  0.16646417
  -0.00117190 -0.00000010  0.33311125
  -0.00038792  0.16615622  0.50027569
  -0.00067592  0.33319469  0.33278322
   0.00103521  0.49999998  0.49986809
  -0.00067605  0.66680540  0.33278322
  -0.00038801  0.83384380  0.50027570
  -0.00041572 -0.00000009  0.66659153
  -0.00016303  0.16661210  0.83316938
  -0.00023675  0.33296834  0.66702037
   0.00010371  0.50000003  0.83342308
  -0.00023676  0.66703175  0.66702035
  -0.00016305  0.83338786  0.83316937
   0.16644400 -0.00000004  0.16549475
   0.16653644  0.16529126  0.00021533
   0.16653644  0.83470875  0.00021537
   0.15875919  0.32591150  0.49986968
   0.16023216  0.49999995  0.32689967
   0.15875925  0.67408857  0.49986982
   0.16702681 -0.00000004  0.83412193
   0.15881165  0.50000002  0.67571828
   0.16611598  0.33319468  0.16599083
   0.16611601  0.66680540  0.16599079
   0.16618079  0.16606331  0.33284803
   0.16618082  0.83393674  0.33284804
   0.16721768  0.16697514  0.66727600
   0.16618022  0.33274489  0.83406695
   0.16618027  0.66725515  0.83406692
   0.16721769  0.83302486  0.66727592
   0.16821361  0.50000000 -0.00215913
   0.16623226 -0.00000006  0.50014860
   0.33355540 -0.00000005 -0.00025988
   0.33360904  0.16615632  0.16627887
   0.33360918  0.83384363  0.16627878
   0.33320294  0.32591071  0.32542598
   0.33320315  0.67408928  0.32542606
   0.33325300  0.16592853  0.83429849
   0.33274435  0.32282484  0.67579402
   0.33274434  0.67717517  0.67579391
   0.33325295  0.83407144  0.83429841
   0.33323819  0.33292693 -0.00028570
   0.33320143  0.50000006  0.16770168
   0.33323828  0.66707312 -0.00028564
   0.33348201 -0.00000006  0.33289954
   0.33328015  0.16727980  0.49994679
   0.33328018  0.83272010  0.49994684
   0.33339141 -0.00000007  0.66705666
   0.33421828  0.50000005  0.83415426
   0.49992507 -0.00000007  0.16625090
   0.50000328  0.16787158 -0.00242302
   0.50035402  0.33296829  0.16642994
   0.50008622  0.50000010 -0.00254734
   0.50035400  0.66703181  0.16642997
   0.50000325  0.83212833 -0.00242300
   0.50039031 -0.00000006  0.50005800
   0.50060953  0.16697534  0.33388525
   0.50913012  0.32282565  0.49941238
   0.50905378  0.50000014  0.32547690
   0.50913000  0.67717432  0.49941234
   0.50060949  0.83302455  0.33388517
   0.50000561 -0.00000003  0.83401435
   0.50040528  0.16805731  0.66707157
   0.50117788  0.33396719  0.83393208
   0.50117784  0.66603281  0.83393211
   0.50040525  0.83194262  0.66707145
   0.66785112  0.33331529 -0.00018502
   0.66675605  0.50000012  0.16677038
   0.66785111  0.66668476 -0.00018494
   0.66745498 -0.00000003  0.33369402
   0.66763136  0.16592864  0.49991963
   0.66763140  0.83407129  0.49991954
   0.66734744 -0.00000004  0.66667195
   0.66591473  0.50000004  0.83258148
   0.66650239  0.16661203  0.16650358
   0.66650240  0.83338782  0.16650360
   0.66740006  0.33274499  0.33284749
   0.66740000  0.66725510  0.33284749
   0.66681603  0.16655693  0.83348307
   0.66726573  0.33396675  0.66784424
   0.66726580  0.66603331  0.66784415
   0.66681610  0.83344304  0.83348310
   0.66656775 -0.00000003 -0.00016578
   0.66748784  0.50000008  0.50088498
   0.83062844  0.50000008 -0.00270471
   0.83307328 -0.00000010  0.50022190
   0.83329425  0.33369061  0.16549513
   0.83329426  0.66630951  0.16549509
   0.83354870  0.16529132  0.33320370
   0.83354874  0.83470860  0.33320371
   0.83091051  0.16787139  0.66666967
   0.83314834  0.33331531  0.83451808
   0.83314832  0.66668475  0.83451810
   0.83091051  0.83212858  0.66666955
   0.83384091 -0.00000009  0.16623812
   0.83369647  0.16622937  0.00036303
   0.83369652  0.83377054  0.00036311
   0.83304765  0.33292705  0.49990476
   0.83117426  0.50000006  0.33488090
   0.83304762  0.66707305  0.49990477
   0.83316759 -0.00000005  0.83323482
   0.83078573  0.50000004  0.66675245
   0.34162771  0.50000013  0.50828973
Direct configuration=     6
  -0.00059357 -0.00000006  0.00044679
  -0.00029409  0.16623205  0.16637275
  -0.00140131  0.33362524  0.00005864
   0.00034316  0.50000005  0.16701001
  -0.00140133  0.66637485  0.00005863
  -0.00029412  0.83376787  0.16637274
  -0.00122079 -0.00000005  0.33292699
  -0.00026853  0.16619905  0.50036347
  -0.00077079  0.33319130  0.33272026
   0.00115278  0.50000004  0.49996930
  -0.00077082  0.66680875  0.33272027
  -0.00026856  0.83380091  0.50036350
  -0.00074325 -0.00000008  0.66687698
  -0.00037037  0.16662898  0.83315374
  -0.00030429  0.33282898  0.66707209
  -0.00005603  0.50000008  0.83361820
  -0.00030430  0.66717110  0.66707213
  -0.00037035  0.83337093  0.83315374
   0.16626009 -0.00000005  0.16544598
   0.16624235  0.16519728  0.00032906
   0.16624234  0.83480266  0.00032911
   0.15869832  0.32588341  0.49997020
   0.16033334  0.50000004  0.32700034
   0.15869832  0.67411664  0.49997026
   0.16679480 -0.00000006  0.83417494
   0.15888582  0.50000006  0.67567635
   0.16605343  0.33319133  0.16589614
   0.16605346  0.66680874  0.16589615
   0.16616104  0.16615575  0.33282794
   0.16616107  0.83384421  0.33282795
   0.16662064  0.16647749  0.66728935
   0.16593647  0.33258281  0.83430794
   0.16593649  0.66741725  0.83430795
   0.16662063  0.83352248  0.66728934
   0.16832784  0.50000007 -0.00229750
   0.16612582 -0.00000005  0.50015772
   0.33371896 -0.00000008  0.00002772
   0.33369675  0.16619892  0.16639824
   0.33369682  0.83380100  0.16639820
   0.33330344  0.32588275  0.32536466
   0.33330349  0.67411727  0.32536468
   0.33325643  0.16544343  0.83477135
   0.33253747  0.32270474  0.67543876
   0.33253746  0.67729530  0.67543875
   0.33325640  0.83455651  0.83477133
   0.33322886  0.33294002 -0.00022039
   0.33330252  0.50000007  0.16781959
   0.33322889  0.66706005 -0.00022035
   0.33349102 -0.00000005  0.33279262
   0.33333987  0.16745061  0.50000640
   0.33333987  0.83254933  0.50000641
   0.33351739 -0.00000007  0.66691407
   0.33419659  0.50000008  0.83389162
   0.50021032 -0.00000007  0.16592348
   0.50030426  0.16790072 -0.00259787
   0.50040556  0.33282883  0.16636245
   0.49997219  0.50000010 -0.00256638
   0.50040556  0.66717125  0.16636246
   0.50030425  0.83209920 -0.00259792
   0.50024743 -0.00000006  0.50018416
   0.50062276  0.16647769  0.33328782
   0.50877370  0.32270500  0.49920507
   0.50901141  0.50000009  0.32555109
   0.50877370  0.67729503  0.49920504
   0.50062275  0.83352223  0.33328777
   0.50027265 -0.00000006  0.83413687
   0.50061225  0.16786020  0.66727889
   0.50125216  0.33387226  0.83394510
   0.50125217  0.66612780  0.83394507
   0.50061225  0.83213973  0.66727882
   0.66795547  0.33299787 -0.00013441
   0.66695200  0.50000012  0.16661025
   0.66795545  0.66700220 -0.00013439
   0.66750830 -0.00000004  0.33346172
   0.66810498  0.16544314  0.49992310
   0.66810499  0.83455677  0.49992307
   0.66747016 -0.00000006  0.66693927
   0.66557549  0.50000007  0.83224194
   0.66648703  0.16662900  0.16629641
   0.66648703  0.83337089  0.16629641
   0.66764189  0.33258352  0.33260425
   0.66764187  0.66741655  0.33260428
   0.66692574  0.16646178  0.83359249
   0.66727888  0.33387216  0.66791895
   0.66727892  0.66612792  0.66791890
   0.66692576  0.83353814  0.83359250
   0.66651672 -0.00000005 -0.00023542
   0.66722517  0.50000008  0.50086360
   0.83036967  0.50000010 -0.00296365
   0.83336094 -0.00000006  0.50038565
   0.83339197  0.33362528  0.16526551
   0.83339198  0.66637481  0.16526549
   0.83366244  0.16519729  0.33290918
   0.83366246  0.83480262  0.33290922
   0.83073564  0.16790064  0.66697089
   0.83319900  0.33299786  0.83462218
   0.83319898  0.66700220  0.83462218
   0.83073564  0.83209930  0.66697079
   0.83378017 -0.00000006  0.16607325
   0.83372192  0.16612913  0.00038861
   0.83372193  0.83387076  0.00038864
   0.83311308  0.33294004  0.49989551
   0.83103587  0.50000008  0.33499470
   0.83311306  0.66706004  0.49989553
   0.83309786 -0.00000006  0.83318348
   0.83076688  0.50000007  0.66663874
   0.34308136  0.49999998  0.50974714
Direct configuration=     7
  -0.00069335 -0.00000006  0.00041012
  -0.00034947  0.16624665  0.16631742
  -0.00154033  0.33358573  0.00011777
   0.00040883  0.50000008  0.16707573
  -0.00154030  0.66641437  0.00011773
  -0.00034945  0.83375323  0.16631743
  -0.00125037 -0.00000003  0.33281552
  -0.00019629  0.16622496  0.50041658
  -0.00082819  0.33318926  0.33268217
   0.00122391  0.50000007  0.50003054
  -0.00082817  0.66681078  0.33268218
  -0.00019630  0.83377496  0.50041663
  -0.00094142 -0.00000007  0.66704968
  -0.00049581  0.16663920  0.83314427
  -0.00034516  0.33274466  0.66710338
  -0.00015268  0.50000012  0.83373626
  -0.00034516  0.66725541  0.66710345
  -0.00049577  0.83336069  0.83314429
   0.16614881 -0.00000006  0.16541648
   0.16606441  0.16514042  0.00039788
   0.16606440  0.83485948  0.00039792
   0.15866149  0.32586642  0.50003102
   0.16039456  0.50000009  0.32706125
   0.15866145  0.67413363  0.50003102
   0.16665443 -0.00000007  0.83420702
   0.15893070  0.50000008  0.67565098
   0.16601559  0.33318930  0.16583886
   0.16601562  0.66681077  0.16583889
   0.16614910  0.16621168  0.33281578
   0.16614912  0.83378822  0.33281579
   0.16625942  0.16617640  0.66729742
   0.16578899  0.33248475  0.83445375
   0.16578900  0.66751533  0.83445378
   0.16625938  0.83382355  0.66729745
   0.16839695  0.50000011 -0.00238122
   0.16606142 -0.00000004  0.50016324
   0.33381792 -0.00000009  0.00020172
   0.33374982  0.16622470  0.16647047
   0.33374984  0.83377521  0.16647046
   0.33336425  0.32586584  0.32532757
   0.33336420  0.67413421  0.32532755
   0.33325851  0.16514992  0.83505744
   0.33241231  0.32263207  0.67522382
   0.33241229  0.67736799  0.67522387
   0.33325848  0.83484999  0.83505746
   0.33322322  0.33294795 -0.00018087
   0.33336368  0.50000007  0.16789093
   0.33322321  0.66705213 -0.00018085
   0.33349647 -0.00000004  0.33272794
   0.33337600  0.16755395  0.50004247
   0.33337598  0.83244600  0.50004246
   0.33359361 -0.00000006  0.66682780
   0.33418347  0.50000009  0.83373272
   0.50038290 -0.00000006  0.16572538
   0.50048637  0.16791835 -0.00270365
   0.50043674  0.33274446  0.16632162
   0.49990320  0.50000011 -0.00257790
   0.50043676  0.66725562  0.16632162
   0.50048637  0.83208157 -0.00270375
   0.50016098 -0.00000006  0.50026049
   0.50063076  0.16617660  0.33292635
   0.50855806  0.32263201  0.49907964
   0.50898577  0.50000006  0.32559597
   0.50855813  0.67736807  0.49907962
   0.50063077  0.83382335  0.33292632
   0.50043422 -0.00000009  0.83421100
   0.50073747  0.16774095  0.66740432
   0.50129711  0.33381482  0.83395298
   0.50129714  0.66618527  0.83395292
   0.50073749  0.83225898  0.66740429
   0.66801861  0.33280582 -0.00010379
   0.66707057  0.50000011  0.16651337
   0.66801857  0.66719426 -0.00010380
   0.66754057 -0.00000004  0.33332117
   0.66839153  0.16514940  0.49992520
   0.66839152  0.83485050  0.49992520
   0.66754440 -0.00000007  0.66710101
   0.66537024  0.50000009  0.83203651
   0.66647774  0.16663927  0.16617106
   0.66647773  0.83336066  0.16617106
   0.66778820  0.33248584  0.33245708
   0.66778820  0.66751424  0.33245712
   0.66699211  0.16640421  0.83365869
   0.66728684  0.33381493  0.66796416
   0.66728685  0.66618516  0.66796412
   0.66699211  0.83359568  0.83365869
   0.66648584 -0.00000006 -0.00027755
   0.66706624  0.50000008  0.50085066
   0.83021310  0.50000011 -0.00312032
   0.83353499 -0.00000004  0.50048471
   0.83345110  0.33358575  0.16512658
   0.83345110  0.66641432  0.16512657
   0.83373126  0.16514039  0.33273098
   0.83373126  0.83485950  0.33273104
   0.83062984  0.16791835  0.66715314
   0.83322965  0.33280579  0.83468516
   0.83322963  0.66719427  0.83468515
   0.83062983  0.83208158  0.66715306
   0.83374342 -0.00000004  0.16597350
   0.83373731  0.16606849  0.00040409
   0.83373731  0.83393139  0.00040409
   0.83315267  0.33294789  0.49988991
   0.83095214  0.50000010  0.33506356
   0.83315266  0.66705217  0.49988994
   0.83305568 -0.00000007  0.83315242
   0.83075547  0.50000009  0.66656994
   0.34396087  0.49999990  0.51062892
Direct configuration=     8
  -0.00076663 -0.00000002  0.00035217
  -0.00036915  0.16623400  0.16629749
  -0.00154237  0.33359936  0.00015454
   0.00062855  0.50000002  0.16729527
  -0.00154234  0.66640068  0.00015451
  -0.00036910  0.83376596  0.16629755
  -0.00107181 -0.00000002  0.33272380
   0.00007345  0.16646471  0.50037769
  -0.00074446  0.33320793  0.33272001
   0.00120887  0.49999999  0.50009220
  -0.00074446  0.66679210  0.33272001
   0.00007345  0.83353529  0.50037773
  -0.00113548 -0.00000003  0.66721127
  -0.00063112  0.16669684  0.83326586
  -0.00031764  0.33276292  0.66713569
  -0.00002348  0.50000002  0.83361057
  -0.00031769  0.66723711  0.66713577
  -0.00063110  0.83330314  0.83326587
   0.16605712 -0.00000004  0.16559494
   0.16591463  0.16521597  0.00045864
   0.16591460  0.83478402  0.00045871
   0.15876431  0.32599201  0.50010217
   0.16064580  0.50000000  0.32731236
   0.15876427  0.67400804  0.50010215
   0.16652419 -0.00000004  0.83427783
   0.15884559  0.50000000  0.67567164
   0.16605346  0.33320800  0.16592222
   0.16605345  0.66679206  0.16592226
   0.16614289  0.16642624  0.33280952