 107 107   0   0
  0.1031640E+02  0.1033485E-08  0.1033485E-08  0.1033485E-08  0.5000000E-15
  1.000000000000000E-004
  CAR 
 Static                                  
      9.72175399     -3.98859294  301      6.70146426      1.00000000
     -3.989  0.0000E+00  0.0000E+00
     -3.943  0.0000E+00  0.0000E+00
     -3.897  0.0000E+00  0.0000E+00
     -3.851  0.0000E+00  0.0000E+00
     -3.806  0.0000E+00  0.0000E+00
     -3.760  0.0000E+00  0.0000E+00
     -3.714  0.0000E+00  0.0000E+00
     -3.669  0.0000E+00  0.0000E+00
     -3.623 -0.1254E-27 -0.5729E-29
     -3.577 -0.4718E-26 -0.2213E-27
     -3.532 -0.1636E-24 -0.7697E-26
     -3.486 -0.5103E-23 -0.2409E-24
     -3.440 -0.1432E-21 -0.6785E-23
     -3.394 -0.3615E-20 -0.1720E-21
     -3.349 -0.8209E-19 -0.3924E-20
     -3.303 -0.1676E-17 -0.8054E-19
     -3.257 -0.3079E-16 -0.1487E-17
     -3.212 -0.5082E-15 -0.2471E-16
     -3.166 -0.7239E-14 -0.3555E-15
     -3.120 -0.9756E-13 -0.4814E-14
     -3.075 -0.1165E-11 -0.5806E-13
     -3.029 -0.1250E-10 -0.6293E-12
     -2.983 -0.1204E-09 -0.6131E-11
     -2.937 -0.1040E-08 -0.5367E-10
     -2.892 -0.8059E-08 -0.4220E-09
     -2.846 -0.5595E-07 -0.2979E-08
     -2.800 -0.3478E-06 -0.1888E-07
     -2.755 -0.1934E-05 -0.1073E-06
     -2.709 -0.9613E-05 -0.5466E-06
     -2.663 -0.4263E-04 -0.2495E-05
     -2.618 -0.1684E-03 -0.1019E-04
     -2.572 -0.5911E-03 -0.3720E-04
     -2.526 -0.1838E-02 -0.1212E-03
     -2.480 -0.5044E-02 -0.3517E-03
     -2.435 -0.1213E-01 -0.9063E-03
     -2.389 -0.2536E-01 -0.2065E-02
     -2.343 -0.4534E-01 -0.4138E-02
     -2.298 -0.6726E-01 -0.7211E-02
     -2.252 -0.7683E-01 -0.1072E-01
     -2.206 -0.4995E-01 -0.1301E-01
     -2.161  0.4086E-01 -0.1114E-01
     -2.115  0.2154E+00 -0.1295E-02
     -2.069  0.4796E+00  0.2062E-01
     -2.023  0.8314E+00  0.5862E-01
     -1.978  0.1272E+01  0.1167E+00
     -1.932  0.1800E+01  0.1990E+00
     -1.886  0.2393E+01  0.3084E+00
     -1.841  0.2982E+01  0.4447E+00
     -1.795  0.3470E+01  0.6033E+00
     -1.749  0.3788E+01  0.7764E+00
     -1.704  0.3933E+01  0.9561E+00
     -1.658  0.3967E+01  0.1137E+01
     -1.612  0.3981E+01  0.1319E+01
     -1.566  0.4056E+01  0.1505E+01
     -1.521  0.4249E+01  0.1699E+01
     -1.475  0.4590E+01  0.1909E+01
     -1.429  0.5077E+01  0.2141E+01
     -1.384  0.5674E+01  0.2400E+01
     -1.338  0.6312E+01  0.2688E+01
     -1.292  0.6880E+01  0.3003E+01
     -1.247  0.7228E+01  0.3333E+01
     -1.201  0.7212E+01  0.3663E+01
     -1.155  0.6786E+01  0.3973E+01
     -1.109  0.6084E+01  0.4251E+01
     -1.064  0.5391E+01  0.4497E+01
     -1.018  0.5035E+01  0.4727E+01
     -0.972  0.5236E+01  0.4967E+01
     -0.927  0.6027E+01  0.5242E+01
     -0.881  0.7261E+01  0.5574E+01
     -0.835  0.8684E+01  0.5971E+01
     -0.790  0.1000E+02  0.6428E+01
     -0.744  0.1092E+02  0.6927E+01
     -0.698  0.1120E+02  0.7439E+01
     -0.652  0.1072E+02  0.7929E+01
     -0.607  0.9579E+01  0.8367E+01
     -0.561  0.8158E+01  0.8739E+01
     -0.515  0.6963E+01  0.9058E+01
     -0.470  0.6445E+01  0.9352E+01
     -0.424  0.6809E+01  0.9663E+01
     -0.378  0.7949E+01  0.1003E+02
     -0.333  0.9511E+01  0.1046E+02
     -0.287  0.1104E+02  0.1097E+02
     -0.241  0.1215E+02  0.1152E+02
     -0.195  0.1263E+02  0.1210E+02
     -0.150  0.1249E+02  0.1267E+02
     -0.104  0.1197E+02  0.1322E+02
     -0.058  0.1142E+02  0.1374E+02
     -0.013  0.1117E+02  0.1425E+02
      0.033  0.1137E+02  0.1477E+02
      0.079  0.1193E+02  0.1531E+02
      0.125  0.1266E+02  0.1589E+02
      0.170  0.1332E+02  0.1650E+02
      0.216  0.1379E+02  0.1713E+02
      0.262  0.1401E+02  0.1777E+02
      0.307  0.1401E+02  0.1841E+02
      0.353  0.1377E+02  0.1904E+02
      0.399  0.1333E+02  0.1965E+02
      0.444  0.1278E+02  0.2023E+02
      0.490  0.1229E+02  0.2080E+02
      0.536  0.1217E+02  0.2135E+02
      0.582  0.1274E+02  0.2193E+02
      0.627  0.1416E+02  0.2258E+02
      0.673  0.1628E+02  0.2333E+02
      0.719  0.1858E+02  0.2417E+02
      0.764  0.2037E+02  0.2511E+02
      0.810  0.2118E+02  0.2607E+02
      0.856  0.2101E+02  0.2703E+02
      0.901  0.2030E+02  0.2796E+02
      0.947  0.1956E+02  0.2885E+02
      0.993  0.1901E+02  0.2972E+02
      1.039  0.1847E+02  0.3057E+02
      1.084  0.1771E+02  0.3138E+02
      1.130  0.1683E+02  0.3215E+02
      1.176  0.1647E+02  0.3290E+02
      1.221  0.1740E+02  0.3369E+02
      1.267  0.2005E+02  0.3461E+02
      1.313  0.2407E+02  0.3571E+02
      1.358  0.2840E+02  0.3701E+02
      1.404  0.3174E+02  0.3846E+02
      1.450  0.3309E+02  0.3997E+02
      1.496  0.3223E+02  0.4144E+02
      1.541  0.2989E+02  0.4281E+02
      1.587  0.2752E+02  0.4407E+02
      1.633  0.2682E+02  0.4529E+02
      1.678  0.2919E+02  0.4663E+02
      1.724  0.3523E+02  0.4824E+02
      1.770  0.4458E+02  0.5027E+02
      1.815  0.5613E+02  0.5284E+02
      1.861  0.6845E+02  0.5597E+02
      1.907  0.8022E+02  0.5963E+02
      1.953  0.9044E+02  0.6377E+02
      1.998  0.9834E+02  0.6826E+02
      2.044  0.1033E+03  0.7298E+02
      2.090  0.1052E+03  0.7779E+02
      2.135  0.1045E+03  0.8257E+02
      2.181  0.1025E+03  0.8725E+02
      2.227  0.1009E+03  0.9186E+02
      2.272  0.1010E+03  0.9648E+02
      2.318  0.1030E+03  0.1012E+03
      2.364  0.1063E+03  0.1060E+03
      2.410  0.1098E+03  0.1111E+03
      2.455  0.1127E+03  0.1162E+03
      2.501  0.1153E+03  0.1215E+03
      2.547  0.1186E+03  0.1269E+03
      2.592  0.1236E+03  0.1325E+03
      2.638  0.1300E+03  0.1385E+03
      2.684  0.1367E+03  0.1447E+03
      2.729  0.1425E+03  0.1512E+03
      2.775  0.1469E+03  0.1580E+03
      2.821  0.1506E+03  0.1648E+03
      2.867  0.1544E+03  0.1719E+03
      2.912  0.1587E+03  0.1791E+03
      2.958  0.1629E+03  0.1866E+03
      3.004  0.1661E+03  0.1942E+03
      3.049  0.1673E+03  0.2018E+03
      3.095  0.1663E+03  0.2094E+03
      3.141  0.1637E+03  0.2169E+03
      3.186  0.1601E+03  0.2242E+03
      3.232  0.1562E+03  0.2314E+03
      3.278  0.1527E+03  0.2383E+03
      3.324  0.1502E+03  0.2452E+03
      3.369  0.1491E+03  0.2520E+03
      3.415  0.1494E+03  0.2588E+03
      3.461  0.1504E+03  0.2657E+03
      3.506  0.1508E+03  0.2726E+03
      3.552  0.1498E+03  0.2795E+03
      3.598  0.1471E+03  0.2862E+03
      3.644  0.1431E+03  0.2927E+03
      3.689  0.1391E+03  0.2991E+03
      3.735  0.1361E+03  0.3053E+03
      3.781  0.1347E+03  0.3115E+03
      3.826  0.1345E+03  0.3176E+03
      3.872  0.1342E+03  0.3237E+03
      3.918  0.1326E+03  0.3298E+03
      3.963  0.1297E+03  0.3357E+03
      4.009  0.1266E+03  0.3415E+03
      4.055  0.1255E+03  0.3472E+03
      4.101  0.1278E+03  0.3531E+03
      4.146  0.1335E+03  0.3592E+03
      4.192  0.1415E+03  0.3656E+03
      4.238  0.1503E+03  0.3725E+03
      4.283  0.1591E+03  0.3798E+03
      4.329  0.1678E+03  0.3875E+03
      4.375  0.1758E+03  0.3955E+03
      4.420  0.1820E+03  0.4038E+03
      4.466  0.1848E+03  0.4123E+03
      4.512  0.1836E+03  0.4206E+03
      4.558  0.1793E+03  0.4288E+03
      4.603  0.1743E+03  0.4368E+03
      4.649  0.1718E+03  0.4447E+03
      4.695  0.1740E+03  0.4526E+03
      4.740  0.1817E+03  0.4609E+03
      4.786  0.1936E+03  0.4698E+03
      4.832  0.2068E+03  0.4792E+03
      4.877  0.2183E+03  0.4892E+03
      4.923  0.2258E+03  0.4995E+03
      4.969  0.2287E+03  0.5100E+03
      5.015  0.2280E+03  0.5204E+03
      5.060  0.2258E+03  0.5307E+03
      5.106  0.2243E+03  0.5410E+03
      5.152  0.2251E+03  0.5512E+03
      5.197  0.2292E+03  0.5617E+03
      5.243  0.2364E+03  0.5725E+03
      5.289  0.2457E+03  0.5837E+03
      5.334  0.2544E+03  0.5954E+03
      5.380  0.2591E+03  0.6072E+03
      5.426  0.2570E+03  0.6190E+03
      5.472  0.2467E+03  0.6302E+03
      5.517  0.2300E+03  0.6407E+03
      5.563  0.2107E+03  0.6504E+03
      5.609  0.1929E+03  0.6592E+03
      5.654  0.1790E+03  0.6674E+03
      5.700  0.1692E+03  0.6751E+03
      5.746  0.1619E+03  0.6825E+03
      5.791  0.1553E+03  0.6896E+03
      5.837  0.1488E+03  0.6964E+03
      5.883  0.1437E+03  0.7030E+03
      5.929  0.1415E+03  0.7094E+03
      5.974  0.1436E+03  0.7160E+03
      6.020  0.1501E+03  0.7229E+03
      6.066  0.1594E+03  0.7301E+03
      6.111  0.1694E+03  0.7379E+03
      6.157  0.1783E+03  0.7460E+03
      6.203  0.1854E+03  0.7545E+03
      6.248  0.1911E+03  0.7632E+03
      6.294  0.1966E+03  0.7722E+03
      6.340  0.2021E+03  0.7815E+03
      6.386  0.2070E+03  0.7909E+03
      6.431  0.2099E+03  0.8005E+03
      6.477  0.2104E+03  0.8101E+03
      6.523  0.2090E+03  0.8197E+03
      6.568  0.2070E+03  0.8291E+03
      6.614  0.2051E+03  0.8385E+03
      6.660  0.2024E+03  0.8478E+03
      6.705  0.1973E+03  0.8568E+03
      6.751  0.1891E+03  0.8654E+03
      6.797  0.1791E+03  0.8736E+03
      6.843  0.1705E+03  0.8814E+03
      6.888  0.1661E+03  0.8890E+03
      6.934  0.1669E+03  0.8966E+03
      6.980  0.1714E+03  0.9044E+03
      7.025  0.1770E+03  0.9125E+03
      7.071  0.1813E+03  0.9208E+03
      7.117  0.1840E+03  0.9292E+03
      7.162  0.1858E+03  0.9377E+03
      7.208  0.1884E+03  0.9463E+03
      7.254  0.1928E+03  0.9551E+03
      7.300  0.1989E+03  0.9642E+03
      7.345  0.2059E+03  0.9736E+03
      7.391  0.2113E+03  0.9833E+03
      7.437  0.2116E+03  0.9930E+03
      7.482  0.2031E+03  0.1002E+04
      7.528  0.1832E+03  0.1011E+04
      7.574  0.1524E+03  0.1018E+04
      7.620  0.1144E+03  0.1023E+04
      7.665  0.7540E+02  0.1026E+04
      7.711  0.4149E+02  0.1028E+04
      7.757  0.1672E+02  0.1029E+04
      7.802  0.1918E+01  0.1029E+04
      7.848 -0.4676E+01  0.1029E+04
      7.894 -0.6033E+01  0.1029E+04
      7.939 -0.4934E+01  0.1028E+04
      7.985 -0.3235E+01  0.1028E+04
      8.031 -0.1817E+01  0.1028E+04
      8.077 -0.9001E+00  0.1028E+04
      8.122 -0.3993E+00  0.1028E+04
      8.168 -0.1601E+00  0.1028E+04
      8.214 -0.5829E-01  0.1028E+04
      8.259 -0.1933E-01  0.1028E+04
      8.305 -0.5845E-02  0.1028E+04
      8.351 -0.1609E-02  0.1028E+04
      8.396 -0.4030E-03  0.1028E+04
      8.442 -0.9165E-04  0.1028E+04
      8.488 -0.1889E-04  0.1028E+04
      8.534 -0.3524E-05  0.1028E+04
      8.579 -0.5938E-06  0.1028E+04
      8.625 -0.9032E-07  0.1028E+04
      8.671 -0.1239E-07  0.1028E+04
      8.716 -0.1531E-08  0.1028E+04
      8.762 -0.1704E-09  0.1028E+04
      8.808 -0.1708E-10  0.1028E+04
      8.853 -0.1539E-11  0.1028E+04
      8.899 -0.1218E-12  0.1028E+04
      8.945 -0.1002E-13  0.1028E+04
      8.991  0.0000E+00  0.1028E+04
      9.036  0.0000E+00  0.1028E+04
      9.082  0.0000E+00  0.1028E+04
      9.128  0.0000E+00  0.1028E+04
      9.173  0.0000E+00  0.1028E+04
      9.219  0.0000E+00  0.1028E+04
      9.265  0.0000E+00  0.1028E+04
      9.310  0.0000E+00  0.1028E+04
      9.356  0.0000E+00  0.1028E+04
      9.402  0.0000E+00  0.1028E+04
      9.448  0.0000E+00  0.1028E+04
      9.493  0.0000E+00  0.1028E+04
      9.539  0.0000E+00  0.1028E+04
      9.585  0.0000E+00  0.1028E+04
      9.630  0.0000E+00  0.1028E+04
      9.676  0.0000E+00  0.1028E+04
      9.722  0.0000E+00  0.1028E+04
