  107  107  100    1
  0.1031640E+02  0.1033485E-08  0.1033485E-08  0.1033485E-08  0.5000000E-15
  1.000000000000000E-004
  CAR 
 NEB                                     
    856     32    514
 
  0.1250000E+00  0.1250000E+00  0.1250000E+00  0.3125000E-01
    1       -1.983966   1.000000
    2       -0.878997   1.000000
    3       -0.876279   1.000000
    4       -0.805442   1.000000
    5       -0.194715   1.000000
    6       -0.192365   1.000000
    7       -0.125197   1.000000
    8        0.137207   1.000000
    9        0.140927   1.000000
   10        0.215760   1.000000
   11        0.733730   1.000000
   12        0.739312   1.000000
   13        0.746953   1.000000
   14        0.768943   1.000000
   15        0.777205   1.000000
   16        0.837685   1.000000
   17        0.902553   1.000000
   18        1.258452   1.000000
   19        1.264762   1.000000
   20        1.277265   1.000000
   21        1.294955   1.000000
   22        1.299464   1.000000
   23        1.375830   1.000000
   24        1.528554   1.000000
   25        1.537698   1.000000
   26        1.573401   1.000000
   27        1.677188   1.000000
   28        1.735085   1.000000
   29        1.735358   1.000000
   30        1.758616   1.000000
   31        1.825610   1.000000
   32        1.837941   1.000000
   33        1.851185   1.000000
   34        1.941504   1.000000
   35        1.945661   1.000000
   36        1.960753   1.000000
   37        2.275486   1.000000
   38        2.283063   1.000000
   39        2.284402   1.000000
   40        2.377205   1.000000
   41        2.389422   1.000000
   42        2.391513   1.000000
   43        2.396333   1.000000
   44        2.402453   1.000000
   45        2.411373   1.000000
   46        2.420678   1.000000
   47        2.425469   1.000000
   48        2.431864   1.000000
   49        2.438725   1.000000
   50        2.443995   1.000000
   51        2.452975   1.000000
   52        2.454466   1.000000
   53        2.460385   1.000000
   54        2.465521   1.000000
   55        2.471964   1.000000
   56        2.477485   1.000000
   57        2.485772   1.000000
   58        2.519862   1.000000
   59        2.522304   1.000000
   60        2.543798   1.000000
   61        2.550992   1.000000
   62        2.554887   1.000000
   63        2.563794   1.000000
   64        2.574353   1.000000
   65        2.579846   1.000000
   66        2.637117   1.000000
   67        2.642214   1.000000
   68        2.645080   1.000000
   69        2.650291   1.000000
   70        2.662133   1.000000
   71        2.667717   1.000000
   72        2.676676   1.000000
   73        2.677601   1.000000
   74        2.686056   1.000000
   75        2.691419   1.000000
   76        2.698712   1.000000
   77        2.711029   1.000000
   78        2.715457   1.000000
   79        2.722669   1.000000
   80        2.736279   1.000000
   81        2.743543   1.000000
   82        2.745516   1.000000
   83        2.763255   1.000000
   84        2.769137   1.000000
   85        2.783538   1.000000
   86        2.821012   1.000000
   87        2.828508   1.000000
   88        2.857476   1.000000
   89        2.859022   1.000000
   90        2.862985   1.000000
   91        2.902961   1.000000
   92        2.923682   1.000000
   93        2.948023   1.000000
   94        2.971515   1.000000
   95        2.973791   1.000000
   96        2.993271   1.000000
   97        2.996138   1.000000
   98        2.999472   1.000000
   99        3.011662   1.000000
  100        3.018651   1.000000
  101        3.022507   1.000000
  102        3.024052   1.000000
  103        3.071840   1.000000
  104        3.076453   1.000000
  105        3.083280   1.000000
  106        3.102613   1.000000
  107        3.105192   1.000000
  108        3.113608   1.000000
  109        3.134913   1.000000
  110        3.146878   1.000000
  111        3.170435   1.000000
  112        3.230284   1.000000
  113        3.235037   1.000000
  114        3.245290   1.000000
  115        3.253684   1.000000
  116        3.261101   1.000000
  117        3.268926   1.000000
  118        3.299769   1.000000
  119        3.303196   1.000000
  120        3.316210   1.000000
  121        3.357949   1.000000
  122        3.360085   1.000000
  123        3.370947   1.000000
  124        3.379480   1.000000
  125        3.383149   1.000000
  126        3.394365   1.000000
  127        3.400368   1.000000
  128        3.404660   1.000000
  129        3.407176   1.000000
  130        3.410358   1.000000
  131        3.415800   1.000000
  132        3.430962   1.000000
  133        3.435560   1.000000
  134        3.436200   1.000000
  135        3.454436   1.000000
  136        3.473240   1.000000
  137        3.476622   1.000000
  138        3.487692   1.000000
  139        3.491420   1.000000
  140        3.502372   1.000000
  141        3.519729   1.000000
  142        3.524335   1.000000
  143        3.537505   1.000000
  144        3.556923   1.000000
  145        3.597581   1.000000
  146        3.600472   1.000000
  147        3.607723   1.000000
  148        3.619470   1.000000
  149        3.642423   1.000000
  150        3.643645   1.000000
  151        3.660410   1.000000
  152        3.663559   1.000000
  153        3.663941   1.000000
  154        3.675500   1.000000
  155        3.681813   1.000000
  156        3.699313   1.000000
  157        3.740502   1.000000
  158        3.740953   1.000000
  159        3.796236   1.000000
  160        3.810654   1.000000
  161        3.824365   1.000000
  162        3.826843   1.000000
  163        3.838298   1.000000
  164        3.852050   1.000000
  165        3.858153   1.000000
  166        3.898500   1.000000
  167        3.934523   1.000000
  168        3.939262   1.000000
  169        4.008048   1.000000
  170        4.020871   1.000000
  171        4.034417   1.000000
  172        4.042180   1.000000
  173        4.070304   1.000000
  174        4.094819   1.000000
  175        4.134813   1.000000
  176        4.170259   1.000000
  177        4.186663   1.000000
  178        4.187691   1.000000
  179        4.195157   1.000000
  180        4.201427   1.000000
  181        4.211332   1.000000
  182        4.212464   1.000000
  183        4.223394   1.000000
  184        4.225727   1.000000
  185        4.231472   1.000000
  186        4.232454   1.000000
  187        4.244219   1.000000
  188        4.260649   1.000000
  189        4.269431   1.000000
  190        4.288659   1.000000
  191        4.289934   1.000000
  192        4.322382   1.000000
  193        4.334737   1.000000
  194        4.343566   1.000000
  195        4.361297   1.000000
  196        4.361359   1.000000
  197        4.371922   1.000000
  198        4.376332   1.000000
  199        4.381078   1.000000
  200        4.386033   1.000000
  201        4.389348   1.000000
  202        4.397018   1.000000
  203        4.402271   1.000000
  204        4.405325   1.000000
  205        4.407804   1.000000
  206        4.423360   1.000000
  207        4.428029   1.000000
  208        4.449902   1.000000
  209        4.462450   1.000000
  210        4.466607   1.000000
  211        4.477787   1.000000
  212        4.487260   1.000000
  213        4.492843   1.000000
  214        4.522803   1.000000
  215        4.529466   1.000000
  216        4.543372   1.000000
  217        4.575488   1.000000
  218        4.577498   1.000000
  219        4.587020   1.000000
  220        4.613839   1.000000
  221        4.619357   1.000000
  222        4.634668   1.000000
  223        4.680449   1.000000
  224        4.682612   1.000000
  225        4.713483   1.000000
  226        4.715318   1.000000
  227        4.727086   1.000000
  228        4.731140   1.000000
  229        4.744261   1.000000
  230        4.746000   1.000000
  231        4.754763   1.000000
  232        4.758836   1.000000
  233        4.765502   1.000000
  234        4.777006   1.000000
  235        4.778958   1.000000
  236        4.819059   1.000000
  237        4.824586   1.000000
  238        4.833810   1.000000
  239        4.874935   1.000000
  240        4.883691   1.000000
  241        4.884649   1.000000
  242        4.904644   1.000000
  243        4.908208   1.000000
  244        4.929226   1.000000
  245        4.947658   1.000000
  246        4.956594   1.000000
  247        4.961983   1.000000
  248        4.977852   1.000000
  249        4.980185   1.000000
  250        4.987099   1.000000
  251        4.993526   1.000000
  252        4.993562   1.000000
  253        5.001537   1.000000
  254        5.001745   1.000000
  255        5.010044   1.000000
  256        5.015088   1.000000
  257        5.017519   1.000000
  258        5.023337   1.000000
  259        5.036371   1.000000
  260        5.042248   1.000000
  261        5.047725   1.000000
  262        5.054592   1.000000
  263        5.060233   1.000000
  264        5.069587   1.000000
  265        5.074952   1.000000
  266        5.076705   1.000000
  267        5.079667   1.000000
  268        5.094784   1.000000
  269        5.098308   1.000000
  270        5.101990   1.000000
  271        5.104047   1.000000
  272        5.116472   1.000000
  273        5.120099   1.000000
  274        5.129814   1.000000
  275        5.139944   1.000000
  276        5.140928   1.000000
  277        5.154129   1.000000
  278        5.157654   1.000000
  279        5.165265   1.000000
  280        5.174459   1.000000
  281        5.183735   1.000000
  282        5.187400   1.000000
  283        5.194813   1.000000
  284        5.201487   1.000000
  285        5.208438   1.000000
  286        5.211077   1.000000
  287        5.211432   1.000000
  288        5.220945   1.000000
  289        5.221014   1.000000
  290        5.223827   1.000000
  291        5.231498   1.000000
  292        5.240290   1.000000
  293        5.244019   1.000000
  294        5.250348   1.000000
  295        5.261213   1.000000
  296        5.268592   1.000000
  297        5.269421   1.000000
  298        5.284513   1.000000
  299        5.285257   1.000000
  300        5.304582   1.000000
  301        5.307291   1.000000
  302        5.313720   1.000000
  303        5.321058   1.000000
  304        5.333646   1.000000
  305        5.353538   1.000000
  306        5.372878   1.000000
  307        5.374320   1.000000
  308        5.385040   1.000000
  309        5.434701   1.000000
  310        5.437381   1.000000
  311        5.471098   1.000000
  312        5.486433   1.000000
  313        5.495740   1.000000
  314        5.503847   1.000000
  315        5.506149   1.000000
  316        5.510867   1.000000
  317        5.516318   1.000000
  318        5.518136   1.000000
  319        5.522149   1.000000
  320        5.526294   1.000000
  321        5.527211   1.000000
  322        5.535574   1.000000
  323        5.545639   1.000000
  324        5.560054   1.000000
  325        5.565822   1.000000
  326        5.574457   1.000000
  327        5.575362   1.000000
  328        5.585482   1.000000
  329        5.606150   1.000000
  330        5.621468   1.000000
  331        5.628741   1.000000
  332        5.649374   1.000000
  333        5.657305   1.000000
  334        5.658565   1.000000
  335        5.666063   1.000000
  336        5.672896   1.000000
  337        5.673621   1.000000
  338        5.680935   1.000000
  339        5.690524   1.000000
  340        5.699836   1.000000
  341        5.705512   1.000000
  342        5.719596   1.000000
  343        5.730173   1.000000
  344        5.731949   1.000000
  345        5.749321   1.000000
  346        5.751922   1.000000
  347        5.762913   1.000000
  348        5.774585   1.000000
  349        5.774641   1.000000
  350        5.788953   1.000000
  351        5.800783   1.000000
  352        5.811951   1.000000
  353        5.821628   1.000000
  354        5.823247   1.000000
  355        5.831851   1.000000
  356        5.834514   1.000000
  357        5.840016   1.000000
  358        5.857215   1.000000
  359        5.870789   1.000000
  360        5.901833   1.000000
  361        5.911240   1.000000
  362        5.937058   1.000000
  363        5.948845   1.000001
  364        5.988940   1.000002
  365        5.997039   1.000003
  366        6.028853   1.000008
  367        6.036574   1.000010
  368        6.038192   1.000011
  369        6.081865   1.000042
  370        6.094083   1.000060
  371        6.119969   1.000124
  372        6.135695   1.000189
  373        6.141426   1.000220
  374        6.147492   1.000257
  375        6.152579   1.000293
  376        6.154700   1.000310
  377        6.165262   1.000404
  378        6.166726   1.000419
  379        6.170500   1.000460
  380        6.174364   1.000506
  381        6.179914   1.000578
  382        6.190631   1.000746
  383        6.215126   1.001302
  384        6.230952   1.001832
  385        6.254833   1.002981
  386        6.274029   1.004299
  387        6.289267   1.005655
  388        6.322853   1.009810
  389        6.338857   1.012413
  390        6.348266   1.014132
  391        6.353112   1.015070
  392        6.374114   1.019489
  393        6.375364   1.019768
  394        6.391264   1.023397
  395        6.404482   1.026444
  396        6.417874   1.029401
  397        6.435786   1.032803
  398        6.454589   1.035077
  399        6.454594   1.035078
  400        6.481952   1.034201
  401        6.483681   1.033916
  402        6.496723   1.030661
  403        6.510948   1.024539
  404        6.534571   1.007077
  405        6.541821   0.999598
  406        6.544413   0.996660
  407        6.545798   0.995030
  408        6.556527   0.980982
  409        6.571363   0.957175
  410        6.579052   0.942740
  411        6.580295   0.940267
  412        6.597988   0.900877
  413        6.601958   0.890953
  414        6.614379   0.857360
  415        6.619245   0.843168
  416        6.629159   0.812516
  417        6.632309   0.802307
  418        6.657709   0.712469
  419        6.664993   0.684548
  420        6.678035   0.632681
  421        6.688772   0.588571
  422        6.708263   0.506645
  423        6.713817   0.483144
  424        6.719618   0.458650
  425        6.742716   0.362924
  426        6.751657   0.327248
  427        6.757639   0.303981
  428        6.785972   0.202254
  429        6.786048   0.202002
  430        6.797111   0.166810
  431        6.800996   0.155126
  432        6.811274   0.125972
  433        6.814328   0.117810
  434        6.832122   0.074916
  435        6.837106   0.064335
  436        6.841399   0.055719
  437        6.866749   0.014004
  438        6.884281  -0.006291
  439        6.904217  -0.021962
  440        6.908223  -0.024272
  441        6.923033  -0.030690
  442        6.939461  -0.034456
  443        6.939755  -0.034496
  444        6.951728  -0.035421
  445        6.957119  -0.035437
  446        6.963510  -0.035181
  447        6.968657  -0.034784
  448        6.973603  -0.034261
  449        6.975262  -0.034058
  450        6.986542  -0.032357
  451        6.991890  -0.031390
  452        6.996994  -0.030393
  453        6.997272  -0.030337
  454        7.002500  -0.029251
  455        7.005490  -0.028608
  456        7.014605  -0.026576
  457        7.014910  -0.026507
  458        7.034069  -0.022089
  459        7.035655  -0.021725
  460        7.046907  -0.019189
  461        7.049041  -0.018720
  462        7.063524  -0.015673
  463        7.066221  -0.015135
  464        7.075713  -0.013327
  465        7.098117  -0.009616
  466        7.101793  -0.009084
  467        7.125857  -0.006119
  468        7.126493  -0.006052
  469        7.130881  -0.005607
  470        7.142767  -0.004532
  471        7.153074  -0.003740
  472        7.156302  -0.003517
  473        7.162679  -0.003109
  474        7.173016  -0.002533
  475        7.177669  -0.002304
  476        7.182209  -0.002099
  477        7.195708  -0.001578
  478        7.218468  -0.000953
  479        7.222687  -0.000865
  480        7.236053  -0.000632
  481        7.252802  -0.000421
  482        7.257987  -0.000370
  483        7.273486  -0.000249
  484        7.279190  -0.000214
  485        7.287792  -0.000171
  486        7.292997  -0.000148
  487        7.301678  -0.000117
  488        7.305814  -0.000104
  489        7.313852  -0.000083
  490        7.317016  -0.000076
  491        7.328155  -0.000055
  492        7.334596  -0.000046
  493        7.345770  -0.000033
  494        7.353331  -0.000026
  495        7.357649  -0.000023
  496        7.358345  -0.000023
  497        7.373702  -0.000014
  498        7.375903  -0.000013
  499        7.380506  -0.000011
  500        7.382629  -0.000011
  501        7.387931  -0.000009
  502        7.399407  -0.000006
  503        7.433857  -0.000002
  504        7.445089  -0.000001
  505        7.448488  -0.000001
  506        7.449200  -0.000001
  507        7.461314  -0.000001
  508        7.474468  -0.000000
  509        7.483301  -0.000000
  510        7.483828  -0.000000
  511        7.490197  -0.000000
  512        7.491569  -0.000000
  513        7.501092  -0.000000
  514        7.512249  -0.000000
 
  0.3750000E+00  0.1250000E+00  0.1250000E+00  0.3125000E-01
    1       -1.789202   1.000000
    2       -1.404356   1.000000
    3       -0.699729   1.000000
    4       -0.655757   1.000000
    5       -0.354386   1.000000
    6       -0.306614   1.000000
    7       -0.027133   1.000000
    8        0.017062   1.000000
    9        0.283892   1.000000
   10        0.293789   1.000000
   11        0.357269   1.000000
   12        0.538741   1.000000
   13        0.583301   1.000000
   14        0.858417   1.000000
   15        0.873457   1.000000
   16        1.034947   1.000000
   17        1.052941   1.000000
   18        1.268332   1.000000
   19        1.356221   1.000000
   20        1.407111   1.000000
   21        1.430166   1.000000
   22        1.468344   1.000000
   23        1.683734   1.000000
   24        1.809401   1.000000
   25        1.817163   1.000000
   26        1.825262   1.000000
   27        1.868448   1.000000
   28        1.873681   1.000000
   29        1.879230   1.000000
   30        1.888368   1.000000
   31        1.911044   1.000000
   32        1.954846   1.000000
   33        1.959532   1.000000
   34        1.970224   1.000000
   35        2.024516   1.000000
   36        2.034497   1.000000
   37        2.047901   1.000000
   38        2.061744   1.000000
   39        2.081710   1.000000
   40        2.088132   1.000000
   41        2.101147   1.000000
   42        2.117304   1.000000
   43        2.135766   1.000000
   44        2.164550   1.000000
   45        2.176593   1.000000
   46        2.196416   1.000000
   47        2.232738   1.000000
   48        2.254337   1.000000
   49        2.326174   1.000000
   50        2.335490   1.000000
   51        2.404134   1.000000
   52        2.420776   1.000000
   53        2.434187   1.000000
   54        2.440685   1.000000
   55        2.444299   1.000000
   56        2.456899   1.000000
   57        2.465734   1.000000
   58        2.472332   1.000000
   59        2.502266   1.000000
   60        2.514492   1.000000
   61        2.529484   1.000000
   62        2.546166   1.000000
   63        2.558891   1.000000
   64        2.567698   1.000000
   65        2.584500   1.000000
   66        2.600740   1.000000
   67        2.608537   1.000000
   68        2.642893   1.000000
   69        2.649048   1.000000
   70        2.655076   1.000000
   71        2.666452   1.000000
   72        2.675274   1.000000
   73        2.684618   1.000000
   74        2.688937   1.000000
   75        2.694896   1.000000
   76        2.710196   1.000000
   77        2.722801   1.000000
   78        2.732347   1.000000
   79        2.750986   1.000000
   80        2.757549   1.000000
   81        2.781986   1.000000
   82        2.815348   1.000000
   83        2.821914   1.000000
   84        2.826251   1.000000
   85        2.832449   1.000000
   86        2.842420   1.000000
   87        2.858755   1.000000
   88        2.863132   1.000000
   89        2.877551   1.000000
   90        2.883828   1.000000
   91        2.900455   1.000000
   92        2.914262   1.000000
   93        2.941604   1.000000
   94        2.950268   1.000000
   95        2.954168   1.000000
   96        2.955919   1.000000
   97        2.971865   1.000000
   98        2.987332   1.000000
   99        2.997895   1.000000
  100        3.024752   1.000000
  101        3.055455   1.000000
  102        3.066186   1.000000
  103        3.078403   1.000000
  104        3.088698   1.000000
  105        3.119860   1.000000
  106        3.132878   1.000000
  107        3.139414   1.000000
  108        3.144679   1.000000
  109        3.149257   1.000000
  110        3.161981   1.000000
  111        3.178527   1.000000
  112        3.187253   1.000000
  113        3.200630   1.000000
  114        3.212185   1.000000
  115        3.220571   1.000000
  116        3.239783   1.000000
  117        3.247471   1.000000
  118        3.252674   1.000000
  119        3.264696   1.000000
  120        3.298087   1.000000
  121        3.323297   1.000000
  122        3.335798   1.000000
  123        3.353622   1.000000
  124        3.366185   1.000000
  125        3.372824   1.000000
  126        3.393432   1.000000
  127        3.412826   1.000000
  128        3.420203   1.000000
  129        3.431403   1.000000
  130        3.439219   1.000000
  131        3.452623   1.000000
  132        3.463060   1.000000
  133        3.468171   1.000000
  134        3.483494   1.000000
  135        3.497855   1.000000
  136        3.502383   1.000000
  137        3.514705   1.000000
  138        3.531003   1.000000
  139        3.539834   1.000000
  140        3.547862   1.000000
  141        3.556762   1.000000
  142        3.567010   1.000000
  143        3.576120   1.000000
  144        3.584566   1.000000
  145        3.599423   1.000000
  146        3.609474   1.000000
  147        3.638170   1.000000
  148        3.662715   1.000000
  149        3.682243   1.000000
  150        3.700720   1.000000
  151        3.712128   1.000000
  152        3.727555   1.000000
  153        3.739305   1.000000
  154        3.750991   1.000000
  155        3.771401   1.000000
  156        3.800698   1.000000
  157        3.808663   1.000000
  158        3.815375   1.000000
  159        3.831746   1.000000
  160        3.837202   1.000000
  161        3.849891   1.000000
  162        3.858644   1.000000
  163        3.877161   1.000000
  164        3.884939   1.000000
  165        3.889968   1.000000
  166        3.909014   1.000000
  167        3.916632   1.000000
  168        3.939814   1.000000
  169        3.956255   1.000000
  170        3.959241   1.000000
  171        3.972661   1.000000
  172        3.979588   1.000000
  173        4.000090   1.000000
  174        4.014243   1.000000
  175        4.031570   1.000000
  176        4.039483   1.000000
  177        4.062065   1.000000
  178        4.078060   1.000000
  179        4.100347   1.000000
  180        4.107999   1.000000
  181        4.131913   1.000000
  182        4.145972   1.000000
  183        4.159919   1.000000
  184        4.173611   1.000000
  185        4.185691   1.000000
  186        4.191068   1.000000
  187        4.206713   1.000000
  188        4.222173   1.000000
  189        4.246791   1.000000
  190        4.249134   1.000000
  191        4.256472   1.000000
  192        4.280925   1.000000
  193        4.316692   1.000000
  194        4.333177   1.000000
  195        4.350172   1.000000
  196        4.359923   1.000000
  197        4.375980   1.000000
  198        4.379340   1.000000
  199        4.387177   1.000000
  200        4.394130   1.000000
  201        4.414273   1.000000
  202        4.428197   1.000000
  203        4.433032   1.000000
  204        4.450763   1.000000
  205        4.466961   1.000000
  206        4.481351   1.000000
  207        4.486404   1.000000
  208        4.489422   1.000000
  209        4.498908   1.000000
  210        4.510496   1.000000
  211        4.521391   1.000000
  212        4.528511   1.000000
  213        4.536869   1.000000
  214        4.544509   1.000000
  215        4.562144   1.000000
  216        4.571017   1.000000
  217        4.588330   1.000000
  218        4.593766   1.000000
  219        4.602987   1.000000
  220        4.620225   1.000000
  221        4.625890   1.000000
  222        4.645706   1.000000
  223        4.658099   1.000000
  224        4.692130   1.000000
  225        4.699149   1.000000
  226        4.714694   1.000000
  227        4.725985   1.000000
  228        4.740000   1.000000
  229        4.754287   1.000000
  230        4.764176   1.000000
  231        4.772567   1.000000
  232        4.785301   1.000000
  233        4.788081   1.000000
  234        4.794618   1.000000
  235        4.806557   1.000000
  236        4.814183   1.000000
  237        4.820791   1.000000
  238        4.827220   1.000000
  239        4.832533   1.000000
  240        4.842664   1.000000
  241        4.849487   1.000000
  242        4.861497   1.000000
  243        4.866051   1.000000
  244        4.875253   1.000000
  245        4.882887   1.000000
  246        4.887588   1.000000
  247        4.898535   1.000000
  248        4.907906   1.000000
  249        4.916088   1.000000
  250        4.923725   1.000000
  251        4.934360   1.000000
  252        4.942371   1.000000
  253        4.947534   1.000000
  254        4.952414   1.000000
  255        4.966378   1.000000
  256        4.973827   1.000000
  257        4.987731   1.000000
  258        4.992393   1.000000
  259        4.997933   1.000000
  260        5.005608   1.000000
  261        5.013779   1.000000
  262        5.023236   1.000000
  263        5.031637   1.000000
  264        5.047784   1.000000
  265        5.061879   1.000000
  266        5.074372   1.000000
  267        5.087004   1.000000
  268        5.096208   1.000000
  269        5.111265   1.000000
  270        5.122675   1.000000
  271        5.130874   1.000000
  272        5.137096   1.000000
  273        5.146862   1.000000
  274        5.153975   1.000000
  275        5.166867   1.000000
  276        5.174436   1.000000
  277        5.182730   1.000000
  278        5.189018   1.000000
  279        5.199673   1.000000
  280        5.210134   1.000000
  281        5.215891   1.000000
  282        5.217712   1.000000
  283        5.224318   1.000000
  284        5.229587   1.000000
  285        5.233291   1.000000
  286        5.248415   1.000000
  287        5.251809   1.000000
  288        5.260273   1.000000
  289        5.272351   1.000000
  290        5.280274   1.000000
  291        5.289297   1.000000
  292        5.300788   1.000000
  293        5.315070   1.000000
  294        5.321172   1.000000
  295        5.325918   1.000000
  296        5.336000   1.000000
  297        5.341034   1.000000
  298        5.345796   1.000000
  299        5.349828   1.000000
  300        5.355250   1.000000
  301        5.364091   1.000000
  302        5.368755   1.000000
  303        5.376199   1.000000
  304        5.380088   1.000000
  305        5.383381   1.000000
  306        5.394433   1.000000
  307        5.397848   1.000000
  308        5.403623   1.000000
  309        5.416042   1.000000
  310        5.422511   1.000000
  311        5.431423   1.000000
  312        5.435301   1.000000
  313        5.438821   1.000000
  314        5.446381   1.000000
  315        5.453473   1.000000
  316        5.456731   1.000000
  317        5.463697   1.000000
  318        5.476564   1.000000
  319        5.482142   1.000000
  320        5.492582   1.000000
  321        5.497200   1.000000
  322        5.506854   1.000000
  323        5.517492   1.000000
  324        5.525763   1.000000
  325        5.529165   1.000000
  326        5.540487   1.000000
  327        5.551925   1.000000
  328        5.563927   1.000000
  329        5.568944   1.000000
  330        5.581118   1.000000
  331        5.586213   1.000000
  332        5.599224   1.000000
  333        5.612826   1.000000
  334        5.620216   1.000000
  335        5.641426   1.000000
  336        5.648598   1.000000
  337        5.679272   1.000000
  338        5.685039   1.000000
  339        5.698786   1.000000
  340        5.706532   1.000000
  341        5.725310   1.000000
  342        5.745033   1.000000
  343        5.762014   1.000000
  344        5.771081   1.000000
  345        5.775054   1.000000
  346        5.782612   1.000000
  347        5.793390   1.000000
  348        5.797850   1.000000
  349        5.820971   1.000000
  350        5.854924   1.000000
  351        5.863394   1.000000
  352        5.894493   1.000000
  353        5.920305   1.000000
  354        5.922679   1.000000
  355        5.949569   1.000001
  356        5.965458   1.000001
  357        5.992112   1.000002
  358        5.997621   1.000003
  359        6.008085   1.000004
  360        6.019503   1.000006
  361        6.024614   1.000007
  362        6.046788   1.000014
  363        6.057968   1.000020
  364        6.067591   1.000027
  365        6.079083   1.000039
  366        6.085481   1.000047
  367        6.095370   1.000062
  368        6.110245   1.000094
  369        6.125887   1.000145
  370        6.139994   1.000212
  371        6.143668   1.000233
  372        6.149049   1.000268
  373        6.159135   1.000347
  374        6.160564   1.000359
  375        6.173208   1.000492
  376        6.177634   1.000547
  377        6.187541   1.000694
  378        6.193315   1.000794
  379        6.200898   1.000946
  380        6.206756   1.001081
  381        6.220016   1.001449
  382        6.223907   1.001577
  383        6.230433   1.001812
  384        6.236373   1.002052
  385        6.239021   1.002168