       N       E                     dE             d eps       ncg     rms          rms(c)
DAV:   1     0.750846870791E+04    0.75085E+04   -0.28618E+05 32936   0.183E+03
DAV:   2    -0.251098605580E+02   -0.75336E+04   -0.73657E+04 32896   0.456E+02
DAV:   3    -0.841342090615E+03   -0.81623E+03   -0.69751E+03 33168   0.190E+02
DAV:   4    -0.101622751267E+04   -0.17489E+03   -0.16405E+03 59856   0.569E+01
DAV:   5    -0.103122698291E+04   -0.14999E+02   -0.14151E+02 52632   0.217E+01    0.929E+01
RMM:   6    -0.880732535895E+03    0.15049E+03   -0.14023E+03 32896   0.112E+02    0.397E+01
RMM:   7    -0.114143534047E+04   -0.26070E+03   -0.43697E+02 43185   0.350E+01    0.171E+02
RMM:   8    -0.886915086866E+03    0.25452E+03   -0.23199E+02 32896   0.437E+01    0.583E+01
RMM:   9    -0.868201076947E+03    0.18714E+02   -0.68647E+01 33699   0.179E+01    0.197E+01
RMM:  10    -0.870929718059E+03   -0.27286E+01   -0.50591E+01 48344   0.913E+00    0.156E+01
RMM:  11    -0.870500167043E+03    0.42955E+00   -0.11514E+01 38375   0.605E+00    0.165E+01
RMM:  12    -0.869363944284E+03    0.11362E+01   -0.40781E+00 40240   0.342E+00    0.116E+01
RMM:  13    -0.869119425468E+03    0.24452E+00   -0.19905E+00 41024   0.225E+00    0.105E+01
RMM:  14    -0.868511210025E+03    0.60822E+00   -0.17926E+00 34211   0.312E+00    0.634E+00
RMM:  15    -0.868550678014E+03   -0.39468E-01   -0.14510E+00 48265   0.127E+00    0.724E+00
RMM:  16    -0.868456501751E+03    0.94176E-01   -0.36685E-01 37348   0.120E+00    0.665E+00
RMM:  17    -0.868317565200E+03    0.13894E+00   -0.25168E-01 34385   0.114E+00    0.456E+00
RMM:  18    -0.868295485653E+03    0.22080E-01   -0.25860E-01 38565   0.903E-01    0.382E+00
RMM:  19    -0.868227525010E+03    0.67961E-01   -0.14591E-01 34533   0.851E-01    0.106E+00
RMM:  20    -0.868233808939E+03   -0.62839E-02   -0.11258E-01 48886   0.369E-01    0.900E-01
RMM:  21    -0.868236548930E+03   -0.27400E-02   -0.48355E-02 40231   0.344E-01    0.123E+00
RMM:  22    -0.868235693287E+03    0.85564E-03   -0.21257E-02 44031   0.202E-01    0.116E+00
RMM:  23    -0.868234041805E+03    0.16515E-02   -0.77777E-03 36660   0.178E-01    0.100E+00
RMM:  24    -0.868229528269E+03    0.45135E-02   -0.62198E-03 33663   0.198E-01    0.323E-01
RMM:  25    -0.868229585048E+03   -0.56779E-04   -0.33922E-03 47524   0.716E-02    0.229E-01
RMM:  26    -0.868229418343E+03    0.16670E-03   -0.13843E-03 41814   0.559E-02    0.142E-01
RMM:  27    -0.868229343215E+03    0.75128E-04   -0.38991E-04 42164   0.319E-02    0.567E-02
RMM:  28    -0.868229346018E+03   -0.28031E-05   -0.14496E-04 47407   0.169E-02    0.704E-02
RMM:  29    -0.868229295370E+03    0.50648E-04   -0.24584E-05 37658   0.167E-02    0.408E-02
RMM:  30    -0.868229286258E+03    0.91120E-05    0.70783E-06 44873   0.883E-03    0.368E-02
RMM:  31    -0.868229271359E+03    0.14899E-04    0.30152E-05 35148   0.757E-03    0.302E-02
RMM:  32    -0.868229260577E+03    0.10782E-04    0.38860E-05 27598   0.588E-03    0.131E-02
RMM:  33    -0.868229257488E+03    0.30889E-05    0.35279E-05 21479   0.278E-03    0.121E-02
RMM:  34    -0.868229255571E+03    0.19167E-05    0.31858E-05 20562   0.352E-03    0.582E-03
RMM:  35    -0.868229252503E+03    0.30682E-05    0.32093E-05 19056   0.212E-03    0.337E-03
RMM:  36    -0.868229250111E+03    0.23917E-05    0.28203E-05 18522   0.230E-03    0.272E-03
RMM:  37    -0.868229247698E+03    0.24132E-05    0.24964E-05 18430   0.137E-03    0.116E-03
RMM:  38    -0.868229245520E+03    0.21782E-05    0.23443E-05 17459   0.121E-03    0.179E-03
RMM:  39    -0.868229243562E+03    0.19580E-05    0.21011E-05 17360   0.103E-03    0.828E-04
RMM:  40    -0.868229241546E+03    0.20155E-05    0.20267E-05 14048   0.671E-04    0.104E-03
RMM:  41    -0.868229239712E+03    0.18342E-05    0.19259E-05 14574   0.704E-04    0.665E-04
RMM:  42    -0.868229238054E+03    0.16575E-05    0.16529E-05  9505   0.441E-04    0.397E-04
RMM:  43    -0.868229236538E+03    0.15160E-05    0.15211E-05  9390   0.470E-04    0.445E-04
RMM:  44    -0.868229235101E+03    0.14379E-05    0.14381E-05  7347   0.365E-04    0.300E-04
RMM:  45    -0.868229233815E+03    0.12855E-05    0.12705E-05  7261   0.380E-04    0.314E-04
RMM:  46    -0.868229232635E+03    0.11801E-05    0.11770E-05  6600   0.342E-04    0.170E-04
RMM:  47    -0.868229231569E+03    0.10654E-05    0.10533E-05  6359   0.342E-04    0.174E-04
RMM:  48    -0.868229230618E+03    0.95159E-06    0.94101E-06  6026   0.327E-04
   1 F= -.86822923E+03 E0= -.86821237E+03  d E =-.868229E+03
       N       E                     dE             d eps       ncg     rms          rms(c)
DAV:   1    -0.868359493583E+03   -0.13026E+00   -0.45007E+01 32952   0.954E+00    0.246E+00
RMM:   2    -0.871279346946E+03   -0.29199E+01   -0.92865E+00 36187   0.668E+00    0.207E+01
RMM:   3    -0.868470759233E+03    0.28086E+01   -0.18257E+00 32896   0.401E+00    0.395E+00
RMM:   4    -0.868409560549E+03    0.61199E-01   -0.39679E-01 43660   0.800E-01    0.162E+00
RMM:   5    -0.868420745651E+03   -0.11185E-01   -0.15120E-01 44244   0.495E-01    0.186E+00
RMM:   6    -0.868404407989E+03    0.16338E-01   -0.62316E-02 37296   0.441E-01    0.703E-01
RMM:   7    -0.868414518889E+03   -0.10111E-01   -0.61798E-02 40626   0.417E-01    0.158E+00
RMM:   8    -0.868403343065E+03    0.11176E-01   -0.22199E-02 32994   0.354E-01    0.838E-01
RMM:   9    -0.868401567197E+03    0.17759E-02   -0.11560E-02 38551   0.199E-01    0.596E-01
RMM:  10    -0.868401873908E+03   -0.30671E-03   -0.77991E-03 38295   0.162E-01    0.624E-01
RMM:  11    -0.868399912610E+03    0.19613E-02   -0.29057E-03 33832   0.133E-01    0.136E-01
RMM:  12    -0.868400044778E+03   -0.13217E-03   -0.22175E-03 45200   0.582E-02    0.165E-01
RMM:  13    -0.868399950928E+03    0.93849E-04   -0.41764E-04 37277   0.366E-02    0.934E-02
RMM:  14    -0.868399930049E+03    0.20880E-04   -0.18770E-04 40716   0.220E-02    0.611E-02
RMM:  15    -0.868399941985E+03   -0.11937E-04   -0.11150E-04 39688   0.185E-02    0.757E-02
RMM:  16    -0.868399915360E+03    0.26626E-04   -0.34838E-05 33843   0.152E-02    0.281E-02
RMM:  17    -0.868399917367E+03   -0.20070E-05   -0.31663E-05 43147   0.850E-03    0.319E-02
RMM:  18    -0.868399914760E+03    0.26061E-05   -0.10974E-05 33899   0.755E-03    0.204E-02
RMM:  19    -0.868399912705E+03    0.20559E-05   -0.29139E-06 26351   0.534E-03    0.840E-03
RMM:  20    -0.868399913134E+03   -0.42977E-06   -0.19421E-06 23739   0.390E-03
   2 F= -.86839991E+03 E0= -.86838245E+03  d E =-.170683E+00
       N       E                     dE             d eps       ncg     rms          rms(c)
DAV:   1    -0.868451300559E+03   -0.51388E-01   -0.26314E+01 32900   0.727E+00    0.149E+00
RMM:   2    -0.869585552208E+03   -0.11343E+01   -0.31232E+00 35728   0.398E+00    0.138E+01
RMM:   3    -0.868500217963E+03    0.10853E+01   -0.62055E-01 32896   0.232E+00    0.212E+00
RMM:   4    -0.868479671542E+03    0.20546E-01   -0.15906E-01 43913   0.510E-01    0.916E-01
RMM:   5    -0.868485742124E+03   -0.60706E-02   -0.70486E-02 43624   0.365E-01    0.135E+00
RMM:   6    -0.868476254182E+03    0.94879E-02   -0.23494E-02 35884   0.303E-01    0.446E-01
RMM:   7    -0.868483209564E+03   -0.69554E-02   -0.32589E-02 40375   0.304E-01    0.126E+00
RMM:   8    -0.868476472226E+03    0.67373E-02   -0.98256E-03 33125   0.230E-01    0.664E-01
RMM:   9    -0.868474403550E+03    0.20687E-02   -0.57259E-03 35493   0.159E-01    0.239E-01
RMM:  10    -0.868475104315E+03   -0.70077E-03   -0.51341E-03 41197   0.115E-01    0.408E-01
RMM:  11    -0.868474249332E+03    0.85498E-03   -0.13658E-03 34429   0.870E-02    0.966E-02
RMM:  12    -0.868474309633E+03   -0.60302E-04   -0.10578E-03 47498   0.344E-02    0.107E-01
RMM:  13    -0.868474271929E+03    0.37705E-04   -0.16505E-04 36895   0.243E-02    0.683E-02
RMM:  14    -0.868474258456E+03    0.13472E-04   -0.79864E-05 39543   0.155E-02    0.407E-02
RMM:  15    -0.868474267830E+03   -0.93737E-05   -0.61909E-05 41377   0.130E-02    0.569E-02
RMM:  16    -0.868474253471E+03    0.14359E-04   -0.22206E-05 33582   0.117E-02    0.208E-02
RMM:  17    -0.868474253487E+03   -0.16160E-07   -0.16729E-05 38705   0.647E-03    0.182E-02
RMM:  18    -0.868474253815E+03   -0.32870E-06   -0.69267E-06 30487   0.570E-03
   3 F= -.86847425E+03 E0= -.86845666E+03  d E =-.743407E-01
       N       E                     dE             d eps       ncg     rms          rms(c)
DAV:   1    -0.868490483817E+03   -0.16230E-01   -0.11307E+01 33128   0.477E+00    0.596E-01
RMM:   2    -0.868670286921E+03   -0.17980E+00   -0.46038E-01 35095   0.165E+00    0.558E+00
RMM:   3    -0.868507474016E+03    0.16281E+00   -0.91346E-02 32896   0.877E-01    0.808E-01
RMM:   4    -0.868503017074E+03    0.44569E-02   -0.31562E-02 43968   0.247E-01    0.419E-01
RMM:   5    -0.868503389685E+03   -0.37261E-03   -0.13533E-02 42609   0.169E-01    0.647E-01
RMM:   6    -0.868500934987E+03    0.24547E-02   -0.62674E-03 34829   0.174E-01    0.259E-01
RMM:   7    -0.868504614438E+03   -0.36795E-02   -0.14773E-02 37897   0.226E-01    0.910E-01
RMM:   8    -0.868500457982E+03    0.41565E-02   -0.39463E-03 32900   0.169E-01    0.255E-01
RMM:   9    -0.868500246557E+03    0.21142E-03   -0.20754E-03 40651   0.669E-02    0.115E-01
RMM:  10    -0.868500351212E+03   -0.10465E-03   -0.96764E-04 43006   0.484E-02    0.177E-01
RMM:  11    -0.868500197066E+03    0.15415E-03   -0.25895E-04 34569   0.366E-02    0.462E-02
RMM:  12    -0.868500208902E+03   -0.11836E-04   -0.20270E-04 48763   0.146E-02    0.517E-02
RMM:  13    -0.868500198235E+03    0.10667E-04   -0.32515E-05 35816   0.118E-02    0.263E-02
RMM:  14    -0.868500197294E+03    0.94117E-06   -0.19147E-05 39047   0.688E-03    0.197E-02
RMM:  15    -0.868500200436E+03   -0.31425E-05   -0.14574E-05 36222   0.738E-03    0.297E-02
RMM:  16    -0.868500196392E+03    0.40440E-05   -0.51413E-06 26877   0.616E-03    0.886E-03
RMM:  17    -0.868500196339E+03    0.52700E-07   -0.19199E-06 20522   0.289E-03
   4 F= -.86850020E+03 E0= -.86848282E+03  d E =-.259425E-01
       N       E                     dE             d eps       ncg     rms          rms(c)
DAV:   1    -0.868505764899E+03   -0.55685E-02   -0.99188E+00 32896   0.447E+00    0.446E-01
RMM:   2    -0.868584688607E+03   -0.78924E-01   -0.23675E-01 33811   0.130E+00    0.357E+00
RMM:   3    -0.868518762546E+03    0.65926E-01   -0.42510E-02 32896   0.577E-01    0.548E-01
RMM:   4    -0.868517053322E+03    0.17092E-02   -0.16233E-02 45137   0.184E-01    0.368E-01
RMM:   5    -0.868516404116E+03    0.64921E-03   -0.64614E-03 41121   0.128E-01    0.490E-01
RMM:   6    -0.868514968178E+03    0.14359E-02   -0.43174E-03 33813   0.154E-01    0.269E-01
RMM:   7    -0.868516716039E+03   -0.17479E-02   -0.85999E-03 37792   0.173E-01    0.669E-01
RMM:   8    -0.868514434684E+03    0.22814E-02   -0.22235E-03 32901   0.127E-01    0.166E-01
RMM:   9    -0.868514370420E+03    0.64265E-04   -0.12866E-03 43838   0.502E-02    0.933E-02
RMM:  10    -0.868514366945E+03    0.34745E-05   -0.40515E-04 41934   0.303E-02    0.103E-01
RMM:  11    -0.868514315718E+03    0.51227E-04   -0.10810E-04 36003   0.212E-02    0.304E-02
RMM:  12    -0.868514321539E+03   -0.58209E-05   -0.81153E-05 47534   0.108E-02    0.403E-02
RMM:  13    -0.868514314162E+03    0.73774E-05   -0.18020E-05 35141   0.932E-03    0.174E-02
RMM:  14    -0.868514314346E+03   -0.18418E-06   -0.11079E-05 34104   0.544E-03    0.161E-02
RMM:  15    -0.868514316386E+03   -0.20405E-05   -0.89109E-06 33031   0.575E-03    0.241E-02
RMM:  16    -0.868514313750E+03    0.26363E-05   -0.31252E-06 21378   0.514E-03    0.631E-03
RMM:  17    -0.868514313761E+03   -0.11096E-07   -0.12581E-06 18488   0.238E-03
   5 F= -.86851431E+03 E0= -.86849718E+03  d E =-.141174E-01
       N       E                     dE             d eps       ncg     rms          rms(c)
DAV:   1    -0.868521015298E+03   -0.67015E-02   -0.22739E+00 33664   0.213E+00    0.190E-01
RMM:   2    -0.868533479547E+03   -0.12464E-01   -0.44899E-02 33026   0.575E-01    0.142E+00
RMM:   3    -0.868523704269E+03    0.97753E-02   -0.80636E-03 32896   0.246E-01    0.232E-01
RMM:   4    -0.868523501894E+03    0.20237E-03   -0.30623E-03 47382   0.749E-02    0.157E-01
RMM:   5    -0.868523342077E+03    0.15982E-03   -0.12998E-03 41330   0.574E-02    0.235E-01
RMM:   6    -0.868523009220E+03    0.33286E-03   -0.10405E-03 33075   0.760E-02    0.138E-01
RMM:   7    -0.868523621414E+03   -0.61219E-03   -0.22205E-03 36485   0.921E-02    0.376E-01
RMM:   8    -0.868522905735E+03    0.71568E-03   -0.67924E-04 32898   0.732E-02    0.679E-02
RMM:   9    -0.868522894594E+03    0.11141E-04   -0.24675E-04 45266   0.204E-02    0.348E-02
RMM:  10    -0.868522899300E+03   -0.47064E-05   -0.80661E-05 44767   0.117E-02    0.449E-02
RMM:  11    -0.868522889723E+03    0.95780E-05   -0.18643E-05 35680   0.839E-03    0.155E-02
RMM:  12    -0.868522890018E+03   -0.29561E-06   -0.12081E-05 34645   0.459E-03    0.152E-02
RMM:  13    -0.868522889017E+03    0.10010E-05   -0.32973E-06 21880   0.453E-03    0.883E-03
RMM:  14    -0.868522888811E+03    0.20622E-06   -0.17493E-06 18701   0.359E-03
   6 F= -.86852289E+03 E0= -.86850591E+03  d E =-.857505E-02
       N       E                     dE             d eps       ncg     rms          rms(c)
DAV:   1    -0.868527146322E+03   -0.42573E-02   -0.98477E-01 33392   0.140E+00    0.147E-01
RMM:   2    -0.868537930221E+03   -0.10784E-01   -0.26658E-02 34489   0.415E-01    0.140E+00
RMM:   3    -0.868528367302E+03    0.95629E-02   -0.54626E-03 32896   0.211E-01    0.165E-01
RMM:   4    -0.868528176024E+03    0.19128E-03   -0.18208E-03 45485   0.605E-02    0.115E-01
RMM:   5    -0.868528141170E+03    0.34853E-04   -0.72101E-04 41948   0.404E-02    0.181E-01
RMM:   6    -0.868527960786E+03    0.18038E-03   -0.42194E-04 33312   0.482E-02    0.836E-02
RMM:   7    -0.868528218643E+03   -0.25786E-03   -0.10165E-03 36690   0.622E-02    0.240E-01
RMM:   8    -0.868527918296E+03    0.30035E-03   -0.29250E-04 32896   0.477E-02    0.565E-02
RMM:   9    -0.868527907533E+03    0.10762E-04   -0.11986E-04 42761   0.153E-02    0.253E-02
RMM:  10    -0.868527915106E+03   -0.75723E-05   -0.53877E-05 44077   0.104E-02    0.439E-02
RMM:  11    -0.868527905634E+03    0.94715E-05   -0.14638E-05 33807   0.855E-03    0.114E-02
RMM:  12    -0.868527905977E+03   -0.34319E-06   -0.86163E-06 30866   0.388E-03
   7 F= -.86852791E+03 E0= -.86851105E+03  d E =-.501717E-02
       N       E                     dE             d eps       ncg     rms          rms(c)
DAV:   1    -0.868529280065E+03   -0.13744E-02   -0.15380E-01 34192   0.555E-01    0.679E-02
RMM:   2    -0.868532064611E+03   -0.27845E-02   -0.62008E-03 35566   0.183E-01    0.715E-01
RMM:   3    -0.868529480387E+03    0.25842E-02   -0.13220E-03 32896   0.104E-01    0.784E-02
RMM:   4    -0.868529427639E+03    0.52748E-04   -0.46507E-04 43138   0.292E-02    0.493E-02
RMM:   5    -0.868529421956E+03    0.56828E-05   -0.17666E-04 44907   0.167E-02    0.684E-02
RMM:   6    -0.868529401210E+03    0.20746E-04   -0.76324E-05 34482   0.192E-02    0.386E-02
RMM:   7    -0.868529437581E+03   -0.36372E-04   -0.16206E-04 38319   0.232E-02    0.960E-02
RMM:   8    -0.868529390467E+03    0.47114E-04   -0.43166E-05 32896   0.180E-02    0.243E-02
RMM:   9    -0.868529389005E+03    0.14622E-05   -0.22813E-05 38489   0.729E-03    0.146E-02
RMM:  10    -0.868529389919E+03   -0.91392E-06   -0.82213E-06 30399   0.481E-03
   8 F= -.86852939E+03 E0= -.86851257E+03  d E =-.148394E-02
