 108 108   0   0
  0.1022088E+02  0.1033485E-08  0.1033485E-08  0.1033485E-08  0.5000000E-15
  1.000000000000000E-004
  CAR 
 Opt                                     
     10.11904639     -3.73647461  301      7.15835801      1.00000000
     -3.736  0.0000E+00  0.0000E+00
     -3.690  0.0000E+00  0.0000E+00
     -3.644  0.0000E+00  0.0000E+00
     -3.598  0.0000E+00  0.0000E+00
     -3.552  0.0000E+00  0.0000E+00
     -3.506  0.0000E+00  0.0000E+00
     -3.459  0.0000E+00  0.0000E+00
     -3.413  0.0000E+00  0.0000E+00
     -3.367 -0.1698E-29 -0.7840E-31
     -3.321 -0.6582E-28 -0.3118E-29
     -3.275 -0.2344E-26 -0.1114E-27
     -3.228 -0.7495E-25 -0.3573E-26
     -3.182 -0.2151E-23 -0.1029E-24
     -3.136 -0.5541E-22 -0.2662E-23
     -3.090 -0.1281E-20 -0.6182E-22
     -3.044 -0.2657E-19 -0.1289E-20
     -2.998 -0.4944E-18 -0.2412E-19
     -2.951 -0.8253E-17 -0.4053E-18
     -2.905 -0.1205E-15 -0.5973E-17
     -2.859 -0.1604E-14 -0.8007E-16
     -2.813 -0.1927E-13 -0.9702E-15
     -2.767 -0.2071E-12 -0.1054E-13
     -2.720 -0.1993E-11 -0.1026E-12
     -2.674 -0.1717E-10 -0.8956E-12
     -2.628 -0.1323E-09 -0.7005E-11
     -2.582 -0.9109E-09 -0.4907E-10
     -2.536 -0.5602E-08 -0.3078E-09
     -2.489 -0.3074E-07 -0.1728E-08
     -2.443 -0.1503E-06 -0.8669E-08
     -2.397 -0.6538E-06 -0.3887E-07
     -2.351 -0.2525E-05 -0.1555E-06
     -2.305 -0.8636E-05 -0.5543E-06
     -2.259 -0.2606E-04 -0.1758E-05
     -2.212 -0.6901E-04 -0.4945E-05
     -2.166 -0.1592E-03 -0.1230E-04
     -2.120 -0.3161E-03 -0.2690E-04
     -2.074 -0.5287E-03 -0.5132E-04
     -2.028 -0.7111E-03 -0.8416E-04
     -1.981 -0.6709E-03 -0.1151E-03
     -1.935 -0.1374E-03 -0.1215E-03
     -1.889  0.1134E-02 -0.6912E-04
     -1.843  0.3245E-02  0.8073E-04
     -1.797  0.6151E-02  0.3648E-03
     -1.751  0.9802E-02  0.8175E-03
     -1.704  0.1426E-01  0.1476E-02
     -1.658  0.1955E-01  0.2379E-02
     -1.612  0.2537E-01  0.3551E-02
     -1.566  0.3085E-01  0.4975E-02
     -1.520  0.3502E-01  0.6593E-02
     -1.473  0.3736E-01  0.8318E-02
     -1.427  0.3821E-01  0.1008E-01
     -1.381  0.3840E-01  0.1186E-01
     -1.335  0.3880E-01  0.1365E-01
     -1.289  0.3995E-01  0.1549E-01
     -1.242  0.4217E-01  0.1744E-01
     -1.196  0.4561E-01  0.1955E-01
     -1.150  0.5031E-01  0.2187E-01
     -1.104  0.5612E-01  0.2446E-01
     -1.058  0.6255E-01  0.2735E-01
     -1.012  0.6843E-01  0.3051E-01
     -0.965  0.7188E-01  0.3383E-01
     -0.919  0.7120E-01  0.3712E-01
     -0.873  0.6606E-01  0.4017E-01
     -0.827  0.5832E-01  0.4287E-01
     -0.781  0.5130E-01  0.4523E-01
     -0.734  0.4823E-01  0.4746E-01
     -0.688  0.5090E-01  0.4981E-01
     -0.642  0.5914E-01  0.5254E-01
     -0.596  0.7140E-01  0.5584E-01
     -0.550  0.8546E-01  0.5979E-01
     -0.504  0.9893E-01  0.6436E-01
     -0.457  0.1090E+00  0.6939E-01
     -0.411  0.1128E+00  0.7460E-01
     -0.365  0.1082E+00  0.7960E-01
     -0.319  0.9586E-01  0.8402E-01
     -0.273  0.7990E-01  0.8771E-01
     -0.226  0.6637E-01  0.9078E-01
     -0.180  0.6055E-01  0.9358E-01
     -0.134  0.6452E-01  0.9656E-01
     -0.088  0.7667E-01  0.1001E+00
     -0.042  0.9294E-01  0.1044E+00
      0.005  0.1087E+00  0.1094E+00
      0.051  0.1201E+00  0.1150E+00
      0.097  0.1251E+00  0.1207E+00
      0.143  0.1238E+00  0.1265E+00
      0.189  0.1182E+00  0.1319E+00
      0.235  0.1122E+00  0.1371E+00
      0.282  0.1093E+00  0.1421E+00
      0.328  0.1111E+00  0.1473E+00
      0.374  0.1169E+00  0.1527E+00
      0.420  0.1243E+00  0.1584E+00
      0.466  0.1310E+00  0.1645E+00
      0.513  0.1358E+00  0.1707E+00
      0.559  0.1387E+00  0.1771E+00
      0.605  0.1397E+00  0.1836E+00
      0.651  0.1387E+00  0.1900E+00
      0.697  0.1355E+00  0.1963E+00
      0.743  0.1302E+00  0.2023E+00
      0.790  0.1240E+00  0.2080E+00
      0.836  0.1199E+00  0.2135E+00
      0.882  0.1220E+00  0.2192E+00
      0.928  0.1335E+00  0.2253E+00
      0.974  0.1545E+00  0.2325E+00
      1.021  0.1802E+00  0.2408E+00
      1.067  0.2025E+00  0.2501E+00
      1.113  0.2147E+00  0.2601E+00
      1.159  0.2151E+00  0.2700E+00
      1.205  0.2075E+00  0.2796E+00
      1.252  0.1980E+00  0.2887E+00
      1.298  0.1902E+00  0.2975E+00
      1.344  0.1836E+00  0.3060E+00
      1.390  0.1759E+00  0.3141E+00
      1.436  0.1676E+00  0.3219E+00
      1.482  0.1641E+00  0.3294E+00
      1.529  0.1728E+00  0.3374E+00
      1.575  0.1985E+00  0.3466E+00
      1.621  0.2391E+00  0.3576E+00
      1.667  0.2846E+00  0.3708E+00
      1.713  0.3212E+00  0.3856E+00
      1.760  0.3373E+00  0.4012E+00
      1.806  0.3305E+00  0.4164E+00
      1.852  0.3102E+00  0.4308E+00
      1.898  0.2963E+00  0.4445E+00
      1.944  0.3107E+00  0.4588E+00
      1.990  0.3678E+00  0.4758E+00
      2.037  0.4678E+00  0.4974E+00
      2.083  0.5962E+00  0.5249E+00
      2.129  0.7308E+00  0.5587E+00
      2.175  0.8513E+00  0.5980E+00
      2.221  0.9464E+00  0.6417E+00
      2.268  0.1014E+01  0.6885E+00
      2.314  0.1057E+01  0.7374E+00
      2.360  0.1076E+01  0.7870E+00
      2.406  0.1070E+01  0.8365E+00
      2.452  0.1045E+01  0.8847E+00
      2.499  0.1012E+01  0.9315E+00
      2.545  0.9885E+00  0.9771E+00
      2.591  0.9921E+00  0.1023E+01
      2.637  0.1028E+01  0.1070E+01
      2.683  0.1085E+01  0.1121E+01
      2.729  0.1148E+01  0.1174E+01
      2.776  0.1204E+01  0.1229E+01
      2.822  0.1251E+01  0.1287E+01
      2.868  0.1296E+01  0.1347E+01
      2.914  0.1343E+01  0.1409E+01
      2.960  0.1388E+01  0.1473E+01
      3.007  0.1425E+01  0.1539E+01
      3.053  0.1456E+01  0.1606E+01
      3.099  0.1492E+01  0.1675E+01
      3.145  0.1543E+01  0.1746E+01
      3.191  0.1608E+01  0.1820E+01
      3.237  0.1665E+01  0.1897E+01
      3.284  0.1691E+01  0.1975E+01
      3.330  0.1676E+01  0.2053E+01
      3.376  0.1628E+01  0.2128E+01
      3.422  0.1571E+01  0.2201E+01
      3.468  0.1522E+01  0.2271E+01
      3.515  0.1487E+01  0.2339E+01
      3.561  0.1459E+01  0.2407E+01
      3.607  0.1438E+01  0.2473E+01
      3.653  0.1428E+01  0.2539E+01
      3.699  0.1434E+01  0.2605E+01
      3.746  0.1454E+01  0.2673E+01
      3.792  0.1472E+01  0.2741E+01
      3.838  0.1470E+01  0.2808E+01
      3.884  0.1440E+01  0.2875E+01
      3.930  0.1386E+01  0.2939E+01
      3.976  0.1327E+01  0.3000E+01
      4.023  0.1283E+01  0.3060E+01
      4.069  0.1268E+01  0.3118E+01
      4.115  0.1276E+01  0.3177E+01
      4.161  0.1291E+01  0.3237E+01
      4.207  0.1288E+01  0.3296E+01
      4.254  0.1259E+01  0.3354E+01
      4.300  0.1213E+01  0.3410E+01
      4.346  0.1178E+01  0.3465E+01
      4.392  0.1179E+01  0.3519E+01
      4.438  0.1222E+01  0.3576E+01
      4.484  0.1291E+01  0.3635E+01
      4.531  0.1365E+01  0.3698E+01
      4.577  0.1436E+01  0.3765E+01
      4.623  0.1510E+01  0.3834E+01
      4.669  0.1598E+01  0.3908E+01
      4.715  0.1696E+01  0.3986E+01
      4.762  0.1779E+01  0.4069E+01
      4.808  0.1819E+01  0.4153E+01
      4.854  0.1802E+01  0.4236E+01
      4.900  0.1738E+01  0.4316E+01
      4.946  0.1658E+01  0.4393E+01
      4.993  0.1600E+01  0.4467E+01
      5.039  0.1599E+01  0.4540E+01
      5.085  0.1669E+01  0.4618E+01
      5.131  0.1801E+01  0.4701E+01
      5.177  0.1964E+01  0.4791E+01
      5.223  0.2114E+01  0.4889E+01
      5.270  0.2215E+01  0.4991E+01
      5.316  0.2254E+01  0.5095E+01
      5.362  0.2239E+01  0.5199E+01
      5.408  0.2198E+01  0.5300E+01
      5.454  0.2159E+01  0.5400E+01
      5.501  0.2142E+01  0.5499E+01
      5.547  0.2161E+01  0.5599E+01
      5.593  0.2219E+01  0.5701E+01
      5.639  0.2313E+01  0.5808E+01
      5.685  0.2426E+01  0.5920E+01
      5.731  0.2528E+01  0.6037E+01
      5.778  0.2576E+01  0.6156E+01
      5.824  0.2537E+01  0.6273E+01
      5.870  0.2405E+01  0.6384E+01
      5.916  0.2206E+01  0.6486E+01
      5.962  0.1991E+01  0.6578E+01
      6.009  0.1808E+01  0.6661E+01
      6.055  0.1682E+01  0.6739E+01
      6.101  0.1604E+01  0.6813E+01
      6.147  0.1547E+01  0.6885E+01
      6.193  0.1488E+01  0.6953E+01
      6.240  0.1420E+01  0.7019E+01
      6.286  0.1358E+01  0.7082E+01
      6.332  0.1327E+01  0.7143E+01
      6.378  0.1345E+01  0.7205E+01
      6.424  0.1412E+01  0.7270E+01
      6.470  0.1511E+01  0.7340E+01
      6.517  0.1616E+01  0.7415E+01
      6.563  0.1704E+01  0.7493E+01
      6.609  0.1767E+01  0.7575E+01
      6.655  0.1816E+01  0.7659E+01
      6.701  0.1866E+01  0.7745E+01
      6.748  0.1927E+01  0.7834E+01
      6.794  0.1989E+01  0.7926E+01
      6.840  0.2028E+01  0.8020E+01
      6.886  0.2027E+01  0.8113E+01
      6.932  0.1992E+01  0.8205E+01
      6.978  0.1947E+01  0.8295E+01
      7.025  0.1921E+01  0.8384E+01
      7.071  0.1921E+01  0.8473E+01
      7.117  0.1924E+01  0.8561E+01
      7.163  0.1897E+01  0.8649E+01
      7.209  0.1823E+01  0.8733E+01
      7.256  0.1718E+01  0.8813E+01
      7.302  0.1620E+01  0.8887E+01
      7.348  0.1568E+01  0.8960E+01
      7.394  0.1576E+01  0.9033E+01
      7.440  0.1624E+01  0.9108E+01
      7.486  0.1681E+01  0.9185E+01
      7.533  0.1722E+01  0.9265E+01
      7.579  0.1742E+01  0.9345E+01
      7.625  0.1752E+01  0.9426E+01
      7.671  0.1766E+01  0.9508E+01
      7.717  0.1792E+01  0.9591E+01
      7.764  0.1837E+01  0.9675E+01
      7.810  0.1902E+01  0.9763E+01
      7.856  0.1978E+01  0.9855E+01
      7.902  0.2039E+01  0.9949E+01
      7.948  0.2046E+01  0.1004E+02
      7.995  0.1955E+01  0.1013E+02
      8.041  0.1739E+01  0.1021E+02
      8.087  0.1409E+01  0.1028E+02
      8.133  0.1013E+01  0.1033E+02
      8.179  0.6215E+00  0.1035E+02
      8.225  0.2989E+00  0.1037E+02
      8.272  0.8081E-01  0.1037E+02
      8.318 -0.3334E-01  0.1037E+02
      8.364 -0.7027E-01  0.1037E+02
      8.410 -0.6465E-01  0.1036E+02
      8.456 -0.4439E-01  0.1036E+02
      8.503 -0.2516E-01  0.1036E+02
      8.549 -0.1221E-01  0.1036E+02
      8.595 -0.5164E-02  0.1036E+02
      8.641 -0.1922E-02  0.1036E+02
      8.687 -0.6331E-03  0.1036E+02
      8.733 -0.1854E-03  0.1036E+02
      8.780 -0.4837E-04  0.1036E+02
      8.826 -0.1127E-04  0.1036E+02
      8.872 -0.2347E-05  0.1036E+02
      8.918 -0.4378E-06  0.1036E+02
      8.964 -0.7315E-07  0.1036E+02
      9.011 -0.1096E-07  0.1036E+02
      9.057 -0.1474E-08  0.1036E+02
      9.103 -0.1778E-09  0.1036E+02
      9.149 -0.1927E-10  0.1036E+02
      9.195 -0.1876E-11  0.1036E+02
      9.242 -0.1641E-12  0.1036E+02
      9.288 -0.1288E-13  0.1036E+02
      9.334 -0.8894E-15  0.1036E+02
      9.380 -0.3606E-16  0.1036E+02
      9.426  0.0000E+00  0.1036E+02
      9.472  0.0000E+00  0.1036E+02
      9.519  0.0000E+00  0.1036E+02
      9.565  0.0000E+00  0.1036E+02
      9.611  0.0000E+00  0.1036E+02
      9.657  0.0000E+00  0.1036E+02
      9.703  0.0000E+00  0.1036E+02
      9.750  0.0000E+00  0.1036E+02
      9.796  0.0000E+00  0.1036E+02
      9.842  0.0000E+00  0.1036E+02
      9.888  0.0000E+00  0.1036E+02
      9.934  0.0000E+00  0.1036E+02
      9.980  0.0000E+00  0.1036E+02
     10.027  0.0000E+00  0.1036E+02
     10.073  0.0000E+00  0.1036E+02
     10.119  0.0000E+00  0.1036E+02
