  108  108  100    1
  0.1022088E+02  0.1033485E-08  0.1033485E-08  0.1033485E-08  0.5000000E-15
  1.000000000000000E-004
  CAR 
 Opt                                     
    864      4    518
 
  0.1250000E+00  0.1250000E+00  0.1250000E+00  0.1250000E+00
    1       -1.736475   1.000000
    2       -0.575711   1.000000
    3       -0.575711   1.000000
    4       -0.575711   1.000000
    5        0.120787   1.000000
    6        0.120787   1.000000
    7        0.120787   1.000000
    8        0.460904   1.000000
    9        0.460904   1.000000
   10        0.460904   1.000000
   11        1.076824   1.000000
   12        1.076824   1.000000
   13        1.076824   1.000000
   14        1.076824   1.000000
   15        1.076824   1.000000
   16        1.076824   1.000000
   17        1.166891   1.000000
   18        1.555505   1.000000
   19        1.555505   1.000000
   20        1.555505   1.000000
   21        1.632594   1.000000
   22        1.632594   1.000000
   23        1.632594   1.000000
   24        1.811628   1.000000
   25        1.811629   1.000000
   26        1.811629   1.000000
   27        1.930877   1.000000
   28        2.012213   1.000000
   29        2.012213   1.000000
   30        2.012213   1.000000
   31        2.035077   1.000000
   32        2.035077   1.000000
   33        2.035079   1.000000
   34        2.178916   1.000000
   35        2.178916   1.000000
   36        2.178916   1.000000
   37        2.543858   1.000000
   38        2.543858   1.000000
   39        2.543858   1.000000
   40        2.677499   1.000000
   41        2.677499   1.000000
   42        2.677499   1.000000
   43        2.677499   1.000000
   44        2.677499   1.000000
   45        2.677499   1.000000
   46        2.695012   1.000000
   47        2.695012   1.000000
   48        2.695012   1.000000
   49        2.695013   1.000000
   50        2.695013   1.000000
   51        2.695014   1.000000
   52        2.697198   1.000000
   53        2.697198   1.000000
   54        2.697198   1.000000
   55        2.795050   1.000000
   56        2.795050   1.000000
   57        2.795050   1.000000
   58        2.795050   1.000000
   59        2.795050   1.000000
   60        2.795050   1.000000
   61        2.799901   1.000000
   62        2.799901   1.000000
   63        2.799901   1.000000
   64        2.834760   1.000000
   65        2.834760   1.000000
   66        2.834760   1.000000
   67        2.938495   1.000000
   68        2.938495   1.000000
   69        2.938495   1.000000
   70        2.938495   1.000000
   71        2.938495   1.000000
   72        2.938495   1.000000
   73        2.971336   1.000000
   74        2.971336   1.000000
   75        2.971336   1.000000
   76        2.971337   1.000000
   77        2.971337   1.000000
   78        2.971337   1.000000
   79        2.974160   1.000000
   80        2.974160   1.000000
   81        2.974161   1.000000
   82        3.000125   1.000000
   83        3.000125   1.000000
   84        3.000125   1.000000
   85        3.000127   1.000000
   86        3.000127   1.000000
   87        3.000127   1.000000
   88        3.184557   1.000000
   89        3.184557   1.000000
   90        3.184557   1.000000
   91        3.184557   1.000000
   92        3.184557   1.000000
   93        3.184557   1.000000
   94        3.235902   1.000000
   95        3.235902   1.000000
   96        3.235902   1.000000
   97        3.256459   1.000000
   98        3.256459   1.000000
   99        3.256459   1.000000
  100        3.323499   1.000000
  101        3.323499   1.000000
  102        3.323499   1.000000
  103        3.323499   1.000000
  104        3.323499   1.000000
  105        3.323499   1.000000
  106        3.359195   1.000000
  107        3.359195   1.000000
  108        3.359195   1.000000
  109        3.359196   1.000000
  110        3.359196   1.000000
  111        3.359196   1.000000
  112        3.523612   1.000000
  113        3.523612   1.000000
  114        3.523612   1.000000
  115        3.523615   1.000000
  116        3.523615   1.000000
  117        3.523615   1.000000
  118        3.537276   1.000000
  119        3.537276   1.000000
  120        3.537276   1.000000
  121        3.657880   1.000000
  122        3.657881   1.000000
  123        3.657881   1.000000
  124        3.667647   1.000000
  125        3.667647   1.000000
  126        3.667648   1.000000
  127        3.696246   1.000000
  128        3.696246   1.000000
  129        3.696246   1.000000
  130        3.696246   1.000000
  131        3.696246   1.000000
  132        3.696246   1.000000
  133        3.729255   1.000000
  134        3.729255   1.000000
  135        3.729255   1.000000
  136        3.729255   1.000000
  137        3.729255   1.000000
  138        3.729255   1.000000
  139        3.794938   1.000000
  140        3.794938   1.000000
  141        3.794938   1.000000
  142        3.794940   1.000000
  143        3.794940   1.000000
  144        3.794941   1.000000
  145        3.903981   1.000000
  146        3.903981   1.000000
  147        3.903981   1.000000
  148        3.903981   1.000000
  149        3.903981   1.000000
  150        3.903981   1.000000
  151        3.948077   1.000000
  152        3.948077   1.000000
  153        3.948077   1.000000
  154        3.971668   1.000000
  155        3.971668   1.000000
  156        3.971668   1.000000
  157        3.971668   1.000000
  158        3.971668   1.000000
  159        3.971668   1.000000
  160        4.131156   1.000000
  161        4.131156   1.000000
  162        4.131156   1.000000
  163        4.131157   1.000000
  164        4.131157   1.000000
  165        4.131157   1.000000
  166        4.150088   1.000000
  167        4.150088   1.000000
  168        4.150089   1.000000
  169        4.347115   1.000000
  170        4.347115   1.000000
  171        4.347115   1.000000
  172        4.347116   1.000000
  173        4.347116   1.000000
  174        4.347116   1.000000
  175        4.497957   1.000000
  176        4.497957   1.000000
  177        4.497957   1.000000
  178        4.512664   1.000000
  179        4.512664   1.000000
  180        4.512664   1.000000
  181        4.547855   1.000000
  182        4.547855   1.000000
  183        4.547855   1.000000
  184        4.563713   1.000000
  185        4.563713   1.000000
  186        4.563713   1.000000
  187        4.563714   1.000000
  188        4.563714   1.000000
  189        4.563714   1.000000
  190        4.569655   1.000000
  191        4.569655   1.000000
  192        4.569655   1.000000
  193        4.703549   1.000000
  194        4.703549   1.000000
  195        4.703549   1.000000
  196        4.703550   1.000000
  197        4.703550   1.000000
  198        4.703550   1.000000
  199        4.722804   1.000000
  200        4.722804   1.000000
  201        4.722804   1.000000
  202        4.730379   1.000000
  203        4.730379   1.000000
  204        4.730379   1.000000
  205        4.730381   1.000000
  206        4.730381   1.000000
  207        4.730381   1.000000
  208        4.755152   1.000000
  209        4.755152   1.000000
  210        4.755152   1.000000
  211        4.755153   1.000000
  212        4.755153   1.000000
  213        4.755153   1.000000
  214        4.864576   1.000000
  215        4.864576   1.000000
  216        4.864576   1.000000
  217        4.889814   1.000000
  218        4.889814   1.000000
  219        4.889814   1.000000
  220        4.918176   1.000000
  221        4.918176   1.000000
  222        4.918176   1.000000
  223        5.016918   1.000000
  224        5.095452   1.000000
  225        5.095452   1.000000
  226        5.095452   1.000000
  227        5.095453   1.000000
  228        5.095453   1.000000
  229        5.095453   1.000000
  230        5.106114   1.000000
  231        5.106114   1.000000
  232        5.106115   1.000000
  233        5.106115   1.000000
  234        5.106115   1.000000
  235        5.106115   1.000000
  236        5.124071   1.000000
  237        5.124071   1.000000
  238        5.124072   1.000000
  239        5.262675   1.000000
  240        5.262675   1.000000
  241        5.262676   1.000000
  242        5.262677   1.000000
  243        5.262677   1.000000
  244        5.262677   1.000000
  245        5.356698   1.000000
  246        5.356698   1.000000
  247        5.356698   1.000000
  248        5.362287   1.000000
  249        5.362287   1.000000
  250        5.362287   1.000000
  251        5.362288   1.000000
  252        5.362288   1.000000
  253        5.362288   1.000000
  254        5.362869   1.000000
  255        5.362871   1.000000
  256        5.362871   1.000000
  257        5.411484   1.000000
  258        5.411484   1.000000
  259        5.411485   1.000000
  260        5.423718   1.000000
  261        5.424675   1.000000
  262        5.424675   1.000000
  263        5.424675   1.000000
  264        5.424676   1.000000
  265        5.424676   1.000000
  266        5.424676   1.000000
  267        5.446225   1.000000
  268        5.446225   1.000000
  269        5.446225   1.000000
  270        5.465836   1.000000
  271        5.465836   1.000000
  272        5.465836   1.000000
  273        5.476497   1.000000
  274        5.476497   1.000000
  275        5.492684   1.000000
  276        5.492684   1.000000
  277        5.528812   1.000000
  278        5.528814   1.000000
  279        5.528814   1.000000
  280        5.533248   1.000000
  281        5.533248   1.000000
  282        5.533248   1.000000
  283        5.533248   1.000000
  284        5.533249   1.000000
  285        5.533249   1.000000
  286        5.573247   1.000000
  287        5.573247   1.000000
  288        5.573435   1.000000
  289        5.573509   1.000000
  290        5.573697   1.000000
  291        5.573697   1.000000
  292        5.595435   1.000000
  293        5.595435   1.000000
  294        5.595435   1.000000
  295        5.595435   1.000000
  296        5.595435   1.000000
  297        5.595435   1.000000
  298        5.643841   1.000000
  299        5.643841   1.000000
  300        5.643841   1.000000
  301        5.657418   1.000000
  302        5.657418   1.000000
  303        5.657419   1.000000
  304        5.674710   1.000000
  305        5.674710   1.000000
  306        5.713644   1.000000
  307        5.713644   1.000000
  308        5.713644   1.000000
  309        5.715418   1.000000
  310        5.715418   1.000000
  311        5.715420   1.000000
  312        5.897222   1.000000
  313        5.897223   1.000000
  314        5.897223   1.000000
  315        5.897257   1.000000
  316        5.897257   1.000000
  317        5.897257   1.000000
  318        5.900180   1.000000
  319        5.904128   1.000000
  320        5.904128   1.000000
  321        5.904128   1.000000
  322        5.904131   1.000000
  323        5.904131   1.000000
  324        5.904131   1.000000
  325        5.906600   1.000000
  326        5.906600   1.000000
  327        5.906600   1.000000
  328        5.931790   1.000000
  329        5.931790   1.000000
  330        5.931790   1.000000
  331        6.051388   1.000000
  332        6.051388   1.000000
  333        6.051388   1.000000
  334        6.055373   1.000000
  335        6.055373   1.000000
  336        6.055373   1.000000
  337        6.070203   1.000000
  338        6.070203   1.000000
  339        6.070203   1.000000
  340        6.070204   1.000000
  341        6.070204   1.000000
  342        6.070204   1.000000
  343        6.081740   1.000000
  344        6.081740   1.000000
  345        6.081740   1.000000
  346        6.133779   1.000000
  347        6.133779   1.000000
  348        6.133780   1.000000
  349        6.133781   1.000000
  350        6.133781   1.000000
  351        6.133781   1.000000
  352        6.181691   1.000000
  353        6.181691   1.000000
  354        6.181691   1.000000
  355        6.218431   1.000000
  356        6.218431   1.000000
  357        6.218431   1.000000
  358        6.218433   1.000000
  359        6.218433   1.000000
  360        6.218433   1.000000
  361        6.249486   1.000000
  362        6.249486   1.000000
  363        6.249486   1.000000
  364        6.299896   1.000000
  365        6.299896   1.000000
  366        6.299898   1.000000
  367        6.437095   1.000002
  368        6.437095   1.000002
  369        6.437095   1.000002
  370        6.440319   1.000002
  371        6.440319   1.000002
  372        6.440320   1.000002
  373        6.575228   1.000149
  374        6.575228   1.000149
  375        6.575228   1.000149
  376        6.575601   1.000150
  377        6.575601   1.000150
  378        6.575601   1.000150
  379        6.576035   1.000152
  380        6.576035   1.000152
  381        6.576035   1.000152
  382        6.578694   1.000163
  383        6.578694   1.000163
  384        6.578694   1.000163
  385        6.581798   1.000177
  386        6.581798   1.000177
  387        6.581798   1.000177
  388        6.667355   1.001412
  389        6.667356   1.001412
  390        6.667356   1.001412
  391        6.772168   1.009929
  392        6.772168   1.009929
  393        6.772168   1.009929
  394        6.772169   1.009929
  395        6.772169   1.009929
  396        6.772169   1.009929
  397        6.842656   1.024060
  398        6.842656   1.024060
  399        6.842656   1.024061
  400        6.842657   1.024061
  401        6.842657   1.024061
  402        6.842657   1.024061
  403        6.976738   1.012775
  404        6.976738   1.012775
  405        6.976738   1.012775
  406        6.976738   1.012775
  407        6.976738   1.012775
  408        6.976738   1.012775
  409        6.994911   0.994327
  410        6.994911   0.994327
  411        6.994911   0.994327
  412        6.994912   0.994326
  413        6.994912   0.994326
  414        6.994912   0.994326
  415        7.038216   0.920332
  416        7.038216   0.920332
  417        7.038220   0.920324
  418        7.080972   0.801854
  419        7.080973   0.801851
  420        7.080973   0.801851
  421        7.088714   0.775814
  422        7.088714   0.775814
  423        7.166455   0.465768
  424        7.166455   0.465768
  425        7.166455   0.465768
  426        7.166457   0.465760
  427        7.166457   0.465760
  428        7.166457   0.465760
  429        7.240867   0.181639
  430        7.240867   0.181639
  431        7.240867   0.181638
  432        7.240868   0.181635
  433        7.240868   0.181635
  434        7.240868   0.181635
  435        7.249165   0.156182
  436        7.249166   0.156180
  437        7.249166   0.156180
  438        7.294313   0.047386
  439        7.294313   0.047386
  440        7.294313   0.047386
  441        7.404386  -0.035453
  442        7.404386  -0.035453
  443        7.404387  -0.035453
  444        7.404388  -0.035453
  445        7.404388  -0.035453
  446        7.404388  -0.035453
  447        7.420679  -0.034428
  448        7.420679  -0.034428
  449        7.420914  -0.034401
  450        7.420914  -0.034401
  451        7.420914  -0.034401
  452        7.447548  -0.029979
  453        7.447548  -0.029979
  454        7.447548  -0.029979
  455        7.447549  -0.029979
  456        7.447549  -0.029979
  457        7.447549  -0.029979
  458        7.468272  -0.025398
  459        7.468272  -0.025398
  460        7.468272  -0.025398
  461        7.468273  -0.025398
  462        7.468273  -0.025398
  463        7.468274  -0.025398
  464        7.522880  -0.013577
  465        7.522880  -0.013577
  466        7.522881  -0.013577
  467        7.524102  -0.013352
  468        7.524102  -0.013352
  469        7.524102  -0.013352
  470        7.590439  -0.004603
  471        7.590441  -0.004603
  472        7.590441  -0.004603
  473        7.612958  -0.003004
  474        7.612958  -0.003004
  475        7.612958  -0.003004
  476        7.644172  -0.001580
  477        7.644172  -0.001580
  478        7.644172  -0.001580
  479        7.645641  -0.001531
  480        7.645642  -0.001531
  481        7.645642  -0.001531
  482        7.708355  -0.000353
  483        7.708355  -0.000353
  484        7.708355  -0.000353
  485        7.749455  -0.000120
  486        7.749455  -0.000120
  487        7.749455  -0.000120
  488        7.749456  -0.000120
  489        7.749456  -0.000120
  490        7.749459  -0.000120
  491        7.785909  -0.000042
  492        7.785909  -0.000042
  493        7.785910  -0.000042
  494        7.785912  -0.000042
  495        7.785913  -0.000042
  496        7.785917  -0.000042
  497        7.845001  -0.000007
  498        7.845001  -0.000007
  499        7.845003  -0.000007
  500        7.845011  -0.000007
  501        7.845036  -0.000007
  502        7.845057  -0.000007
  503        7.868585  -0.000003
  504        7.868666  -0.000003
  505        7.873835  -0.000003
  506        7.873922  -0.000003
  507        7.874406  -0.000003
  508        7.964382  -0.000000
  509        7.964483  -0.000000
  510        7.964659  -0.000000
  511        7.966321  -0.000000
  512        7.967266  -0.000000
  513        7.969583  -0.000000
  514        7.971732  -0.000000
  515        7.971889  -0.000000
  516        7.972783  -0.000000
  517        7.979491  -0.000000
  518        7.984409  -0.000000
 
  0.3750000E+00  0.1250000E+00  0.1250000E+00  0.3750000E+00
    1       -1.534829   1.000000
    2       -1.140856   1.000000
    3       -0.394515   1.000000
    4       -0.394515   1.000000
    5       -0.041916   1.000000
    6       -0.041916   1.000000
    7        0.289527   1.000000
    8        0.289527   1.000000
    9        0.589394   1.000000
   10        0.616110   1.000000
   11        0.616110   1.000000
   12        0.833105   1.000000
   13        0.875387   1.000000
   14        1.166910   1.000000
   15        1.166910   1.000000
   16        1.333683   1.000000
   17        1.333683   1.000000
   18        1.559540   1.000000
   19        1.664637   1.000000
   20        1.724752   1.000000
   21        1.744740   1.000000
   22        1.744740   1.000000
   23        1.962476   1.000000
   24        2.087464   1.000000
   25        2.088260   1.000000
   26        2.088300   1.000000
   27        2.089656   1.000000
   28        2.156673   1.000000
   29        2.156673   1.000000
   30        2.160535   1.000000
   31        2.160536   1.000000
   32        2.161028   1.000000
   33        2.226274   1.000000
   34        2.226274   1.000000
   35        2.295223   1.000000
   36        2.318566   1.000000
   37        2.318566   1.000000
   38        2.351954   1.000000
   39        2.364781   1.000000
   40        2.364781   1.000000
   41        2.378423   1.000000
   42        2.378425   1.000000
   43        2.392594   1.000000
   44        2.392595   1.000000
   45        2.430136   1.000000
   46        2.430136   1.000000
   47        2.475020   1.000000
   48        2.475020   1.000000
   49        2.583823   1.000000
   50        2.583823   1.000000
   51        2.686059   1.000000
   52        2.686059   1.000000
   53        2.736379   1.000000
   54        2.736379   1.000000
   55        2.738284   1.000000
   56        2.738284   1.000000
   57        2.768466   1.000000
   58        2.768466   1.000000
   59        2.773915   1.000000
   60        2.773915   1.000000
   61        2.778781   1.000000
   62        2.778781   1.000000
   63        2.795826   1.000000
   64        2.795826   1.000000
   65        2.854303   1.000000
   66        2.854303   1.000000
   67        2.878244   1.000000
   68        2.878244   1.000000
   69        2.878926   1.000000
   70        2.895755   1.000000
   71        2.895755   1.000000
   72        2.955302   1.000000
   73        2.955302   1.000000
   74        2.968632   1.000000
   75        2.968633   1.000000
   76        2.970883   1.000000
   77        2.970884   1.000000
   78        2.983340   1.000000
   79        2.983340   1.000000
   80        3.033482   1.000000
   81        3.044888   1.000000
   82        3.044888   1.000000
   83        3.079288   1.000000
   84        3.079288   1.000000
   85        3.090043   1.000000
   86        3.090043   1.000000
   87        3.104169   1.000000
   88        3.104169   1.000000
   89        3.127246   1.000000
   90        3.127246   1.000000
   91        3.149573   1.000000
   92        3.159189   1.000000
   93        3.201016   1.000000
   94        3.201018   1.000000
   95        3.230083   1.000000
   96        3.230083   1.000000
   97        3.239072   1.000000
   98        3.244160   1.000000
   99        3.244160   1.000000
  100        3.260429   1.000000
  101        3.260429   1.000000
  102        3.295695   1.000000
  103        3.295696   1.000000
  104        3.328608   1.000000
  105        3.328608   1.000000
  106        3.408861   1.000000
  107        3.408861   1.000000
  108        3.417303   1.000000
  109        3.417303   1.000000
  110        3.448339   1.000000
  111        3.448356   1.000000
  112        3.453162   1.000000
  113        3.477952   1.000000
  114        3.477952   1.000000
  115        3.504045   1.000000
  116        3.504045   1.000000
  117        3.511058   1.000000
  118        3.511058   1.000000
  119        3.531542   1.000000
  120        3.531542   1.000000
  121        3.595119   1.000000
  122        3.595120   1.000000
  123        3.650628   1.000000
  124        3.650628   1.000000
  125        3.666549   1.000000
  126        3.666549   1.000000
  127        3.707170   1.000000
  128        3.719427   1.000000
  129        3.719427   1.000000
  130        3.726627   1.000000
  131        3.726628   1.000000
  132        3.741459   1.000000
  133        3.741459   1.000000
  134        3.768665   1.000000
  135        3.768665   1.000000
  136        3.772464   1.000000
  137        3.772465   1.000000
  138        3.819173   1.000000
  139        3.819173   1.000000
  140        3.848666   1.000000
  141        3.848666   1.000000
  142        3.849573   1.000000
  143        3.849574   1.000000
  144        3.850113   1.000000
  145        3.850113   1.000000
  146        3.861088   1.000000
  147        3.871153   1.000000
  148        3.932928   1.000000
  149        3.932929   1.000000
  150        3.995672   1.000000
  151        3.995672   1.000000
  152        4.020780   1.000000
  153        4.020780   1.000000
  154        4.048432   1.000000
  155        4.048433   1.000000
  156        4.059249   1.000000
  157        4.129524   1.000000
  158        4.129524   1.000000
  159        4.130089   1.000000
  160        4.130089   1.000000
  161        4.147101   1.000000
  162        4.147102   1.000000
  163        4.162405   1.000000
  164        4.162405   1.000000
  165        4.181592   1.000000
  166        4.181592   1.000000
  167        4.201453   1.000000
  168        4.236037   1.000000
  169        4.236037   1.000000
  170        4.262507   1.000000
  171        4.262508   1.000000
  172        4.279315   1.000000
  173        4.286845   1.000000
  174        4.286845   1.000000
  175        4.328439   1.000000
  176        4.328440   1.000000
  177        4.356813   1.000000
  178        4.356813   1.000000
  179        4.416252   1.000000
  180        4.416252   1.000000
  181        4.452414   1.000000
  182        4.452416   1.000000
  183        4.462593   1.000000
  184        4.462594   1.000000
  185        4.473990   1.000000
  186        4.473990   1.000000
  187        4.502068   1.000000
  188        4.502068   1.000000
  189        4.555337   1.000000
  190        4.555337   1.000000
  191        4.569381   1.000000
  192        4.569381   1.000000
  193        4.657453   1.000000
  194        4.657456   1.000000
  195        4.666221   1.000000
  196        4.689046   1.000000
  197        4.689046   1.000000
  198        4.725464   1.000000
  199        4.725464   1.000000
  200        4.730567   1.000000
  201        4.730567   1.000000
  202        4.736937   1.000000
  203        4.736938   1.000000
  204        4.776528   1.000000
  205        4.776528   1.000000
  206        4.779203   1.000000
  207        4.818148   1.000000
  208        4.818148   1.000000
  209        4.849153   1.000000
  210        4.849153   1.000000
  211        4.852677   1.000000
  212        4.856508   1.000000
  213        4.856508   1.000000
  214        4.885953   1.000000
  215        4.899747   1.000000
  216        4.899748   1.000000
  217        4.926080   1.000000
  218        4.926080   1.000000
  219        4.933027   1.000000
  220        4.933027   1.000000
  221        4.970020   1.000000
  222        4.971703   1.000000
  223        4.971703   1.000000
  224        4.997285   1.000000
  225        4.997286   1.000000
  226        5.055954   1.000000
  227        5.055955   1.000000
  228        5.101581   1.000000
  229        5.109355   1.000000
  230        5.136144   1.000000
  231        5.146016   1.000000
  232        5.146016   1.000000
  233        5.166167   1.000000
  234        5.166167   1.000000
  235        5.169315   1.000000
  236        5.169315   1.000000
  237        5.179704   1.000000
  238        5.181972   1.000000
  239        5.181973   1.000000
  240        5.184212   1.000000
  241        5.184213   1.000000
  242        5.210998   1.000000
  243        5.210998   1.000000
  244        5.220439   1.000000
  245        5.220439   1.000000
  246        5.234265   1.000000
  247        5.234265   1.000000
  248        5.241886   1.000000
  249        5.241886   1.000000
  250        5.286606   1.000000
  251        5.286608   1.000000
  252        5.300426   1.000000
  253        5.300427   1.000000
  254        5.322819   1.000000
  255        5.322820   1.000000
  256        5.323802   1.000000
  257        5.323804   1.000000
  258        5.332448   1.000000
  259        5.340283   1.000000
  260        5.340286   1.000000
  261        5.373946   1.000000
  262        5.374561   1.000000
  263        5.383733   1.000000
  264        5.385664   1.000000
  265        5.385664   1.000000
  266        5.393697   1.000000
  267        5.436850   1.000000
  268        5.440765   1.000000
  269        5.475482   1.000000
  270        5.488185   1.000000
  271        5.499785   1.000000
  272        5.499787   1.000000
  273        5.515702   1.000000
  274        5.533277   1.000000
  275        5.533277   1.000000
  276        5.546304   1.000000
  277        5.551923   1.000000
  278        5.570879   1.000000
  279        5.573512   1.000000
  280        5.573512   1.000000
  281        5.578139   1.000000
  282        5.578141   1.000000
  283        5.596754   1.000000
  284        5.596754   1.000000
  285        5.601307   1.000000
  286        5.601308   1.000000
  287        5.603489   1.000000
  288        5.603489   1.000000
  289        5.619649   1.000000
  290        5.619651   1.000000
  291        5.625137   1.000000
  292        5.625138   1.000000
  293        5.694694   1.000000
  294        5.697667   1.000000
  295        5.705479   1.000000
  296        5.706061   1.000000
  297        5.706061   1.000000
  298        5.716110   1.000000
  299        5.727330   1.000000
  300        5.731245   1.000000
  301        5.731245   1.000000
  302        5.733772   1.000000
  303        5.733772   1.000000
  304        5.736016   1.000000
  305        5.752054   1.000000
  306        5.763611   1.000000
  307        5.763611   1.000000
  308        5.773419   1.000000
  309        5.773419   1.000000
  310        5.776903   1.000000
  311        5.776903   1.000000
  312        5.784290   1.000000
  313        5.784291   1.000000
  314        5.820984   1.000000
  315        5.820984   1.000000
  316        5.832511   1.000000
  317        5.832511   1.000000
  318        5.844026   1.000000
  319        5.844026   1.000000
  320        5.849241   1.000000
  321        5.849241   1.000000
  322        5.858808   1.000000
  323        5.880093   1.000000
  324        5.880093   1.000000
  325        5.895964   1.000000
  326        5.897181   1.000000
  327        5.897181   1.000000
  328        5.911258   1.000000
  329        5.911258   1.000000
  330        5.949667   1.000000
  331        5.949667   1.000000
  332        5.969799   1.000000
  333        5.969800   1.000000
  334        5.970448   1.000000
  335        5.977713   1.000000
  336        5.977721   1.000000
  337        6.014905   1.000000
  338        6.014906   1.000000
  339        6.037262   1.000000
  340        6.037264   1.000000
  341        6.042331   1.000000
  342        6.081853   1.000000
  343        6.110044   1.000000
  344        6.159001   1.000000
  345        6.159001   1.000000
  346        6.162698   1.000000
  347        6.162698   1.000000
  348        6.169821   1.000000
  349        6.169821   1.000000
  350        6.173853   1.000000
  351        6.182078   1.000000
  352        6.182078   1.000000
  353        6.190930   1.000000
  354        6.288333   1.000000
  355        6.288333   1.000000
  356        6.326226   1.000000
  357        6.326226   1.000000
  358        6.398306   1.000001
  359        6.398307   1.000001
  360        6.406061   1.000001
  361        6.406061   1.000001
  362        6.421840   1.000001
  363        6.421840   1.000001
  364        6.460722   1.000005
  365        6.470199   1.000006
  366        6.470199   1.000006
  367        6.476017   1.000008
  368        6.476018   1.000008
  369        6.508664   1.000022
  370        6.518488   1.000029
  371        6.518488   1.000029
  372        6.553048   1.000080
  373        6.553049   1.000080
  374        6.553518   1.000082
  375        6.553519   1.000082
  376        6.578850   1.000164
  377        6.596425   1.000260
  378        6.596425   1.000260
  379        6.605985   1.000332
  380        6.605985   1.000332
  381        6.607193   1.000343