 running on    8 total cores
 distrk:  each k-point on    8 cores,    1 groups
 distr:  one band on    4 cores,    2 groups
 using from now: INCAR     
 vasp.5.4.4.18Apr17-6-g9f103f2a35 (build Aug 17 2017 06:00:38) complex          
  
 POSCAR found type information on POSCAR  Fe
 POSCAR found :  1 types and     108 ions
 scaLAPACK will be used
 LDA part: xc-table for Pade appr. of Perdew
 POSCAR, INCAR and KPOINTS ok, starting setup
 FFT: planning ...
 WAVECAR not read
 entering main loop
       N       E                     dE             d eps       ncg     rms          rms(c)
DAV:   1     0.518150957128E+04    0.51815E+04   -0.21864E+05  4168   0.118E+03
DAV:   2    -0.395284068247E+03   -0.55768E+04   -0.53690E+04  4144   0.354E+02
DAV:   3    -0.976462946666E+03   -0.58118E+03   -0.52827E+03  5398   0.121E+02
DAV:   4    -0.104112907276E+04   -0.64666E+02   -0.59047E+02  6640   0.376E+01
DAV:   5    -0.104646469220E+04   -0.53356E+01   -0.48482E+01  6152   0.964E+00    0.941E+01
RMM:   6    -0.876390225569E+03    0.17007E+03   -0.13784E+03  4146   0.912E+01    0.742E+00
RMM:   7    -0.877228021580E+03   -0.83780E+00   -0.84326E+01  4490   0.172E+01    0.315E+00
RMM:   8    -0.876835467679E+03    0.39255E+00   -0.96965E+00  4440   0.681E+00    0.102E+01
RMM:   9    -0.876345945125E+03    0.48952E+00   -0.24816E+00  4893   0.240E+00    0.266E+00
RMM:  10    -0.876154000574E+03    0.19194E+00   -0.12226E+00  5268   0.122E+00    0.820E-01
RMM:  11    -0.876162430307E+03   -0.84297E-02   -0.11375E-01  5609   0.301E-01    0.618E-01
RMM:  12    -0.876156655364E+03    0.57749E-02   -0.37861E-02  4469   0.440E-01    0.133E-01
RMM:  13    -0.876157135937E+03   -0.48057E-03   -0.87941E-03  5419   0.737E-02    0.528E-02
RMM:  14    -0.876157196760E+03   -0.60823E-04   -0.49653E-04  5168   0.340E-02    0.155E-02
RMM:  15    -0.876157169165E+03    0.27595E-04    0.50984E-05  4817   0.212E-02    0.100E-02
RMM:  16    -0.876157165480E+03    0.36846E-05    0.11190E-04  5214   0.901E-03    0.432E-03
RMM:  17    -0.876157150708E+03    0.14772E-04    0.14775E-04  3728   0.195E-03    0.217E-03
RMM:  18    -0.876157136831E+03    0.13877E-04    0.94614E-05  2674   0.137E-03    0.184E-03
RMM:  19    -0.876157129340E+03    0.74910E-05    0.80752E-05  2609   0.152E-03    0.349E-04
RMM:  20    -0.876157122205E+03    0.71358E-05    0.73726E-05  2514   0.102E-03    0.657E-04
RMM:  21    -0.876157115522E+03    0.66830E-05    0.65594E-05  2473   0.983E-04    0.523E-05
RMM:  22    -0.876157109328E+03    0.61937E-05    0.61405E-05  2119   0.665E-04    0.394E-04
RMM:  23    -0.876157103626E+03    0.57023E-05    0.55529E-05  1960   0.599E-04    0.678E-05
RMM:  24    -0.876157098322E+03    0.53037E-05    0.52125E-05  1414   0.430E-04    0.156E-04
RMM:  25    -0.876157093461E+03    0.48605E-05    0.47313E-05  1257   0.414E-04    0.105E-04
RMM:  26    -0.876157088924E+03    0.45369E-05    0.44256E-05  1151   0.393E-04    0.188E-04
RMM:  27    -0.876157084802E+03    0.41220E-05    0.40183E-05  1054   0.374E-04    0.155E-04
RMM:  28    -0.876157080994E+03    0.38089E-05    0.37396E-05   974   0.364E-04    0.213E-04
RMM:  29    -0.876157077540E+03    0.34536E-05    0.33922E-05   996   0.334E-04    0.136E-04
RMM:  30    -0.876157074330E+03    0.32097E-05    0.31411E-05   861   0.308E-04    0.155E-04
RMM:  31    -0.876157071427E+03    0.29029E-05    0.28460E-05   789   0.299E-04    0.138E-04
RMM:  32    -0.876157068781E+03    0.26461E-05    0.26229E-05   849   0.275E-04    0.118E-04
RMM:  33    -0.876157066361E+03    0.24205E-05    0.23736E-05   758   0.259E-04    0.965E-05
RMM:  34    -0.876157064137E+03    0.22236E-05    0.21788E-05   715   0.243E-04    0.853E-05
RMM:  35    -0.876157062132E+03    0.20054E-05    0.19692E-05   686   0.232E-04    0.647E-05
RMM:  36    -0.876157060302E+03    0.18300E-05    0.18016E-05   619   0.222E-04    0.637E-05
RMM:  37    -0.876157058651E+03    0.16503E-05    0.16264E-05   614   0.222E-04    0.433E-05
RMM:  38    -0.876157057148E+03    0.15038E-05    0.14839E-05   599   0.221E-04    0.360E-05
RMM:  39    -0.876157055789E+03    0.13590E-05    0.13379E-05   577   0.222E-04    0.300E-05
RMM:  40    -0.876157054552E+03    0.12362E-05    0.12183E-05   561   0.225E-04    0.248E-05
RMM:  41    -0.876157053439E+03    0.11133E-05    0.10971E-05   549   0.228E-04    0.195E-05
RMM:  42    -0.876157052428E+03    0.10107E-05    0.99767E-06   527   0.229E-04    0.188E-05
RMM:  43    -0.876157051520E+03    0.90808E-06    0.89741E-06   525   0.230E-04
   1 F= -.87615705E+03 E0= -.87612944E+03  d E =-.876157E+03
 curvature:   0.00 expect dE= 0.000E+00 dE for cont linesearch  0.000E+00
 trial: gam= 0.00000 g(F)=  0.176E-37 g(S)=  0.120E+02 ort = 0.000E+00 (trialstep = 0.100E+01)
 search vector abs. value=  0.120E+02
 bond charge predicted
       N       E                     dE             d eps       ncg     rms          rms(c)
DAV:   1    -0.978515459441E+03   -0.10236E+03   -0.31185E+03  4310   0.151E+02    0.791E+01
RMM:   2    -0.868070375371E+03    0.11045E+03   -0.72137E+02  4148   0.707E+01    0.124E+01
RMM:   3    -0.865883310645E+03    0.21871E+01   -0.48545E+01  4369   0.111E+01    0.684E+00
RMM:   4    -0.864916286330E+03    0.96702E+00   -0.19629E+01  4144   0.133E+01    0.653E+00
RMM:   5    -0.864808549847E+03    0.10774E+00   -0.45631E+00  4164   0.511E+00    0.963E+00
RMM:   6    -0.864278458614E+03    0.53009E+00   -0.24973E+00  4178   0.361E+00    0.165E+00
RMM:   7    -0.864267178746E+03    0.11280E-01   -0.29017E-01  5083   0.687E-01    0.137E+00
RMM:   8    -0.864242469449E+03    0.24709E-01   -0.61354E-02  4152   0.641E-01    0.640E-01
RMM:   9    -0.864236898171E+03    0.55713E-02   -0.55505E-02  4178   0.518E-01    0.188E-02
RMM:  10    -0.864237575303E+03   -0.67713E-03   -0.63253E-03  4742   0.690E-02    0.779E-02
RMM:  11    -0.864237558536E+03    0.16766E-04   -0.33207E-04  4245   0.421E-02    0.303E-02
RMM:  12    -0.864237577481E+03   -0.18944E-04   -0.26156E-04  4199   0.368E-02    0.163E-02
RMM:  13    -0.864237560515E+03    0.16966E-04   -0.51129E-05  4363   0.155E-02    0.236E-03
RMM:  14    -0.864237561203E+03   -0.68848E-06   -0.90105E-06  3280   0.210E-03
   2 F= -.86423756E+03 E0= -.86418066E+03  d E =0.119195E+02
 trial-energy change:   11.919490  1 .order   11.991419  -12.010751   35.993589
 step:   0.2519(harm=  0.2502)  dis= 0.00000  next Energy=  -877.670928 (dE=-0.151E+01)
 bond charge predicted
       N       E                     dE             d eps       ncg     rms          rms(c)
DAV:   1    -0.945149068706E+03   -0.80912E+02   -0.18824E+03  4380   0.122E+02    0.611E+01
RMM:   2    -0.880826402457E+03    0.64323E+02   -0.50974E+02  4176   0.500E+01    0.754E+00
RMM:   3    -0.879201206680E+03    0.16252E+01   -0.26326E+01  4365   0.616E+00    0.545E+00
RMM:   4    -0.879348960275E+03   -0.14775E+00   -0.31918E+01  4145   0.151E+01    0.858E+00
RMM:   5    -0.878037222885E+03    0.13117E+01   -0.74261E+00  4144   0.720E+00    0.772E+00
RMM:   6    -0.877813700025E+03    0.22352E+00   -0.22003E+00  4221   0.292E+00    0.195E+00
RMM:   7    -0.877760668426E+03    0.53032E-01   -0.19228E-01  4369   0.849E-01    0.128E+00
RMM:   8    -0.877739336349E+03    0.21332E-01   -0.62190E-02  4198   0.553E-01    0.691E-01
RMM:   9    -0.877732805824E+03    0.65305E-02   -0.67122E-02  4178   0.553E-01    0.631E-02
RMM:  10    -0.877733839422E+03   -0.10336E-02   -0.10496E-02  5114   0.920E-02    0.139E-01
RMM:  11    -0.877733817136E+03    0.22286E-04   -0.46903E-04  5221   0.284E-02    0.138E-01
RMM:  12    -0.877733575145E+03    0.24199E-03   -0.47383E-04  4160   0.522E-02    0.620E-02
RMM:  13    -0.877733534297E+03    0.40847E-04   -0.85970E-04  4204   0.603E-02    0.343E-02
RMM:  14    -0.877733537090E+03   -0.27928E-05   -0.78922E-05  4624   0.142E-02    0.242E-02
RMM:  15    -0.877733538399E+03   -0.13090E-05   -0.39073E-05  4142   0.148E-02    0.837E-03
RMM:  16    -0.877733541165E+03   -0.27658E-05   -0.73630E-06  3412   0.384E-03    0.230E-03
RMM:  17    -0.877733539809E+03    0.13559E-05   -0.98788E-07  2259   0.230E-03    0.631E-04
RMM:  18    -0.877733539907E+03   -0.97752E-07   -0.37243E-07  2163   0.144E-03
   3 F= -.87773354E+03 E0= -.87769962E+03  d E =-.157649E+01
 curvature:  -0.13 expect dE=-0.165E-02 dE for cont linesearch -0.165E-02
 ZBRENT: interpolating
 opt :   0.2601  next Energy=  -877.735173 (dE=-0.158E+01)
 bond charge predicted
       N       E                     dE             d eps       ncg     rms          rms(c)
DAV:   1    -0.877743396335E+03   -0.98565E-02   -0.21875E-01  4658   0.126E+00    0.682E-01
RMM:   2    -0.877735645224E+03    0.77511E-02   -0.64442E-02  4157   0.584E-01    0.873E-02
RMM:   3    -0.877735488758E+03    0.15647E-03   -0.38000E-03  4441   0.942E-02    0.585E-02
RMM:   4    -0.877735487393E+03    0.13641E-05   -0.21562E-03  4144   0.124E-01    0.140E-01
RMM:   5    -0.877735419459E+03    0.67934E-04   -0.22020E-04  4206   0.322E-02    0.723E-02
RMM:   6    -0.877735337440E+03    0.82020E-04   -0.79296E-04  4156   0.663E-02    0.105E-02
RMM:   7    -0.877735337151E+03    0.28877E-06   -0.60229E-05  4052   0.714E-03    0.158E-02
RMM:   8    -0.877735320199E+03    0.16952E-04   -0.31650E-05  4085   0.143E-02    0.176E-03
RMM:   9    -0.877735319044E+03    0.11548E-05   -0.13199E-06  2323   0.129E-03    0.480E-04
RMM:  10    -0.877735319148E+03   -0.10443E-06   -0.35005E-07  2194   0.124E-03
   4 F= -.87773532E+03 E0= -.87770118E+03  d E =-.157827E+01
 curvature:  -0.12 expect dE=-0.105E-04 dE for cont linesearch -0.105E-04
 trial: gam=-0.00266 g(F)=  0.357E-37 g(S)=  0.854E-04 ort = 0.320E-01 (trialstep = 0.852E+00)
 search vector abs. value=  0.707E-09
 reached required accuracy - stopping structural energy minimisation
