 vasp.5.4.4.18Apr17-6-g9f103f2a35 (build Aug 17 2017 06:00:38) complex          
  
 executed on             LinuxIFC date 2019.07.12  14:57:57
 running on    8 total cores
 distrk:  each k-point on    8 cores,    1 groups
 distr:  one band on NCORES_PER_BAND=   4 cores,    2 groups


--------------------------------------------------------------------------------------------------------


 INCAR:
 POTCAR:   PAW_PBE Fe 06Sep2000                   
 POTCAR:   PAW_PBE Fe 06Sep2000                   
   VRHFIN =Fe:  d7 s1                                                           
   LEXCH  = PE                                                                  
   EATOM  =   594.4687 eV,   43.6922 Ry                                         
                                                                                
   TITEL  = PAW_PBE Fe 06Sep2000                                                
   LULTRA =        F    use ultrasoft PP ?                                      
   IUNSCR =        1    unscreen: 0-lin 1-nonlin 2-no                           
   RPACOR =    2.000    partial core radius                                     
   POMASS =   55.847; ZVAL   =    8.000    mass and valenz                      
   RCORE  =    2.300    outmost cutoff radius                                   
   RWIGS  =    2.460; RWIGS  =    1.302    wigner-seitz radius (au A)           
   ENMAX  =  267.883; ENMIN  =  200.912 eV                                      
   RCLOC  =    1.701    cutoff for local pot                                    
   LCOR   =        T    correct aug charges                                     
   LPAW   =        T    paw PP                                                  
   EAUG   =  511.368                                                            
   DEXC   =    -.022                                                            
   RMAX   =    2.817    core radius for proj-oper                               
   RAUG   =    1.300    factor for augmentation sphere                          
   RDEP   =    2.442    radius for radial grids                                 
   QCUT   =   -4.437; QGAM   =    8.874    optimization parameters              
                                                                                
   Description                                                                  
     l     E      TYP  RCUT    TYP  RCUT                                        
     2   .000     23  2.300                                                     
     2   .000     23  2.300                                                     
     0   .000     23  2.300                                                     
     0   .000     23  2.300                                                     
     1  -.200     23  2.300                                                     
     1   .000     23  2.300                                                     
     3   .000      7   .000                                                     
  local pseudopotential read in
  partial core-charges read in
  atomic valenz-charges read in
  non local Contribution for L=           2  read in
    real space projection operators read in
  non local Contribution for L=           2  read in
    real space projection operators read in
  non local Contribution for L=           0  read in
    real space projection operators read in
  non local Contribution for L=           0  read in
    real space projection operators read in
  non local Contribution for L=           1  read in
    real space projection operators read in
  non local Contribution for L=           1  read in
    real space projection operators read in
    PAW grid and wavefunctions read in
 
   number of l-projection  operators is LMAX  =           6
   number of lm-projection operators is LMMAX =          18
 
 Optimization of the real space projectors (new method)

 maximal supplied QI-value         = 16.25
 optimisation between [QCUT,QGAM] = [  7.96, 16.09] = [ 17.76, 72.49] Ry 
 Optimized for a Real-space Cutoff    1.75 Angstroem

   l    n(q)    QCUT    max X(q) W(low)/X(q) W(high)/X(q)  e(spline) 
   2      7     7.963     4.378    0.52E-04    0.70E-04    0.65E-07
   2      7     7.963    23.237    0.46E-03    0.58E-03    0.12E-06
   0      8     7.963    17.641    0.20E-04    0.12E-04    0.61E-08
   0      8     7.963    50.908    0.58E-04    0.13E-03    0.45E-07
   1      8     7.963     6.148    0.40E-04    0.14E-04    0.22E-07
   1      8     7.963     8.345    0.25E-03    0.20E-03    0.16E-06
 PAW_PBE Fe 06Sep2000                   :
 energy of atom  1       EATOM= -594.4687
 kinetic energy error for atom=    0.0658 (will be added to EATOM!!)
 
 
 POSCAR: fcc_Fe_CON_333                          
  positions in direct lattice
  velocities in cartesian coordinates
 exchange correlation table for  LEXCH =        8
   RHO(1)=    0.500       N(1)  =     2000
   RHO(2)=  100.500       N(2)  =     4000
 


--------------------------------------------------------------------------------------------------------


 ion  position               nearest neighbor table
   1  0.000  0.000  0.000-   2 2.44   3 2.44   4 2.44  11 2.44  12 2.44  26 2.44  28 2.44  74 2.44
                            75 2.44  36 2.44  83 2.44  98 2.44
   2  0.000  0.167  0.167-  49 2.44  37 2.44  13 2.44  40 2.44  15 2.44  48 2.44  23 2.44   3 2.44
                             4 2.44   1 2.44  12 2.44  11 2.44
   3  0.167  0.000  0.167-  41 2.44  37 2.44   5 2.44  40 2.44   6 2.44  30 2.44  64 2.44   2 2.44
                             4 2.44   1 2.44  28 2.44  26 2.44
   4  0.167  0.167  0.000-  17 2.44  13 2.44   5 2.44  15 2.44   6 2.44  78 2.44  87 2.44   2 2.44
                             3 2.44   1 2.44  74 2.44  75 2.44
   5  0.333  0.000  0.000-   3 2.44   4 2.44  28 2.44  75 2.44   6 2.44   7 2.44   8 2.44  30 2.44
                            78 2.44  32 2.44  79 2.44 102 2.44
   6  0.333  0.167  0.167-  15 2.44  40 2.44  53 2.44  17 2.44  19 2.44   4 2.44  41 2.44  44 2.44
                             3 2.44   7 2.44   8 2.44   5 2.44
   7  0.500  0.000  0.167-  41 2.44  44 2.44  45 2.44  68 2.44   6 2.44   5 2.44   8 2.44  10 2.44
                            30 2.44   9 2.44  32 2.44  34 2.44
   8  0.500  0.167  0.000-  17 2.44  19 2.44  21 2.44  91 2.44   6 2.44   5 2.44   7 2.44  78 2.44
                            10 2.44  79 2.44   9 2.44  82 2.44
   9  0.667  0.000  0.000-  11 2.44  12 2.44  36 2.44  83 2.44  10 2.44  82 2.44  34 2.44   8 2.44
                             7 2.44 106 2.44  79 2.44  32 2.44
  10  0.667  0.167  0.167-  23 2.44  48 2.44  57 2.44  12 2.44  11 2.44  21 2.44  45 2.44  44 2.44
                            19 2.44   9 2.44   7 2.44   8 2.44
  11  0.833  0.000  0.167-  45 2.44   9 2.44  10 2.44  34 2.44  48 2.44  37 2.44  72 2.44  12 2.44
                             2 2.44  36 2.44   1 2.44  26 2.44
  12  0.833  0.167  0.000-  21 2.44   9 2.44  10 2.44  82 2.44  23 2.44  13 2.44  95 2.44  11 2.44
                             1 2.44  83 2.44   2 2.44  74 2.44
  13  0.000  0.333  0.000-   2 2.44   4 2.44  12 2.44  74 2.44  15 2.44  16 2.44  14 2.44  23 2.44
                            87 2.44  86 2.44  24 2.44  95 2.44
  14  0.000  0.500  0.167-  49 2.44  52 2.44  60 2.44  61 2.44  15 2.44  13 2.44  16 2.44  23 2.44
                            27 2.44  25 2.44  24 2.44  35 2.44
  15  0.167  0.333  0.167-   6 2.44  40 2.44  53 2.44  17 2.44  18 2.44   4 2.44  49 2.44  52 2.44
                             2 2.44  13 2.44  14 2.44  16 2.44
  16  0.167  0.500  0.000-  17 2.44  18 2.44  29 2.44  90 2.44  15 2.44  14 2.44  13 2.44  87 2.44
                            27 2.44  25 2.44  86 2.44  99 2.44
  17  0.333  0.333  0.000-   4 2.44   8 2.44  16 2.44  15 2.44   6 2.44  78 2.44  87 2.44  20 2.44
                            18 2.44  19 2.44  90 2.44  91 2.44
  18  0.333  0.500  0.167-  52 2.44  16 2.44  56 2.44  53 2.44  15 2.44  27 2.44  65 2.44  20 2.44
                            17 2.44  19 2.44  29 2.44  31 2.44
  19  0.500  0.333  0.167-  44 2.44   8 2.44  56 2.44  53 2.44   6 2.44  10 2.44  57 2.44  18 2.44
                            20 2.44  17 2.44  21 2.44  22 2.44
  20  0.500  0.500  0.000-  17 2.44  18 2.44  19 2.44  21 2.44  22 2.44  29 2.44  31 2.44  90 2.44
                            91 2.44  33 2.44  94 2.44 103 2.44
  21  0.667  0.333  0.000-  12 2.44  24 2.44  23 2.44  95 2.44  10 2.44   8 2.44  82 2.44  22 2.44
                            20 2.44  94 2.44  19 2.44  91 2.44
  22  0.667  0.500  0.167-  60 2.44  24 2.44  23 2.44  35 2.44  57 2.44  56 2.44  69 2.44  21 2.44
                            33 2.44  20 2.44  19 2.44  31 2.44
  23  0.833  0.333  0.167-  10 2.44  57 2.44  48 2.44  21 2.44  22 2.44  12 2.44  60 2.44   2 2.44
                            49 2.44  24 2.44  14 2.44  13 2.44
  24  0.833  0.500  0.000-  21 2.44  22 2.44  33 2.44  94 2.44  23 2.44  35 2.44  95 2.44  14 2.44
                            13 2.44 107 2.44  86 2.44  25 2.44
  25  0.000  0.667  0.000-  26 2.44  28 2.44  36 2.44  98 2.44  27 2.44  35 2.44  99 2.44  16 2.44
                            14 2.44 107 2.44  86 2.44  24 2.44
  26  0.000  0.833  0.167-  61 2.44  25 2.44  27 2.44  35 2.44  64 2.44  37 2.44  72 2.44  28 2.44
                             3 2.44  36 2.44   1 2.44  11 2.44
  27  0.167  0.667  0.167-  30 2.44  64 2.44  65 2.44  28 2.44  26 2.44  29 2.44  61 2.44  52 2.44
                            18 2.44  25 2.44  14 2.44  16 2.44
  28  0.167  0.833  0.000-  29 2.44  25 2.44  27 2.44  99 2.44  30 2.44   5 2.44 102 2.44  26 2.44
                            98 2.44   1 2.44   3 2.44  75 2.44
  29  0.333  0.667  0.000-  28 2.44  32 2.44  30 2.44 102 2.44  27 2.44  16 2.44  99 2.44  31 2.44
                            20 2.44  18 2.44 103 2.44  90 2.44
  30  0.333  0.833  0.167-  27 2.44  65 2.44  64 2.44  29 2.44  31 2.44  28 2.44  68 2.44  41 2.44
                             3 2.44  32 2.44   7 2.44   5 2.44
  31  0.500  0.667  0.167-  68 2.44  32 2.44  30 2.44  34 2.44  65 2.44  56 2.44  69 2.44  29 2.44
                            33 2.44  20 2.44  18 2.44  22 2.44
  32  0.500  0.833  0.000-  29 2.44  31 2.44  33 2.44 103 2.44  30 2.44 102 2.44  34 2.44   7 2.44
                             5 2.44 106 2.44  79 2.44   9 2.44
  33  0.667  0.667  0.000-  36 2.44  35 2.44  34 2.44  32 2.44  24 2.44 106 2.44 107 2.44  22 2.44
                            31 2.44 103 2.44  20 2.44  94 2.44
  34  0.667  0.833  0.167-  35 2.44  69 2.44  72 2.44  33 2.44  36 2.44  31 2.44  11 2.44  45 2.44
                            68 2.44  32 2.44   9 2.44   7 2.44
  35  0.833  0.667  0.167-  34 2.44  69 2.44  72 2.44  33 2.44  36 2.44  26 2.44  22 2.44  60 2.44
                            61 2.44  24 2.44  25 2.44  14 2.44
  36  0.833  0.833  0.000-  33 2.44  34 2.44  35 2.44  25 2.44   9 2.44 106 2.44 107 2.44  26 2.44
                            11 2.44  98 2.44   1 2.44  83 2.44
  37  0.000  0.000  0.333-   2 2.44   3 2.44  11 2.44  26 2.44  40 2.44  39 2.44  38 2.44  48 2.44
                            64 2.44  62 2.44  47 2.44  72 2.44
  38  0.000  0.167  0.500-  49 2.44  51 2.44  59 2.44  85 2.44  40 2.44  39 2.44  37 2.44  76 2.44
                            48 2.44  47 2.44  73 2.44  84 2.44
  39  0.167  0.000  0.500-  41 2.44  42 2.44  66 2.44  77 2.44  40 2.44  38 2.44  37 2.44  76 2.44
                            64 2.44  62 2.44  73 2.44 100 2.44
  40  0.167  0.167  0.333-   6 2.44  15 2.44  53 2.44   3 2.44  41 2.44  42 2.44  49 2.44  51 2.44
                             2 2.44  39 2.44  37 2.44  38 2.44
  41  0.333  0.000  0.333-   3 2.44   7 2.44  39 2.44   6 2.44  40 2.44  30 2.44  64 2.44  43 2.44
                            44 2.44  42 2.44  66 2.44  68 2.44
  42  0.333  0.167  0.500-  51 2.44  39 2.44  55 2.44  53 2.44  40 2.44  76 2.44  89 2.44  44 2.44
                            41 2.44  43 2.44  80 2.44  77 2.44
  43  0.500  0.000  0.500-  41 2.44  42 2.44  44 2.44  45 2.44  46 2.44  66 2.44  68 2.44  77 2.44
                            80 2.44  70 2.44  81 2.44 104 2.44
  44  0.500  0.167  0.333-  19 2.44   7 2.44  55 2.44  53 2.44   6 2.44  10 2.44  57 2.44  41 2.44
                            42 2.44  43 2.44  46 2.44  45 2.44
  45  0.667  0.000  0.333-  11 2.44  47 2.44  48 2.44  72 2.44  10 2.44   7 2.44  34 2.44  46 2.44
                            43 2.44  70 2.44  44 2.44  68 2.44
  46  0.667  0.167  0.500-  59 2.44  47 2.44  48 2.44  84 2.44  57 2.44  55 2.44  93 2.44  45 2.44
                            81 2.44  43 2.44  44 2.44  80 2.44
  47  0.833  0.000  0.500-  45 2.44  46 2.44  70 2.44  81 2.44  48 2.44  72 2.44  84 2.44  38 2.44
                            37 2.44 108 2.44  73 2.44  62 2.44
  48  0.833  0.167  0.333-  10 2.44  57 2.44  23 2.44  46 2.44  45 2.44  11 2.44  59 2.44   2 2.44
                            49 2.44  47 2.44  37 2.44  38 2.44
  49  0.000  0.333  0.333-   2 2.44  14 2.44  38 2.44  15 2.44  40 2.44  23 2.44  48 2.44  50 2.44
                            51 2.44  52 2.44  59 2.44  60 2.44
  50  0.000  0.500  0.500-  49 2.44  51 2.44  52 2.44  59 2.44  60 2.44  61 2.44  63 2.44  85 2.44
                            88 2.44  71 2.44  96 2.44  97 2.44
  51  0.167  0.333  0.500-  42 2.44  38 2.44  54 2.44  53 2.44  40 2.44  76 2.44  89 2.44  50 2.44
                            52 2.44  49 2.44  88 2.44  85 2.44
  52  0.167  0.500  0.333-  18 2.44  14 2.44  54 2.44  53 2.44  15 2.44  27 2.44  65 2.44  49 2.44
                            50 2.44  51 2.44  63 2.44  61 2.44
  53  0.333  0.333  0.333-   6 2.44  15 2.44  40 2.44  19 2.44  18 2.44  42 2.44  44 2.44  51 2.44
                            52 2.44  54 2.44  55 2.44  56 2.44
  54  0.333  0.500  0.500-  51 2.44  52 2.44  63 2.44  88 2.44  53 2.44  55 2.44  56 2.44  65 2.44
                            89 2.44  67 2.44  92 2.44 101 2.44
  55  0.500  0.333  0.500-  42 2.44  44 2.44  46 2.44  80 2.44  53 2.44  56 2.44  54 2.44  57 2.44
                            89 2.44  58 2.44  92 2.44  93 2.44
  56  0.500  0.500  0.333-  18 2.44  19 2.44  22 2.44  31 2.44  53 2.44  54 2.44  55 2.44  57 2.44
                            65 2.44  58 2.44  67 2.44  69 2.44
  57  0.667  0.333  0.333-  23 2.44  48 2.44  10 2.44  59 2.44  60 2.44  46 2.44  22 2.44  19 2.44
                            44 2.44  58 2.44  56 2.44  55 2.44
  58  0.667  0.500  0.500-  59 2.44  60 2.44  71 2.44  96 2.44  57 2.44  93 2.44  69 2.44  56 2.44
                            55 2.44 105 2.44  92 2.44  67 2.44
  59  0.833  0.333  0.500-  46 2.44  58 2.44  57 2.44  93 2.44  48 2.44  38 2.44  84 2.44  60 2.44
                            50 2.44  49 2.44  96 2.44  85 2.44
  60  0.833  0.500  0.333-  22 2.44  58 2.44  57 2.44  69 2.44  23 2.44  14 2.44  35 2.44  59 2.44
                            49 2.44  50 2.44  71 2.44  61 2.44
  61  0.000  0.667  0.333-  26 2.44  62 2.44  64 2.44  72 2.44  27 2.44  14 2.44  35 2.44  63 2.44
                            50 2.44  71 2.44  52 2.44  60 2.44
  62  0.000  0.833  0.500-  61 2.44  63 2.44  71 2.44  97 2.44  64 2.44  72 2.44 100 2.44  39 2.44
                            37 2.44 108 2.44  73 2.44  47 2.44
  63  0.167  0.667  0.500-  66 2.44  62 2.44  64 2.44 100 2.44  65 2.44  54 2.44 101 2.44  61 2.44
                            97 2.44  50 2.44  52 2.44  88 2.44
  64  0.167  0.833  0.333-  27 2.44  65 2.44  30 2.44  63 2.44  61 2.44  26 2.44  66 2.44   3 2.44
                            41 2.44  62 2.44  37 2.44  39 2.44
  65  0.333  0.667  0.333-  30 2.44  64 2.44  27 2.44  66 2.44  68 2.44  63 2.44  31 2.44  18 2.44
                            52 2.44  67 2.44  56 2.44  54 2.44
  66  0.333  0.833  0.500-  63 2.44  67 2.44  65 2.44 101 2.44  64 2.44  39 2.44 100 2.44  68 2.44
                            43 2.44  41 2.44 104 2.44  77 2.44
  67  0.500  0.667  0.500-  66 2.44  68 2.44  70 2.44 104 2.44  65 2.44 101 2.44  69 2.44  56 2.44
                            54 2.44 105 2.44  92 2.44  58 2.44
  68  0.500  0.833  0.333-  31 2.44  67 2.44  65 2.44  69 2.44  30 2.44   7 2.44  34 2.44  66 2.44
                            41 2.44  43 2.44  70 2.44  45 2.44
  69  0.667  0.667  0.333-  72 2.44  35 2.44  34 2.44  71 2.44  70 2.44  68 2.44  60 2.44  31 2.44
                            22 2.44  58 2.44  67 2.44  56 2.44
  70  0.667  0.833  0.500-  71 2.44  69 2.44  72 2.44  67 2.44  47 2.44 105 2.44 108 2.44  68 2.44
                            45 2.44 104 2.44  43 2.44  81 2.44
  71  0.833  0.667  0.500-  70 2.44  69 2.44  72 2.44  62 2.44  58 2.44 105 2.44 108 2.44  60 2.44
                            61 2.44  97 2.44  50 2.44  96 2.44
  72  0.833  0.833  0.333-  69 2.44  35 2.44  34 2.44  70 2.44  71 2.44  61 2.44  45 2.44  26 2.44
                            11 2.44  62 2.44  47 2.44  37 2.44
  73  0.000  0.000  0.667-  74 2.44  75 2.44  83 2.44  98 2.44  76 2.44  84 2.44 100 2.44  39 2.44
                            38 2.44 108 2.44  47 2.44  62 2.44
  74  0.000  0.167  0.833-  85 2.44  73 2.44  76 2.44  84 2.44  87 2.44  13 2.44  95 2.44  75 2.44
                             4 2.44  83 2.44   1 2.44  12 2.44
  75  0.167  0.000  0.833-  77 2.44  73 2.44  76 2.44 100 2.44  78 2.44   5 2.44 102 2.44  74 2.44
                            98 2.44   1 2.44   4 2.44  28 2.44
  76  0.167  0.167  0.667-  78 2.44  87 2.44  89 2.44  75 2.44  74 2.44  77 2.44  85 2.44  51 2.44
                            42 2.44  73 2.44  38 2.44  39 2.44
  77  0.333  0.000  0.667-  75 2.44  79 2.44  78 2.44 102 2.44  76 2.44  39 2.44 100 2.44  80 2.44
                            43 2.44  42 2.44 104 2.44  66 2.44
  78  0.333  0.167  0.833-  76 2.44  89 2.44  87 2.44  77 2.44  80 2.44  75 2.44  91 2.44  17 2.44
                             4 2.44  79 2.44   8 2.44   5 2.44
  79  0.500  0.000  0.833-  77 2.44  80 2.44  81 2.44 104 2.44  78 2.44 102 2.44  82 2.44   8 2.44
                             5 2.44 106 2.44   9 2.44  32 2.44
  80  0.500  0.167  0.667-  91 2.44  79 2.44  78 2.44  82 2.44  89 2.44  55 2.44  93 2.44  77 2.44
                            43 2.44  81 2.44  42 2.44  46 2.44
  81  0.667  0.000  0.667-  83 2.44  82 2.44  84 2.44  79 2.44  47 2.44 106 2.44 108 2.44  80 2.44
                            46 2.44 104 2.44  70 2.44  43 2.44
  82  0.667  0.167  0.833-  84 2.44  93 2.44  95 2.44  83 2.44  81 2.44  80 2.44  12 2.44  21 2.44
                            91 2.44  79 2.44   9 2.44   8 2.44
  83  0.833  0.000  0.833-  81 2.44  82 2.44  84 2.44  73 2.44   9 2.44 106 2.44 108 2.44  74 2.44
                            12 2.44  98 2.44  36 2.44   1 2.44
  84  0.833  0.167  0.667-  82 2.44  93 2.44  95 2.44  81 2.44  83 2.44  74 2.44  46 2.44  59 2.44
                            85 2.44  73 2.44  47 2.44  38 2.44
  85  0.000  0.333  0.667-  74 2.44  86 2.44  87 2.44  95 2.44  76 2.44  38 2.44  84 2.44  88 2.44
                            51 2.44  50 2.44  96 2.44  59 2.44
  86  0.000  0.500  0.833-  85 2.44  88 2.44  96 2.44  97 2.44  87 2.44  95 2.44  99 2.44  16 2.44
                            13 2.44 107 2.44  24 2.44  25 2.44
  87  0.167  0.333  0.833-  76 2.44  89 2.44  78 2.44  88 2.44  85 2.44  74 2.44  90 2.44  17 2.44
                             4 2.44  86 2.44  16 2.44  13 2.44
  88  0.167  0.500  0.667-  90 2.44  86 2.44  87 2.44  99 2.44  89 2.44  54 2.44 101 2.44  85 2.44
                            97 2.44  50 2.44  51 2.44  63 2.44
  89  0.333  0.333  0.667-  78 2.44  87 2.44  76 2.44  90 2.44  91 2.44  80 2.44  88 2.44  51 2.44
                            42 2.44  92 2.44  54 2.44  55 2.44
  90  0.333  0.500  0.833-  88 2.44  92 2.44  89 2.44 101 2.44  87 2.44  16 2.44  99 2.44  91 2.44
                            20 2.44  17 2.44 103 2.44  29 2.44
  91  0.500  0.333  0.833-  80 2.44  92 2.44  89 2.44  93 2.44  78 2.44   8 2.44  82 2.44  90 2.44
                            20 2.44  17 2.44  94 2.44  21 2.44
  92  0.500  0.500  0.667-  90 2.44  91 2.44  94 2.44 103 2.44  89 2.44 101 2.44  93 2.44  55 2.44
                            54 2.44 105 2.44  58 2.44  67 2.44
  93  0.667  0.333  0.667-  95 2.44  84 2.44  82 2.44  94 2.44  96 2.44  91 2.44  59 2.44  46 2.44
                            80 2.44  92 2.44  58 2.44  55 2.44
  94  0.667  0.500  0.833-  96 2.44  95 2.44  93 2.44  92 2.44  24 2.44 105 2.44 107 2.44  21 2.44
                            91 2.44 103 2.44  33 2.44  20 2.44
  95  0.833  0.333  0.833-  93 2.44  84 2.44  82 2.44  94 2.44  96 2.44  85 2.44  21 2.44  12 2.44
                            74 2.44  86 2.44  24 2.44  13 2.44
  96  0.833  0.500  0.667-  94 2.44  93 2.44  95 2.44  86 2.44  58 2.44 105 2.44 107 2.44  59 2.44
                            85 2.44  97 2.44  71 2.44  50 2.44
  97  0.000  0.667  0.667-  98 2.44  99 2.44 100 2.44  86 2.44  62 2.44 107 2.44 108 2.44  88 2.44
                            63 2.44  96 2.44  50 2.44  71 2.44
  98  0.000  0.833  0.833-  97 2.44  99 2.44 100 2.44  73 2.44  25 2.44 107 2.44 108 2.44  75 2.44
                            28 2.44  83 2.44   1 2.44  36 2.44
  99  0.167  0.667  0.833- 100 2.44 101 2.44 102 2.44  98 2.44  97 2.44  88 2.44  28 2.44  90 2.44
                            29 2.44  86 2.44  25 2.44  16 2.44
 100  0.167  0.833  0.667-  99 2.44 101 2.44 102 2.44  98 2.44  97 2.44  75 2.44  63 2.44  77 2.44
                            66 2.44  73 2.44  62 2.44  39 2.44
 101  0.333  0.667  0.667- 102 2.44 100 2.44  99 2.44 103 2.44 104 2.44  90 2.44  66 2.44  63 2.44
                            88 2.44  92 2.44  67 2.44  54 2.44
 102  0.333  0.833  0.833- 101 2.44 100 2.44  99 2.44 103 2.44 104 2.44  77 2.44  29 2.44  28 2.44
                            75 2.44  79 2.44  32 2.44   5 2.44
 103  0.500  0.667  0.833- 104 2.44 102 2.44 101 2.44  92 2.44  32 2.44 105 2.44 106 2.44  29 2.44
                            90 2.44  94 2.44  20 2.44  33 2.44
 104  0.500  0.833  0.667- 103 2.44 102 2.44 101 2.44  79 2.44  67 2.44 105 2.44 106 2.44  66 2.44
                            77 2.44  81 2.44  43 2.44  70 2.44
 105  0.667  0.667  0.667- 106 2.44 107 2.44 108 2.44  96 2.44 103 2.44 104 2.44  70 2.44  71 2.44
                            94 2.44  67 2.44  92 2.44  58 2.44
 106  0.667  0.833  0.833- 105 2.44 107 2.44 108 2.44  83 2.44 103 2.44 104 2.44  33 2.44  36 2.44
                            81 2.44  32 2.44  79 2.44   9 2.44
 107  0.833  0.667  0.833- 105 2.44 106 2.44 108 2.44  96 2.44  97 2.44  98 2.44  33 2.44  36 2.44
                            94 2.44  25 2.44  86 2.44  24 2.44
 108  0.833  0.833  0.667- 105 2.44 106 2.44 107 2.44  83 2.44  97 2.44  98 2.44  70 2.44  71 2.44
                            81 2.44  62 2.44  73 2.44  47 2.44
 
  LATTYP: Found a simple cubic cell.
 ALAT       =    10.3348470474
  
  Lattice vectors:
  
 A1 = (  10.3348470474,   0.0000000000,   0.0000000000)
 A2 = (   0.0000000000,  10.3348470474,   0.0000000000)
 A3 = (   0.0000000000,   0.0000000000,  10.3348470474)


Analysis of symmetry for initial positions (statically):
=====================================================================
 Subroutine PRICEL returns following result:
 
  LATTYP: Found a simple cubic cell.
 ALAT       =     3.4449252899
  
  Lattice vectors:
  
 A1 = (   3.4449252899,   0.0000000000,   0.0000000000)
 A2 = (   0.0000000000,   3.4449252899,   0.0000000000)
 A3 = (   0.0000000000,   0.0000000000,   3.4449252443)
 
  27 primitive cells build up your supercell.
 

 Routine SETGRP: Setting up the symmetry group for a 
 simple cubic supercell.


 Subroutine GETGRP returns: Found 48 space group operations
 (whereof 48 operations were pure point group operations)
 out of a pool of 48 trial point group operations.


The static configuration has the point symmetry O_h .


Analysis of symmetry for dynamics (positions and initial velocities):
=====================================================================
 Subroutine PRICEL returns following result:
 
  LATTYP: Found a simple cubic cell.
 ALAT       =     3.4449252899
  
  Lattice vectors:
  
 A1 = (   3.4449252899,   0.0000000000,   0.0000000000)
 A2 = (   0.0000000000,   3.4449252899,   0.0000000000)
 A3 = (   0.0000000000,   0.0000000000,   3.4449252443)
 
  27 primitive cells build up your supercell.
 

 Routine SETGRP: Setting up the symmetry group for a 
 simple cubic supercell.


 Subroutine GETGRP returns: Found 48 space group operations
 (whereof 48 operations were pure point group operations)
 out of a pool of 48 trial point group operations.


The dynamic configuration has the point symmetry O_h .


 Subroutine INISYM returns: Found 48 space group operations
 (whereof 48 operations are pure point group operations),
 and found    27 'primitive' translations

 
 
 KPOINTS: pymatgen generated KPOINTS with grid den

Automatic generation of k-mesh.
Space group operators:
 irot       det(A)        alpha          n_x          n_y          n_z        tau_x        tau_y        tau_z
    1     1.000000     0.000000     1.000000     0.000000     0.000000     0.000000     0.000000     0.000000
    2    -1.000000     0.000000     1.000000     0.000000     0.000000     0.000000     0.000000     0.000000
    3     1.000000   120.000000    -0.577350    -0.577350    -0.577350     0.000000     0.000000     0.000000
    4    -1.000000   120.000000    -0.577350    -0.577350    -0.577350     0.000000     0.000000     0.000000
    5     1.000000   120.000000     0.577350     0.577350     0.577350     0.000000     0.000000     0.000000
    6    -1.000000   120.000000     0.577350     0.577350     0.577350     0.000000     0.000000     0.000000
    7     1.000000    90.000000     0.000000     0.000000    -1.000000     0.000000     0.000000     0.000000
    8    -1.000000    90.000000     0.000000     0.000000    -1.000000     0.000000     0.000000     0.000000
    9     1.000000   180.000000     0.000000     0.707107     0.707107     0.000000     0.000000     0.000000
   10    -1.000000   180.000000     0.000000     0.707107     0.707107     0.000000     0.000000     0.000000
   11     1.000000    90.000000     0.000000     1.000000     0.000000     0.000000     0.000000     0.000000
   12    -1.000000    90.000000     0.000000     1.000000     0.000000     0.000000     0.000000     0.000000
   13     1.000000   180.000000     0.000000     0.000000     1.000000     0.000000     0.000000     0.000000
   14    -1.000000   180.000000     0.000000     0.000000     1.000000     0.000000     0.000000     0.000000
   15     1.000000   120.000000    -0.577350     0.577350     0.577350     0.000000     0.000000     0.000000
   16    -1.000000   120.000000    -0.577350     0.577350     0.577350     0.000000     0.000000     0.000000
   17     1.000000   120.000000    -0.577350     0.577350    -0.577350     0.000000     0.000000     0.000000
   18    -1.000000   120.000000    -0.577350     0.577350    -0.577350     0.000000     0.000000     0.000000
   19     1.000000    90.000000     0.000000     0.000000     1.000000     0.000000     0.000000     0.000000
   20    -1.000000    90.000000     0.000000     0.000000     1.000000     0.000000     0.000000     0.000000
   21     1.000000    90.000000    -1.000000     0.000000     0.000000     0.000000     0.000000     0.000000
   22    -1.000000    90.000000    -1.000000     0.000000     0.000000     0.000000     0.000000     0.000000
   23     1.000000   180.000000     0.707107     0.000000     0.707107     0.000000     0.000000     0.000000
   24    -1.000000   180.000000     0.707107     0.000000     0.707107     0.000000     0.000000     0.000000
   25     1.000000   120.000000     0.577350    -0.577350     0.577350     0.000000     0.000000     0.000000
   26    -1.000000   120.000000     0.577350    -0.577350     0.577350     0.000000     0.000000     0.000000
   27     1.000000   120.000000    -0.577350    -0.577350     0.577350     0.000000     0.000000     0.000000
   28    -1.000000   120.000000    -0.577350    -0.577350     0.577350     0.000000     0.000000     0.000000
   29     1.000000   180.000000     1.000000     0.000000     0.000000     0.000000     0.000000     0.000000
   30    -1.000000   180.000000     1.000000     0.000000     0.000000     0.000000     0.000000     0.000000
   31     1.000000    90.000000     0.000000    -1.000000     0.000000     0.000000     0.000000     0.000000
   32    -1.000000    90.000000     0.000000    -1.000000     0.000000     0.000000     0.000000     0.000000
   33     1.000000   180.000000     0.707107     0.707107     0.000000     0.000000     0.000000     0.000000
   34    -1.000000   180.000000     0.707107     0.707107     0.000000     0.000000     0.000000     0.000000
   35     1.000000    90.000000     1.000000     0.000000     0.000000     0.000000     0.000000     0.000000
   36    -1.000000    90.000000     1.000000     0.000000     0.000000     0.000000     0.000000     0.000000
   37     1.000000   120.000000     0.577350    -0.577350    -0.577350     0.000000     0.000000     0.000000
   38    -1.000000   120.000000     0.577350    -0.577350    -0.577350     0.000000     0.000000     0.000000
   39     1.000000   180.000000     0.000000     1.000000     0.000000     0.000000     0.000000     0.000000
   40    -1.000000   180.000000     0.000000     1.000000     0.000000     0.000000     0.000000     0.000000
   41     1.000000   120.000000     0.577350     0.577350    -0.577350     0.000000     0.000000     0.000000
   42    -1.000000   120.000000     0.577350     0.577350    -0.577350     0.000000     0.000000     0.000000
   43     1.000000   180.000000     0.000000    -0.707107     0.707107     0.000000     0.000000     0.000000
   44    -1.000000   180.000000     0.000000    -0.707107     0.707107     0.000000     0.000000     0.000000
   45     1.000000   180.000000     0.707107    -0.707107     0.000000     0.000000     0.000000     0.000000
   46    -1.000000   180.000000     0.707107    -0.707107     0.000000     0.000000     0.000000     0.000000
   47     1.000000   180.000000     0.707107     0.000000    -0.707107     0.000000     0.000000     0.000000
   48    -1.000000   180.000000     0.707107     0.000000    -0.707107     0.000000     0.000000     0.000000
 
 Subroutine IBZKPT returns following result:
 ===========================================
 
 Found      4 irreducible k-points:
 
 Following reciprocal coordinates:
            Coordinates               Weight
  0.125000  0.125000  0.125000      8.000000
  0.375000  0.125000  0.125000     24.000000
  0.375000  0.375000  0.125000     24.000000
  0.375000  0.375000  0.375000      8.000000
 
 Following cartesian coordinates:
            Coordinates               Weight
  0.012095  0.012095  0.012095      8.000000
  0.036285  0.012095  0.012095     24.000000
  0.036285  0.036285  0.012095     24.000000
  0.036285  0.036285  0.036285      8.000000
 


--------------------------------------------------------------------------------------------------------




 Dimension of arrays:
   k-points           NKPTS =      4   k-points in BZ     NKDIM =      4   number of bands    NBANDS=    518
   number of dos      NEDOS =    301   number of ions     NIONS =    108
   non local maximal  LDIM  =      6   non local SUM 2l+1 LMDIM =     18
   total plane-waves  NPLWV = 373248
   max r-space proj   IRMAX =   7592   max aug-charges    IRDMAX=  12243
   dimension x,y,z NGX =    72 NGY =   72 NGZ =   72
   dimension x,y,z NGXF=   144 NGYF=  144 NGZF=  144
   support grid    NGXF=   144 NGYF=  144 NGZF=  144
   ions per type =             108
   NGX,Y,Z   is equivalent  to a cutoff of  11.58, 11.58, 11.58 a.u.
   NGXF,Y,Z  is equivalent  to a cutoff of  23.16, 23.16, 23.16 a.u.

 Based on PREC, I would recommend the following setting:
   dimension x,y,z NGX =    40 NGY =   40 NGZ =   40

 SYSTEM =  Opt                                     
 POSCAR =  fcc_Fe_CON_333                          

 Startparameter for this run:
   NWRITE =      2    write-flag & timer
   PREC   = normal    normal or accurate (medium, high low for compatibility)
   ISTART =      0    job   : 0-new  1-cont  2-samecut
   ICHARG =      2    charge: 1-file 2-atom 10-const
   ISPIN  =      1    spin polarized calculation?
   LNONCOLLINEAR =      F non collinear calculations
   LSORBIT =      F    spin-orbit coupling
   INIWAV =      1    electr: 0-lowe 1-rand  2-diag
   LASPH  =      F    aspherical Exc in radial PAW
   METAGGA=      F    non-selfconsistent MetaGGA calc.

 Electronic Relaxation 1
   ENCUT  =  250.0 eV  18.37 Ry    4.29 a.u.  13.32 13.32 13.32*2*pi/ulx,y,z
   ENINI  =  250.0     initial cutoff
   ENAUG  =  511.4 eV  augmentation charge cutoff
   NELM   =    400;   NELMIN=  2; NELMDL= -5     # of ELM steps 
   EDIFF  = 0.1E-05   stopping-criterion for ELM
   LREAL  =      T    real-space projection
   NLSPLINE    = F    spline interpolate recip. space projectors
   LCOMPAT=      F    compatible to vasp.4.4
   GGA_COMPAT  = T    GGA compatible to vasp.4.4-vasp.4.6
   LMAXPAW     = -100 max onsite density
   LMAXMIX     =    2 max onsite mixed and CHGCAR
   VOSKOWN=      0    Vosko Wilk Nusair interpolation
   ROPT   =   -0.00050
 Ionic relaxation
   EDIFFG = -.1E-01   stopping-criterion for IOM
   NSW    =    100    number of steps for IOM
   NBLOCK =      1;   KBLOCK =    100    inner block; outer block 
   IBRION =      2    ionic relax: 0-MD 1-quasi-New 2-CG
   NFREE  =      1    steps in history (QN), initial steepest desc. (CG)
   ISIF   =      3    stress and relaxation
   IWAVPR =     11    prediction:  0-non 1-charg 2-wave 3-comb
   ISYM   =      2    0-nonsym 1-usesym 2-fastsym
   LCORR  =      T    Harris-Foulkes like correction to forces

   POTIM  = 0.5000    time-step for ionic-motion
   TEIN   =    0.0    initial temperature
   TEBEG  =    0.0;   TEEND  =   0.0 temperature during run
   SMASS  =  -3.00    Nose mass-parameter (am)
   estimated Nose-frequenzy (Omega)   =  0.10E-29 period in steps =****** mass=  -0.244E-26a.u.
   SCALEE = 1.0000    scale energy and forces
   NPACO  =    256;   APACO  = 16.0  distance and # of slots for P.C.
   PSTRESS=    0.0 pullay stress

  Mass of Ions in am
   POMASS =  55.85
  Ionic Valenz
   ZVAL   =   8.00
  Atomic Wigner-Seitz radii
   RWIGS  =  -1.00
  virtual crystal weights 
   VCA    =   1.00
   NELECT =     864.0000    total number of electrons
   NUPDOWN=      -1.0000    fix difference up-down

 DOS related values:
   EMIN   =  10.00;   EMAX   =-10.00  energy-range for DOS
   EFERMI =   0.00
   ISMEAR =     1;   SIGMA  =   0.20  broadening in eV -4-tet -1-fermi 0-gaus

 Electronic relaxation 2 (details)
   IALGO  =     68    algorithm
   LDIAG  =      T    sub-space diagonalisation (order eigenvalues)
   LSUBROT=      F    optimize rotation matrix (better conditioning)
   TURBO    =      0    0=normal 1=particle mesh
   IRESTART =      0    0=no restart 2=restart with 2 vectors
   NREBOOT  =      0    no. of reboots
   NMIN     =      0    reboot dimension
   EREF     =   0.00    reference energy to select bands
   IMIX   =      4    mixing-type and parameters
     AMIX     =   0.40;   BMIX     =  1.00
     AMIX_MAG =   1.60;   BMIX_MAG =  1.00
     AMIN     =   0.10
     WC   =   100.;   INIMIX=   1;  MIXPRE=   1;  MAXMIX= -45

 Intra band minimization:
   WEIMIN = 0.0010     energy-eigenvalue tresh-hold
   EBREAK =  0.48E-09  absolut break condition
   DEPER  =   0.30     relativ break condition  

   TIME   =   0.40     timestep for ELM

  volume/ion in A,a.u.               =      10.22        68.97
  Fermi-wavevector in a.u.,A,eV,Ry     =   1.508720  2.851068 30.970078  2.276236
  Thomas-Fermi vector in A             =   2.619137
 
 Write flags
   LWAVE        =      F    write WAVECAR
   LDOWNSAMPLE  =      F    k-point downsampling of WAVECAR
   LCHARG       =      F    write CHGCAR
   LVTOT        =      F    write LOCPOT, total local potential
   LVHAR        =      F    write LOCPOT, Hartree potential only
   LELF         =      F    write electronic localiz. function (ELF)
   LORBIT       =      0    0 simple, 1 ext, 2 COOP (PROOUT), +10 PAW based schemes


 Dipole corrections
   LMONO  =      F    monopole corrections only (constant potential shift)
   LDIPOL =      F    correct potential (dipole corrections)
   IDIPOL =      0    1-x, 2-y, 3-z, 4-all directions 
   EPSILON=  1.0000000 bulk dielectric constant

 Exchange correlation treatment:
   GGA     =    --    GGA type
   LEXCH   =     8    internal setting for exchange type
   VOSKOWN=      0    Vosko Wilk Nusair interpolation
   LHFCALC =     F    Hartree Fock is set to
   LHFONE  =     F    Hartree Fock one center treatment
   AEXX    =    0.0000 exact exchange contribution

 Linear response parameters
   LEPSILON=     F    determine dielectric tensor
   LRPA    =     F    only Hartree local field effects (RPA)
   LNABLA  =     F    use nabla operator in PAW spheres
   LVEL    =     F    velocity operator in full k-point grid
   LINTERFAST=   F  fast interpolation
   KINTER  =     0    interpolate to denser k-point grid
   CSHIFT  =0.1000    complex shift for real part using Kramers Kronig
   OMEGAMAX=  -1.0    maximum frequency
   DEG_THRESHOLD= 0.2000000E-02 threshold for treating states as degnerate
   RTIME   =   -0.100 relaxation time in fs
  (WPLASMAI=    0.000 imaginary part of plasma frequency in eV, 0.658/RTIME)
   DFIELD  = 0.0000000 0.0000000 0.0000000 field for delta impulse in time
 
 Orbital magnetization related:
   ORBITALMAG=     F  switch on orbital magnetization
   LCHIMAG   =     F  perturbation theory with respect to B field
   DQ        =  0.001000  dq finite difference perturbation B field
   LLRAUG    =     F  two centre corrections for induced B field



--------------------------------------------------------------------------------------------------------


 conjugate gradient relaxation of ions
 charge density and potential will be updated during run
 non-spin polarized calculation
 RMM-DIIS sequential band-by-band and
  variant of blocked Davidson during initial phase
 perform sub-space diagonalisation
    before iterative eigenvector-optimisation
 modified Broyden-mixing scheme, WC =      100.0
 initial mixing is a Kerker type mixing with AMIX =  0.4000 and BMIX =      1.0000
 Hartree-type preconditioning will be used
 using additional bands           86
 real space projection scheme for non local part
 use partial core corrections
 calculate Harris-corrections to forces 
   (improved forces if not selfconsistent)
 use gradient corrections 
 use of overlap-Matrix (Vanderbilt PP)
 Methfessel and Paxton  Order N= 1 SIGMA  =   0.20


--------------------------------------------------------------------------------------------------------


  energy-cutoff  :      250.00
  volume of cell :     1103.86
      direct lattice vectors                 reciprocal lattice vectors
    10.334847047  0.000000000  0.000000000     0.096760019  0.000000000  0.000000000
     0.000000000 10.334847047  0.000000000     0.000000000  0.096760019  0.000000000
     0.000000000  0.000000000 10.334847047     0.000000000  0.000000000  0.096760019

  length of vectors
    10.334847047 10.334847047 10.334847047     0.096760019  0.096760019  0.096760019


 
 k-points in units of 2pi/SCALE and weight: pymatgen generated KPOINTS with grid den
   0.01209500  0.01209500  0.01209500       0.125
   0.03628501  0.01209500  0.01209500       0.375
   0.03628501  0.03628501  0.01209500       0.375
   0.03628501  0.03628501  0.03628501       0.125
 
 k-points in reciprocal lattice and weights: pymatgen generated KPOINTS with grid den
   0.12500000  0.12500000  0.12500000       0.125
   0.37500000  0.12500000  0.12500000       0.375
   0.37500000  0.37500000  0.12500000       0.375
   0.37500000  0.37500000  0.37500000       0.125
 
 position of ions in fractional coordinates (direct lattice) 
   0.00000000  0.00000000  0.00000000
   0.00000000  0.16666893  0.16666893
   0.16666893  0.00000000  0.16666893
   0.16666893  0.16666893  0.00000000
   0.33333106  0.00000000  0.00000000
   0.33333107  0.16666893  0.16666893
   0.50000000  0.00000000  0.16666894
   0.50000000  0.16666894  0.00000000
   0.66666897  0.00000000  0.00000000
   0.66666896  0.16666893  0.16666893
   0.83333104  0.00000000  0.16666893
   0.83333104  0.16666893  0.00000000
   0.00000000  0.33333106  0.00000000
   0.00000000  0.50000000  0.16666894
   0.16666893  0.33333107  0.16666893
   0.16666894  0.50000000  0.00000000
   0.33333107  0.33333107  0.00000000
   0.33333107  0.50000000  0.16666893
   0.50000000  0.33333107  0.16666893
   0.50000000  0.50000000  0.00000000
   0.66666896  0.33333107  0.00000000
   0.66666896  0.50000000  0.16666893
   0.83333104  0.33333107  0.16666893
   0.83333103  0.50000000  0.00000000
   0.00000000  0.66666897  0.00000000
   0.00000000  0.83333104  0.16666893
   0.16666893  0.66666896  0.16666893
   0.16666893  0.83333104  0.00000000
   0.33333107  0.66666896  0.00000000
   0.33333107  0.83333104  0.16666893
   0.50000000  0.66666896  0.16666893
   0.50000000  0.83333103  0.00000000
   0.66666896  0.66666896  0.00000000
   0.66666896  0.83333104  0.16666893
   0.83333104  0.66666896  0.16666893
   0.83333104  0.83333104  0.00000000
   0.00000000  0.00000000  0.33333106
   0.00000000  0.16666894  0.50000000
   0.16666894  0.00000000  0.50000000
   0.16666893  0.16666893  0.33333107
   0.33333107  0.00000000  0.33333107
   0.33333107  0.16666893  0.50000000
   0.50000000  0.00000000  0.50000000
   0.50000000  0.16666893  0.33333107
   0.66666896  0.00000000  0.33333107
   0.66666896  0.16666893  0.50000000
   0.83333103  0.00000000  0.50000000
   0.83333104  0.16666893  0.33333107
   0.00000000  0.33333107  0.33333107
   0.00000000  0.50000000  0.50000000
   0.16666893  0.33333107  0.50000000
   0.16666893  0.50000000  0.33333107
   0.33333107  0.33333107  0.33333107
   0.33333106  0.50000000  0.50000000
   0.50000000  0.33333106  0.50000000
   0.50000000  0.50000000  0.33333106
   0.66666896  0.33333107  0.33333107
   0.66666897  0.50000000  0.50000000
   0.83333104  0.33333107  0.50000000
   0.83333104  0.50000000  0.33333107
   0.00000000  0.66666896  0.33333107
   0.00000000  0.83333103  0.50000000
   0.16666893  0.66666896  0.50000000
   0.16666893  0.83333104  0.33333107
   0.33333107  0.66666896  0.33333107
   0.33333107  0.83333104  0.50000000
   0.50000000  0.66666897  0.50000000
   0.50000000  0.83333104  0.33333107
   0.66666896  0.66666896  0.33333107
   0.66666896  0.83333104  0.50000000
   0.83333104  0.66666896  0.50000000
   0.83333104  0.83333104  0.33333107
   0.00000000  0.00000000  0.66666897
   0.00000000  0.16666893  0.83333104
   0.16666893  0.00000000  0.83333104
   0.16666893  0.16666893  0.66666896
   0.33333107  0.00000000  0.66666896
   0.33333107  0.16666893  0.83333104
   0.50000000  0.00000000  0.83333103
   0.50000000  0.16666893  0.66666896
   0.66666896  0.00000000  0.66666896
   0.66666896  0.16666893  0.83333104
   0.83333104  0.00000000  0.83333104
   0.83333104  0.16666893  0.66666896
   0.00000000  0.33333107  0.66666896
   0.00000000  0.50000000  0.83333103
   0.16666893  0.33333107  0.83333104
   0.16666893  0.50000000  0.66666896
   0.33333107  0.33333107  0.66666896
   0.33333107  0.50000000  0.83333104
   0.50000000  0.33333107  0.83333104
   0.50000000  0.50000000  0.66666897
   0.66666896  0.33333107  0.66666896
   0.66666896  0.50000000  0.83333104
   0.83333104  0.33333107  0.83333104
   0.83333104  0.50000000  0.66666896
   0.00000000  0.66666896  0.66666896
   0.00000000  0.83333104  0.83333104
   0.16666893  0.66666896  0.83333104
   0.16666893  0.83333104  0.66666896
   0.33333107  0.66666896  0.66666896
   0.33333107  0.83333104  0.83333104
   0.50000000  0.66666896  0.83333104
   0.50000000  0.83333104  0.66666896
   0.66666896  0.66666896  0.66666896
   0.66666896  0.83333104  0.83333104
   0.83333104  0.66666896  0.83333104
   0.83333104  0.83333104  0.66666896
 
 position of ions in cartesian coordinates  (Angst):
   0.00000000  0.00000000  0.00000000
   0.00000000  1.72249793  1.72249793
   1.72249793  0.00000000  1.72249793
   1.72249793  1.72249793  0.00000000
   3.44492554  0.00000000  0.00000000
   3.44492559  1.72249794  1.72249794
   5.16742352  0.00000000  1.72249798
   5.16742352  1.72249798  0.00000000
   6.88992180  0.00000000  0.00000000
   6.88992176  1.72249794  1.72249794
   8.61234881  0.00000000  1.72249793
   8.61234881  1.72249793  0.00000000
   0.00000000  3.44492554  0.00000000
   0.00000000  5.16742352  1.72249798
   1.72249794  3.44492559  1.72249794
   1.72249798  5.16742352  0.00000000
   3.44492559  3.44492559  0.00000000
   3.44492559  5.16742352  1.72249793
   5.16742352  3.44492559  1.72249793
   5.16742352  5.16742352  0.00000000
   6.88992176  3.44492559  0.00000000
   6.88992176  5.16742352  1.72249793
   8.61234881  3.44492559  1.72249794
   8.61234877  5.16742352  0.00000000
   0.00000000  6.88992180  0.00000000
   0.00000000  8.61234881  1.72249793
   1.72249794  6.88992176  1.72249794
   1.72249793  8.61234881  0.00000000
   3.44492559  6.88992176  0.00000000
   3.44492559  8.61234881  1.72249794
   5.16742352  6.88992176  1.72249793
   5.16742352  8.61234877  0.00000000
   6.88992176  6.88992176  0.00000000
   6.88992176  8.61234881  1.72249794
   8.61234881  6.88992176  1.72249794
   8.61234881  8.61234881  0.00000000
   0.00000000  0.00000000  3.44492554
   0.00000000  1.72249798  5.16742352
   1.72249798  0.00000000  5.16742352
   1.72249794  1.72249794  3.44492559
   3.44492559  0.00000000  3.44492559
   3.44492559  1.72249793  5.16742352
   5.16742352  0.00000000  5.16742352
   5.16742352  1.72249793  3.44492559
   6.88992176  0.00000000  3.44492559
   6.88992176  1.72249793  5.16742352
   8.61234877  0.00000000  5.16742352
   8.61234881  1.72249794  3.44492559
   0.00000000  3.44492559  3.44492559
   0.00000000  5.16742352  5.16742352
   1.72249793  3.44492559  5.16742352
   1.72249793  5.16742352  3.44492559
   3.44492559  3.44492559  3.44492559
   3.44492554  5.16742352  5.16742352
   5.16742352  3.44492554  5.16742352
   5.16742352  5.16742352  3.44492554
   6.88992176  3.44492559  3.44492559
   6.88992180  5.16742352  5.16742352
   8.61234881  3.44492559  5.16742352
   8.61234881  5.16742352  3.44492559
   0.00000000  6.88992176  3.44492559
   0.00000000  8.61234877  5.16742352
   1.72249793  6.88992176  5.16742352
   1.72249794  8.61234881  3.44492559
   3.44492559  6.88992176  3.44492559
   3.44492559  8.61234881  5.16742352
   5.16742352  6.88992180  5.16742352
   5.16742352  8.61234881  3.44492559
   6.88992176  6.88992176  3.44492559
   6.88992176  8.61234881  5.16742352
   8.61234881  6.88992176  5.16742352
   8.61234881  8.61234881  3.44492559
   0.00000000  0.00000000  6.88992180
   0.00000000  1.72249793  8.61234881
   1.72249793  0.00000000  8.61234881
   1.72249794  1.72249794  6.88992176
   3.44492559  0.00000000  6.88992176
   3.44492559  1.72249794  8.61234881
   5.16742352  0.00000000  8.61234877
   5.16742352  1.72249793  6.88992176
   6.88992176  0.00000000  6.88992176
   6.88992176  1.72249794  8.61234881
   8.61234881  0.00000000  8.61234881
   8.61234881  1.72249794  6.88992176
   0.00000000  3.44492559  6.88992176
   0.00000000  5.16742352  8.61234877
   1.72249794  3.44492559  8.61234881
   1.72249793  5.16742352  6.88992176
   3.44492559  3.44492559  6.88992176
   3.44492559  5.16742352  8.61234881
   5.16742352  3.44492559  8.61234881
   5.16742352  5.16742352  6.88992180
   6.88992176  3.44492559  6.88992176
   6.88992176  5.16742352  8.61234881
   8.61234881  3.44492559  8.61234881
   8.61234881  5.16742352  6.88992176
   0.00000000  6.88992176  6.88992176
   0.00000000  8.61234881  8.61234881
   1.72249794  6.88992176  8.61234881
   1.72249794  8.61234881  6.88992176
   3.44492559  6.88992176  6.88992176
   3.44492559  8.61234881  8.61234881
   5.16742352  6.88992176  8.61234881
   5.16742352  8.61234881  6.88992176
   6.88992176  6.88992176  6.88992176
   6.88992176  8.61234881  8.61234881
   8.61234881  6.88992176  8.61234881
   8.61234881  8.61234881  6.88992176
 


--------------------------------------------------------------------------------------------------------


 k-point  1 :   0.1250 0.1250 0.1250  plane waves:    9912
 k-point  2 :   0.3750 0.1250 0.1250  plane waves:    9926
 k-point  3 :   0.3750 0.3750 0.1250  plane waves:    9897
 k-point  4 :   0.3750 0.3750 0.3750  plane waves:    9883

 maximum and minimum number of plane-waves per node :      2496     2457

 maximum number of plane-waves:      9926
 maximum index in each direction: 
   IXMAX=   13   IYMAX=   13   IZMAX=   13
   IXMIN=  -13   IYMIN=  -13   IZMIN=  -13


 real space projection operators:
  total allocation   :     110094.19 KBytes
  max/ min on nodes  :      28279.12      27079.31


 parallel 3D FFT for wavefunctions:
    minimum data exchange during FFTs selected (reduces bandwidth)
 parallel 3D FFT for charge:
    minimum data exchange during FFTs selected (reduces bandwidth)


 total amount of memory used by VASP MPI-rank0   163986. kBytes
=======================================================================

   base      :      30000. kBytes
   nonlr-proj:      47052. kBytes
   fftplans  :      15383. kBytes
   grid      :      21835. kBytes
   one-center:        419. kBytes
   wavefun   :      49297. kBytes
 
     INWAV:  cpu time    0.0000: real time    0.0001
 Broyden mixing: mesh for mixing (old mesh)
   NGX = 27   NGY = 27   NGZ = 27
  (NGX  =144   NGY  =144   NGZ  =144)
  gives a total of  19683 points

 initial charge density was supplied:
 charge density of overlapping atoms calculated
 number of electron     864.0000000 magnetization 
 keeping initial charge density in first step


--------------------------------------------------------------------------------------------------------


 Maximum index for non-local projection operator         1783
 Maximum index for augmentation-charges         1463 (set IRDMAX)


--------------------------------------------------------------------------------------------------------


 First call to EWALD:  gamma=   0.172
 Maximum number of real-space cells 3x 3x 3
 Maximum number of reciprocal cells 3x 3x 3

    FEWALD:  cpu time    0.0103: real time    0.0103


--------------------------------------- Iteration      1(   1)  ---------------------------------------


    POTLOK:  cpu time    0.2789: real time    0.2796
    SETDIJ:  cpu time    0.0540: real time    0.0540
     EDDAV:  cpu time   41.2117: real time   41.2639
       DOS:  cpu time    0.0047: real time    0.0046
    --------------------------------------------
      LOOP:  cpu time   41.5493: real time   41.6022

 eigenvalue-minimisations  :  4168
 total energy-change (2. order) : 0.5181510E+04  (-0.2186366E+05)
 number of electron     864.0000000 magnetization 
 augmentation part      864.0000000 magnetization 

 Free energy of the ion-electron system (eV)
  ---------------------------------------------------
  alpha Z        PSCENC =      7300.31925852
  Ewald energy   TEWEN  =    -66232.83996889
  -Hartree energ DENC   =    -11197.02572337
  -exchange      EXHF   =         0.00000000
  -V(xc)+E(xc)   XCENC  =       446.63038354
  PAW double counting   =     51723.88885462   -52548.28121372
  entropy T*S    EENTRO =         0.01143284
  eigenvalues    EBANDS =     11493.29486096
  atomic energy  EATOM  =     64195.51168677
  Solvation  Ediel_sol  =         0.00000000
  ---------------------------------------------------
  free energy    TOTEN  =      5181.50957128 eV

  energy without entropy =     5181.49813843  energy(sigma->0) =     5181.50576033


--------------------------------------------------------------------------------------------------------




--------------------------------------- Iteration      1(   2)  ---------------------------------------


     EDDAV:  cpu time   41.0217: real time   41.0283
       DOS:  cpu time    0.0067: real time    0.0067
    --------------------------------------------
      LOOP:  cpu time   41.0284: real time   41.0349

 eigenvalue-minimisations  :  4144
 total energy-change (2. order) :-0.5576794E+04  (-0.5369042E+04)
 number of electron     864.0000000 magnetization 
 augmentation part      864.0000000 magnetization 

 Free energy of the ion-electron system (eV)
  ---------------------------------------------------
  alpha Z        PSCENC =      7300.31925852
  Ewald energy   TEWEN  =    -66232.83996889
  -Hartree energ DENC   =    -11197.02572337
  -exchange      EXHF   =         0.00000000
  -V(xc)+E(xc)   XCENC  =       446.63038354
  PAW double counting   =     51723.88885462   -52548.28121372
  entropy T*S    EENTRO =        -0.04920803
  eigenvalues    EBANDS =      5916.56186231
  atomic energy  EATOM  =     64195.51168677
  Solvation  Ediel_sol  =         0.00000000
  ---------------------------------------------------
  free energy    TOTEN  =      -395.28406825 eV

  energy without entropy =     -395.23486022  energy(sigma->0) =     -395.26766557


--------------------------------------------------------------------------------------------------------




--------------------------------------- Iteration      1(   3)  ---------------------------------------


     EDDAV:  cpu time   50.4337: real time   50.4494
       DOS:  cpu time    0.0072: real time    0.0072
    --------------------------------------------
      LOOP:  cpu time   50.4409: real time   50.4566

 eigenvalue-minimisations  :  5398
 total energy-change (2. order) :-0.5811789E+03  (-0.5282696E+03)
 number of electron     864.0000000 magnetization 
 augmentation part      864.0000000 magnetization 

 Free energy of the ion-electron system (eV)
  ---------------------------------------------------
  alpha Z        PSCENC =      7300.31925852
  Ewald energy   TEWEN  =    -66232.83996889
  -Hartree energ DENC   =    -11197.02572337
  -exchange      EXHF   =         0.00000000
  -V(xc)+E(xc)   XCENC  =       446.63038354
  PAW double counting   =     51723.88885462   -52548.28121372
  entropy T*S    EENTRO =         0.05349623
  eigenvalues    EBANDS =      5335.28027963
  atomic energy  EATOM  =     64195.51168677
  Solvation  Ediel_sol  =         0.00000000
  ---------------------------------------------------
  free energy    TOTEN  =      -976.46294667 eV

  energy without entropy =     -976.51644290  energy(sigma->0) =     -976.48077874


--------------------------------------------------------------------------------------------------------




--------------------------------------- Iteration      1(   4)  ---------------------------------------


     EDDAV:  cpu time   59.8190: real time   59.8325
       DOS:  cpu time    0.0072: real time    0.0072
    --------------------------------------------
      LOOP:  cpu time   59.8262: real time   59.8396

 eigenvalue-minimisations  :  6640
 total energy-change (2. order) :-0.6466613E+02  (-0.5904673E+02)
 number of electron     864.0000000 magnetization 
 augmentation part      864.0000000 magnetization 

 Free energy of the ion-electron system (eV)
  ---------------------------------------------------
  alpha Z        PSCENC =      7300.31925852
  Ewald energy   TEWEN  =    -66232.83996889
  -Hartree energ DENC   =    -11197.02572337
  -exchange      EXHF   =         0.00000000
  -V(xc)+E(xc)   XCENC  =       446.63038354
  PAW double counting   =     51723.88885462   -52548.28121372
  entropy T*S    EENTRO =        -0.09728825
  eigenvalues    EBANDS =      5270.76493801
  atomic energy  EATOM  =     64195.51168677
  Solvation  Ediel_sol  =         0.00000000
  ---------------------------------------------------
  free energy    TOTEN  =     -1041.12907276 eV

  energy without entropy =    -1041.03178451  energy(sigma->0) =    -1041.09664335


--------------------------------------------------------------------------------------------------------




--------------------------------------- Iteration      1(   5)  ---------------------------------------


     EDDAV:  cpu time   56.5072: real time   56.5294
       DOS:  cpu time    0.0074: real time    0.0074
    CHARGE:  cpu time    2.0503: real time    2.0505
    MIXING:  cpu time    0.0071: real time    0.0072
    --------------------------------------------
      LOOP:  cpu time   58.5720: real time   58.5944

 eigenvalue-minimisations  :  6152
 total energy-change (2. order) :-0.5335619E+01  (-0.4848200E+01)
 number of electron     864.0000690 magnetization 
 augmentation part      382.0363677 magnetization 

 Broyden mixing:
  rms(total) = 0.94091E+01    rms(broyden)= 0.94072E+01
  rms(prec ) = 0.11726E+02
  weight for this iteration     100.00

 Free energy of the ion-electron system (eV)
  ---------------------------------------------------
  alpha Z        PSCENC =      7300.31925852
  Ewald energy   TEWEN  =    -66232.83996889
  -Hartree energ DENC   =    -11197.02572337
  -exchange      EXHF   =         0.00000000
  -V(xc)+E(xc)   XCENC  =       446.63038354
  PAW double counting   =     51723.88885462   -52548.28121372
  entropy T*S    EENTRO =        -0.11004246
  eigenvalues    EBANDS =      5265.44207278
  atomic energy  EATOM  =     64195.51168677
  Solvation  Ediel_sol  =         0.00000000
  ---------------------------------------------------
  free energy    TOTEN  =     -1046.46469220 eV

  energy without entropy =    -1046.35464974  energy(sigma->0) =    -1046.42801138


--------------------------------------------------------------------------------------------------------




--------------------------------------- Iteration      1(   6)  ---------------------------------------


    POTLOK:  cpu time    0.3015: real time    0.3017
    SETDIJ:  cpu time    0.0541: real time    0.0541
    EDDIAG:  cpu time    4.0124: real time    4.0129
  RMM-DIIS:  cpu time   29.2586: real time   29.2629
    ORTHCH:  cpu time    0.6143: real time    0.6144
       DOS:  cpu time    0.0083: real time    0.0083
    CHARGE:  cpu time    2.0288: real time    2.0290
    MIXING:  cpu time    0.0067: real time    0.0067
    --------------------------------------------
      LOOP:  cpu time   36.2847: real time   36.2899

 eigenvalue-minimisations  :  4146
 total energy-change (2. order) : 0.1700745E+03  (-0.1378353E+03)
 number of electron     864.0000775 magnetization 
 augmentation part      447.6182585 magnetization 

 Broyden mixing:
  rms(total) = 0.74233E+00    rms(broyden)= 0.74012E+00
  rms(prec ) = 0.81628E+00
  weight for this iteration     100.00

 eigenvalues of (default mixing * dielectric matrix)
  average eigenvalue GAMMA=   0.9485
  0.9485

 Free energy of the ion-electron system (eV)
  ---------------------------------------------------
  alpha Z        PSCENC =      7300.31925852
  Ewald energy   TEWEN  =    -66232.83996889
  -Hartree energ DENC   =     -9331.79798008
  -exchange      EXHF   =         0.00000000
  -V(xc)+E(xc)   XCENC  =       355.12397384
  PAW double counting   =     52466.34331308   -53041.07369089
  entropy T*S    EENTRO =        -0.04159219
  eigenvalues    EBANDS =      3412.06477427
  atomic energy  EATOM  =     64195.51168677
  Solvation  Ediel_sol  =         0.00000000
  ---------------------------------------------------
  free energy    TOTEN  =      -876.39022557 eV

  energy without entropy =     -876.34863338  energy(sigma->0) =     -876.37636151


--------------------------------------------------------------------------------------------------------




--------------------------------------- Iteration      1(   7)  ---------------------------------------


    POTLOK:  cpu time    0.2848: real time    0.2860
    SETDIJ:  cpu time    0.0539: real time    0.0539
    EDDIAG:  cpu time    4.0972: real time    4.1001
  RMM-DIIS:  cpu time   31.3953: real time   31.3989
    ORTHCH:  cpu time    0.6003: real time    0.6004
       DOS:  cpu time    0.0084: real time    0.0084
    CHARGE:  cpu time    2.0242: real time    2.0243
    MIXING:  cpu time    0.0073: real time    0.0073
    --------------------------------------------
      LOOP:  cpu time   38.4713: real time   38.4793

 eigenvalue-minimisations  :  4490
 total energy-change (2. order) :-0.8377960E+00  (-0.8432569E+01)
 number of electron     864.0000749 magnetization 
 augmentation part      446.3029368 magnetization 

 Broyden mixing:
  rms(total) = 0.31514E+00    rms(broyden)= 0.31155E+00
  rms(prec ) = 0.36048E+00
  weight for this iteration     100.00

 eigenvalues of (default mixing * dielectric matrix)
  average eigenvalue GAMMA=   1.0427
  1.0427  1.0427

 Free energy of the ion-electron system (eV)
  ---------------------------------------------------
  alpha Z        PSCENC =      7300.31925852
  Ewald energy   TEWEN  =    -66232.83996889
  -Hartree energ DENC   =     -9390.93226700
  -exchange      EXHF   =         0.00000000
  -V(xc)+E(xc)   XCENC  =       359.93407256
  PAW double counting   =     54563.65331915   -55317.94972259
  entropy T*S    EENTRO =        -0.13433972
  eigenvalues    EBANDS =      3645.20993962
  atomic energy  EATOM  =     64195.51168677
  Solvation  Ediel_sol  =         0.00000000
  ---------------------------------------------------
  free energy    TOTEN  =      -877.22802158 eV

  energy without entropy =     -877.09368186  energy(sigma->0) =     -877.18324167


--------------------------------------------------------------------------------------------------------




--------------------------------------- Iteration      1(   8)  ---------------------------------------


    POTLOK:  cpu time    0.2999: real time    0.3002
    SETDIJ:  cpu time    0.0541: real time    0.0541
    EDDIAG:  cpu time    4.2780: real time    4.2785
  RMM-DIIS:  cpu time   31.0964: real time   31.1239
    ORTHCH:  cpu time    0.6098: real time    0.6101
       DOS:  cpu time    0.0083: real time    0.0083
    CHARGE:  cpu time    2.0278: real time    2.0280
    MIXING:  cpu time    0.0090: real time    0.0090
    --------------------------------------------
      LOOP:  cpu time   38.3833: real time   38.4121

 eigenvalue-minimisations  :  4440
 total energy-change (2. order) : 0.3925539E+00  (-0.9696549E+00)
 number of electron     864.0000747 magnetization 
 augmentation part      443.2343205 magnetization 

 Broyden mixing:
  rms(total) = 0.10201E+01    rms(broyden)= 0.10190E+01
  rms(prec ) = 0.14212E+01
  weight for this iteration     100.00

 eigenvalues of (default mixing * dielectric matrix)
  average eigenvalue GAMMA=   0.7736
  1.0298  1.1619  0.1290

 Free energy of the ion-electron system (eV)
  ---------------------------------------------------
  alpha Z        PSCENC =      7300.31925852
  Ewald energy   TEWEN  =    -66232.83996889
  -Hartree energ DENC   =     -9418.07445685
  -exchange      EXHF   =         0.00000000
  -V(xc)+E(xc)   XCENC  =       362.07660613
  PAW double counting   =     56188.78902327   -57029.84570789
  entropy T*S    EENTRO =        -0.10693780
  eigenvalues    EBANDS =      3757.33502905
  atomic energy  EATOM  =     64195.51168677
  Solvation  Ediel_sol  =         0.00000000
  ---------------------------------------------------
  free energy    TOTEN  =      -876.83546768 eV

  energy without entropy =     -876.72852988  energy(sigma->0) =     -876.79982175


--------------------------------------------------------------------------------------------------------




--------------------------------------- Iteration      1(   9)  ---------------------------------------


    POTLOK:  cpu time    0.3010: real time    0.3015
    SETDIJ:  cpu time    0.0542: real time    0.0542
    EDDIAG:  cpu time    4.3197: real time    4.3202
  RMM-DIIS:  cpu time   34.1124: real time   34.1309
    ORTHCH:  cpu time    0.6051: real time    0.6051
       DOS:  cpu time    0.0087: real time    0.0087
    CHARGE:  cpu time    2.0888: real time    2.0889
    MIXING:  cpu time    0.0105: real time    0.0105
    --------------------------------------------
      LOOP:  cpu time   41.5004: real time   41.5199

 eigenvalue-minimisations  :  4893
 total energy-change (2. order) : 0.4895226E+00  (-0.2481586E+00)
 number of electron     864.0000747 magnetization 
 augmentation part      442.9217577 magnetization 

 Broyden mixing:
  rms(total) = 0.26643E+00    rms(broyden)= 0.26341E+00
  rms(prec ) = 0.32179E+00
  weight for this iteration     100.00

 eigenvalues of (default mixing * dielectric matrix)
  average eigenvalue GAMMA=   1.1566
  2.4845  1.0112  1.0112  0.1193

 Free energy of the ion-electron system (eV)
  ---------------------------------------------------
  alpha Z        PSCENC =      7300.31925852
  Ewald energy   TEWEN  =    -66232.83996889
  -Hartree energ DENC   =     -9416.68123051
  -exchange      EXHF   =         0.00000000
  -V(xc)+E(xc)   XCENC  =       362.16150452
  PAW double counting   =     56560.03979966   -57418.63083436
  entropy T*S    EENTRO =        -0.07972271
  eigenvalues    EBANDS =      3773.85356188
  atomic energy  EATOM  =     64195.51168677
  Solvation  Ediel_sol  =         0.00000000
  ---------------------------------------------------
  free energy    TOTEN  =      -876.34594512 eV

  energy without entropy =     -876.26622241  energy(sigma->0) =     -876.31937089


--------------------------------------------------------------------------------------------------------




--------------------------------------- Iteration      1(  10)  ---------------------------------------


    POTLOK:  cpu time    0.3075: real time    0.3079
    SETDIJ:  cpu time    0.0559: real time    0.0561
    EDDIAG:  cpu time    4.3489: real time    4.3490
  RMM-DIIS:  cpu time   36.6924: real time   36.7164
    ORTHCH:  cpu time    0.6131: real time    0.6131
       DOS:  cpu time    0.0084: real time    0.0084
    CHARGE:  cpu time    2.0965: real time    2.0965
    MIXING:  cpu time    0.0084: real time    0.0084
    --------------------------------------------
      LOOP:  cpu time   44.1310: real time   44.1558

 eigenvalue-minimisations  :  5268
 total energy-change (2. order) : 0.1919446E+00  (-0.1222588E+00)
 number of electron     864.0000750 magnetization 
 augmentation part      444.2687380 magnetization 

 Broyden mixing:
  rms(total) = 0.82020E-01    rms(broyden)= 0.81865E-01
  rms(prec ) = 0.10846E+00
  weight for this iteration     100.00

 eigenvalues of (default mixing * dielectric matrix)
  average eigenvalue GAMMA=   1.1300
  2.5930  1.0379  0.9750  0.9241  0.1198

 Free energy of the ion-electron system (eV)
  ---------------------------------------------------
  alpha Z        PSCENC =      7300.31925852
  Ewald energy   TEWEN  =    -66232.83996889
  -Hartree energ DENC   =     -9331.87250509
  -exchange      EXHF   =         0.00000000
  -V(xc)+E(xc)   XCENC  =       358.72031480
  PAW double counting   =     58185.56078300   -59094.42311504
  entropy T*S    EENTRO =        -0.09088446
  eigenvalues    EBANDS =      3742.96042982
  atomic energy  EATOM  =     64195.51168677
  Solvation  Ediel_sol  =         0.00000000
  ---------------------------------------------------
  free energy    TOTEN  =      -876.15400057 eV

  energy without entropy =     -876.06311612  energy(sigma->0) =     -876.12370576


--------------------------------------------------------------------------------------------------------




--------------------------------------- Iteration      1(  11)  ---------------------------------------


    POTLOK:  cpu time    0.3080: real time    0.3085
    SETDIJ:  cpu time    0.0547: real time    0.0547
    EDDIAG:  cpu time    4.3538: real time    4.3563
  RMM-DIIS:  cpu time   38.9056: real time   38.9066
    ORTHCH:  cpu time    0.6137: real time    0.6136
       DOS:  cpu time    0.0084: real time    0.0084
    CHARGE:  cpu time    2.0872: real time    2.0872
    MIXING:  cpu time    0.0099: real time    0.0099
    --------------------------------------------
      LOOP:  cpu time   46.3412: real time   46.3453

 eigenvalue-minimisations  :  5609
 total energy-change (2. order) :-0.8429733E-02  (-0.1137474E-01)
 number of electron     864.0000750 magnetization 
 augmentation part      444.3684315 magnetization 

 Broyden mixing:
  rms(total) = 0.61785E-01    rms(broyden)= 0.61760E-01
  rms(prec ) = 0.78557E-01
  weight for this iteration     100.00

 eigenvalues of (default mixing * dielectric matrix)
  average eigenvalue GAMMA=   1.2582
  2.6378  1.9392  0.9573  0.9573  0.9379  0.1198

 Free energy of the ion-electron system (eV)
  ---------------------------------------------------
  alpha Z        PSCENC =      7300.31925852
  Ewald energy   TEWEN  =    -66232.83996889
  -Hartree energ DENC   =     -9334.51396487
  -exchange      EXHF   =         0.00000000
  -V(xc)+E(xc)   XCENC  =       358.88286665
  PAW double counting   =     58314.16945474   -59223.77178653
  entropy T*S    EENTRO =        -0.08889261
  eigenvalues    EBANDS =      3746.16891591
  atomic energy  EATOM  =     64195.51168677
  Solvation  Ediel_sol  =         0.00000000
  ---------------------------------------------------
  free energy    TOTEN  =      -876.16243031 eV

  energy without entropy =     -876.07353769  energy(sigma->0) =     -876.13279944


--------------------------------------------------------------------------------------------------------




--------------------------------------- Iteration      1(  12)  ---------------------------------------


    POTLOK:  cpu time    0.3046: real time    0.3052
    SETDIJ:  cpu time    0.0550: real time    0.0550
    EDDIAG:  cpu time    4.1394: real time    4.1394
  RMM-DIIS:  cpu time   31.4191: real time   31.4196
    ORTHCH:  cpu time    0.6135: real time    0.6135
       DOS:  cpu time    0.0083: real time    0.0083
    CHARGE:  cpu time    2.0885: real time    2.0885
    MIXING:  cpu time    0.0087: real time    0.0087
    --------------------------------------------
      LOOP:  cpu time   38.6370: real time   38.6383

 eigenvalue-minimisations  :  4469
 total energy-change (2. order) : 0.5774943E-02  (-0.3786126E-02)
 number of electron     864.0000749 magnetization 
 augmentation part      444.0470087 magnetization 

 Broyden mixing:
  rms(total) = 0.13256E-01    rms(broyden)= 0.13159E-01
  rms(prec ) = 0.17954E-01
  weight for this iteration     100.00

 eigenvalues of (default mixing * dielectric matrix)
  average eigenvalue GAMMA=   1.3043
  2.4351  2.4351  1.2841  0.9669  0.9669  0.9224  0.1198

 Free energy of the ion-electron system (eV)
  ---------------------------------------------------
  alpha Z        PSCENC =      7300.31925852
  Ewald energy   TEWEN  =    -66232.83996889
  -Hartree energ DENC   =     -9347.43416947
  -exchange      EXHF   =         0.00000000
  -V(xc)+E(xc)   XCENC  =       359.48913438
  PAW double counting   =     58339.09835924   -59245.60780265
  entropy T*S    EENTRO =        -0.08558973
  eigenvalues    EBANDS =      3755.39243647
  atomic energy  EATOM  =     64195.51168677
  Solvation  Ediel_sol  =         0.00000000
  ---------------------------------------------------
  free energy    TOTEN  =      -876.15665536 eV

  energy without entropy =     -876.07106563  energy(sigma->0) =     -876.12812545


--------------------------------------------------------------------------------------------------------




--------------------------------------- Iteration      1(  13)  ---------------------------------------


    POTLOK:  cpu time    0.3065: real time    0.3069
    SETDIJ:  cpu time    0.0564: real time    0.0564
    EDDIAG:  cpu time    4.3372: real time    4.3373
  RMM-DIIS:  cpu time   37.6683: real time   37.6700
    ORTHCH:  cpu time    0.6135: real time    0.6135
       DOS:  cpu time    0.0084: real time    0.0084
    CHARGE:  cpu time    2.0862: real time    2.0862
    MIXING:  cpu time    0.0128: real time    0.0128
    --------------------------------------------
      LOOP:  cpu time   45.0892: real time   45.0914

 eigenvalue-minimisations  :  5419
 total energy-change (2. order) :-0.4805732E-03  (-0.8794108E-03)
 number of electron     864.0000749 magnetization 
 augmentation part      444.0136896 magnetization 

 Broyden mixing:
  rms(total) = 0.52797E-02    rms(broyden)= 0.52542E-02
  rms(prec ) = 0.73806E-02
  weight for this iteration     100.00

 eigenvalues of (default mixing * dielectric matrix)
  average eigenvalue GAMMA=   1.3773
  2.6047  2.2325  2.2325  0.1198  0.9634  0.9634  0.9510  0.9510

 Free energy of the ion-electron system (eV)
  ---------------------------------------------------
  alpha Z        PSCENC =      7300.31925852
  Ewald energy   TEWEN  =    -66232.83996889
  -Hartree energ DENC   =     -9348.56563920
  -exchange      EXHF   =         0.00000000
  -V(xc)+E(xc)   XCENC  =       359.53147761
  PAW double counting   =     58325.46901817   -59230.17284015
  entropy T*S    EENTRO =        -0.08516808
  eigenvalues    EBANDS =      3754.67503931
  atomic energy  EATOM  =     64195.51168677
  Solvation  Ediel_sol  =         0.00000000
  ---------------------------------------------------
  free energy    TOTEN  =      -876.15713594 eV

  energy without entropy =     -876.07196786  energy(sigma->0) =     -876.12874658


--------------------------------------------------------------------------------------------------------




--------------------------------------- Iteration      1(  14)  ---------------------------------------


    POTLOK:  cpu time    0.3086: real time    0.3099
    SETDIJ:  cpu time    0.0559: real time    0.0559
    EDDIAG:  cpu time    4.0779: real time    4.0780
  RMM-DIIS:  cpu time   36.3461: real time   36.3766
    ORTHCH:  cpu time    0.6088: real time    0.6088
       DOS:  cpu time    0.0089: real time    0.0089
    CHARGE:  cpu time    1.9828: real time    1.9839
    MIXING:  cpu time    0.0098: real time    0.0098
    --------------------------------------------
      LOOP:  cpu time   43.3990: real time   43.4318

 eigenvalue-minimisations  :  5168
 total energy-change (2. order) :-0.6082279E-04  (-0.4965325E-04)
 number of electron     864.0000749 magnetization 
 augmentation part      444.0337406 magnetization 

 Broyden mixing:
  rms(total) = 0.15514E-02    rms(broyden)= 0.15347E-02
  rms(prec ) = 0.18525E-02
  weight for this iteration     100.00

 eigenvalues of (default mixing * dielectric matrix)
  average eigenvalue GAMMA=   1.3428
  2.6453  2.2656  2.2656  0.1198  0.9801  0.9801  1.0220  1.0220  0.7851

 Free energy of the ion-electron system (eV)
  ---------------------------------------------------
  alpha Z        PSCENC =      7300.31925852
  Ewald energy   TEWEN  =    -66232.83996889
  -Hartree energ DENC   =     -9347.90433742
  -exchange      EXHF   =         0.00000000
  -V(xc)+E(xc)   XCENC  =       359.50236277
  PAW double counting   =     58325.79671907   -59230.61902685
  entropy T*S    EENTRO =        -0.08494064
  eigenvalues    EBANDS =      3754.16104990
  atomic energy  EATOM  =     64195.51168677
  Solvation  Ediel_sol  =         0.00000000
  ---------------------------------------------------
  free energy    TOTEN  =      -876.15719676 eV

  energy without entropy =     -876.07225612  energy(sigma->0) =     -876.12888321


--------------------------------------------------------------------------------------------------------




--------------------------------------- Iteration      1(  15)  ---------------------------------------


    POTLOK:  cpu time    0.2608: real time    0.2616
    SETDIJ:  cpu time    0.0539: real time    0.0539
    EDDIAG:  cpu time    3.9082: real time    3.9087
  RMM-DIIS:  cpu time   34.0729: real time   34.0979
    ORTHCH:  cpu time    0.6006: real time    0.6006
       DOS:  cpu time    0.0083: real time    0.0083
    CHARGE:  cpu time    2.0330: real time    2.0330
    MIXING:  cpu time    0.0090: real time    0.0090
    --------------------------------------------
      LOOP:  cpu time   40.9467: real time   40.9731

 eigenvalue-minimisations  :  4817
 total energy-change (2. order) : 0.2759520E-04  ( 0.5098447E-05)
 number of electron     864.0000749 magnetization 
 augmentation part      444.0183403 magnetization 

 Broyden mixing:
  rms(total) = 0.10035E-02    rms(broyden)= 0.10023E-02
  rms(prec ) = 0.12681E-02
  weight for this iteration     100.00

 eigenvalues of (default mixing * dielectric matrix)
  average eigenvalue GAMMA=   1.4523
  2.9516  2.5841  2.5841  0.1198  1.4701  0.9711  0.9711  1.0056  1.0056  0.8600

 Free energy of the ion-electron system (eV)
  ---------------------------------------------------
  alpha Z        PSCENC =      7300.31925852
  Ewald energy   TEWEN  =    -66232.83996889
  -Hartree energ DENC   =     -9348.32760526
  -exchange      EXHF   =         0.00000000
  -V(xc)+E(xc)   XCENC  =       359.52364556
  PAW double counting   =     58326.05234403   -59230.90724449
  entropy T*S    EENTRO =        -0.08456167
  eigenvalues    EBANDS =      3754.59527626
  atomic energy  EATOM  =     64195.51168677
  Solvation  Ediel_sol  =         0.00000000
  ---------------------------------------------------
  free energy    TOTEN  =      -876.15716916 eV

  energy without entropy =     -876.07260750  energy(sigma->0) =     -876.12898194


--------------------------------------------------------------------------------------------------------




--------------------------------------- Iteration      1(  16)  ---------------------------------------


    POTLOK:  cpu time    0.3007: real time    0.3010
    SETDIJ:  cpu time    0.0555: real time    0.0555
    EDDIAG:  cpu time    4.2956: real time    4.2975
  RMM-DIIS:  cpu time   36.2564: real time   36.2725
    ORTHCH:  cpu time    0.6084: real time    0.6084
       DOS:  cpu time    0.0084: real time    0.0084
    CHARGE:  cpu time    2.0803: real time    2.0805
    MIXING:  cpu time    0.0104: real time    0.0104
    --------------------------------------------
      LOOP:  cpu time   43.6166: real time   43.6342

 eigenvalue-minimisations  :  5214
 total energy-change (2. order) : 0.3684574E-05  ( 0.1118984E-04)
 number of electron     864.0000749 magnetization 
 augmentation part      444.0238722 magnetization 

 Broyden mixing:
  rms(total) = 0.43161E-03    rms(broyden)= 0.43035E-03
  rms(prec ) = 0.60790E-03
  weight for this iteration     100.00

 eigenvalues of (default mixing * dielectric matrix)
  average eigenvalue GAMMA=   1.3548
  3.0582  2.5426  2.5426  0.1198  1.4850  0.9706  0.9706  0.9879  0.9879  0.8676
  0.3704

 Free energy of the ion-electron system (eV)
  ---------------------------------------------------
  alpha Z        PSCENC =      7300.31925852
  Ewald energy   TEWEN  =    -66232.83996889
  -Hartree energ DENC   =     -9348.10113781
  -exchange      EXHF   =         0.00000000
  -V(xc)+E(xc)   XCENC  =       359.51352981
  PAW double counting   =     58325.29383862   -59230.18627412
  entropy T*S    EENTRO =        -0.08439972
  eigenvalues    EBANDS =      3754.41630135
  atomic energy  EATOM  =     64195.51168677
  Solvation  Ediel_sol  =         0.00000000
  ---------------------------------------------------
  free energy    TOTEN  =      -876.15716548 eV

  energy without entropy =     -876.07276576  energy(sigma->0) =     -876.12903224


--------------------------------------------------------------------------------------------------------




--------------------------------------- Iteration      1(  17)  ---------------------------------------


    POTLOK:  cpu time    0.3072: real time    0.3081
    SETDIJ:  cpu time    0.0542: real time    0.0542
    EDDIAG:  cpu time    4.0733: real time    4.0736
  RMM-DIIS:  cpu time   26.1003: real time   26.1159
    ORTHCH:  cpu time    0.6043: real time    0.6043
       DOS:  cpu time    0.0085: real time    0.0085
    CHARGE:  cpu time    2.0277: real time    2.0277
    MIXING:  cpu time    0.0101: real time    0.0101
    --------------------------------------------
      LOOP:  cpu time   33.1846: real time   33.2023

 eigenvalue-minimisations  :  3728
[...]
   0.108E-01 0.106E-01 0.146E-04   -.210E-01 -.207E-01 -.284E-04   0.669E-21 0.928E-20 0.186E-19   -.478E-07 -.570E-07 0.484E-08
   -.108E-01 -.146E-04 0.146E-04   0.210E-01 0.284E-04 -.284E-04   0.374E-25 0.169E-20 0.847E-21   0.523E-07 -.486E-08 0.484E-08
   -.108E-01 0.106E-01 -.106E-01   0.210E-01 -.207E-01 0.207E-01   -.197E-25 -.152E-19 0.847E-21   0.523E-07 -.570E-07 0.525E-07
   -.146E-04 -.106E-01 -.106E-01   0.284E-04 0.207E-01 0.207E-01   0.847E-21 -.339E-20 -.144E-19   -.486E-08 0.519E-07 0.519E-07
   -.146E-04 0.146E-04 0.146E-04   0.284E-04 -.284E-04 -.284E-04   0.424E-21 -.635E-20 -.479E-19   -.486E-08 0.484E-08 0.484E-08
   0.106E-01 -.106E-01 0.146E-04   -.207E-01 0.207E-01 -.284E-04   -.984E-21 0.424E-20 0.182E-19   -.570E-07 0.525E-07 0.484E-08
   0.106E-01 0.146E-04 -.106E-01   -.207E-01 -.284E-04 0.207E-01   -.682E-21 -.762E-20 0.254E-20   -.570E-07 0.484E-08 0.525E-07
   -.106E-01 -.106E-01 -.106E-01   0.207E-01 0.207E-01 0.207E-01   -.384E-25 0.102E-19 0.254E-20   0.520E-07 0.520E-07 0.520E-07
   -.107E-01 0.146E-04 0.146E-04   0.207E-01 -.284E-04 -.284E-04   0.377E-25 0.678E-20 -.296E-19   0.526E-07 0.484E-08 0.484E-08
   0.146E-04 -.107E-01 0.146E-04   -.284E-04 0.207E-01 -.284E-04   0.169E-20 -.106E-19 -.191E-19   0.484E-08 0.526E-07 0.484E-08
   0.146E-04 0.146E-04 -.107E-01   -.284E-04 -.284E-04 0.207E-01   0.127E-20 0.466E-20 -.424E-20   0.484E-08 0.484E-08 0.526E-07
   0.108E-01 -.106E-01 -.106E-01   -.210E-01 0.207E-01 0.207E-01   -.118E-20 -.169E-20 -.212E-19   -.472E-07 0.520E-07 0.520E-07
   0.108E-01 0.146E-04 0.146E-04   -.210E-01 -.284E-04 -.284E-04   -.358E-20 -.805E-20 0.551E-20   -.479E-07 0.484E-08 0.484E-08
   -.108E-01 -.106E-01 0.145E-04   0.210E-01 0.207E-01 -.284E-04   0.139E-28 -.123E-19 -.119E-19   0.522E-07 0.525E-07 0.484E-08
   -.108E-01 0.146E-04 -.106E-01   0.210E-01 -.284E-04 0.207E-01   -.758E-27 0.635E-20 0.932E-20   0.522E-07 0.484E-08 0.525E-07
   -.146E-04 0.108E-01 -.106E-01   0.284E-04 -.210E-01 0.207E-01   0.847E-21 0.111E-19 0.182E-19   -.486E-08 -.472E-07 0.519E-07
   -.146E-04 -.108E-01 0.146E-04   0.284E-04 0.210E-01 -.284E-04   -.212E-20 -.678E-20 0.466E-20   -.486E-08 0.523E-07 0.484E-08
   0.106E-01 0.108E-01 0.146E-04   -.207E-01 -.210E-01 -.284E-04   -.860E-22 0.727E-20 0.339E-20   -.570E-07 -.478E-07 0.484E-08
   0.106E-01 -.108E-01 -.106E-01   -.207E-01 0.210E-01 0.207E-01   0.738E-21 0.424E-20 -.157E-19   -.570E-07 0.523E-07 0.525E-07
   -.106E-01 0.108E-01 -.106E-01   0.207E-01 -.210E-01 0.207E-01   -.195E-25 -.927E-20 0.144E-19   0.520E-07 -.472E-07 0.520E-07
   -.106E-01 -.108E-01 0.145E-04   0.207E-01 0.210E-01 -.284E-04   -.424E-21 -.847E-20 -.191E-19   0.525E-07 0.522E-07 0.484E-08
   0.146E-04 0.108E-01 0.146E-04   -.284E-04 -.210E-01 -.284E-04   0.196E-25 0.811E-20 -.296E-20   0.484E-08 -.479E-07 0.484E-08
   0.146E-04 -.108E-01 -.106E-01   -.284E-04 0.210E-01 0.207E-01   -.374E-25 0.423E-21 -.889E-20   0.484E-08 0.522E-07 0.525E-07
   0.108E-01 0.108E-01 -.106E-01   -.210E-01 -.210E-01 0.207E-01   -.232E-20 -.757E-20 0.453E-19   -.472E-07 -.472E-07 0.520E-07
   0.108E-01 -.108E-01 0.146E-04   -.210E-01 0.210E-01 -.284E-04   -.106E-20 -.119E-19 0.119E-19   -.478E-07 0.522E-07 0.484E-08
   -.108E-01 0.108E-01 0.146E-04   0.210E-01 -.210E-01 -.284E-04   0.189E-25 0.473E-20 0.381E-20   0.522E-07 -.478E-07 0.484E-08
   -.108E-01 -.108E-01 -.106E-01   0.210E-01 0.210E-01 0.207E-01   -.382E-25 -.974E-20 0.424E-20   0.523E-07 0.523E-07 0.525E-07
   -.146E-04 -.146E-04 0.108E-01   0.284E-04 0.284E-04 -.210E-01   0.424E-21 0.551E-20 0.989E-20   -.486E-08 -.486E-08 -.473E-07
   -.146E-04 0.106E-01 -.108E-01   0.284E-04 -.207E-01 0.210E-01   -.169E-20 -.125E-19 -.246E-19   -.486E-08 -.570E-07 0.522E-07
   0.106E-01 -.146E-04 -.108E-01   -.207E-01 0.284E-04 0.210E-01   0.496E-23 0.339E-20 -.127E-19   -.570E-07 -.486E-08 0.522E-07
   0.106E-01 0.106E-01 0.108E-01   -.207E-01 -.207E-01 -.210E-01   -.131E-21 -.627E-20 -.904E-20   -.570E-07 -.570E-07 -.478E-07
   -.106E-01 -.146E-04 0.108E-01   0.207E-01 0.284E-04 -.210E-01   0.183E-25 0.381E-20 0.340E-19   0.519E-07 -.486E-08 -.472E-07
   -.106E-01 0.106E-01 -.108E-01   0.207E-01 -.207E-01 0.210E-01   0.847E-21 -.234E-20 0.212E-20   0.525E-07 -.570E-07 0.523E-07
   0.146E-04 -.146E-04 -.108E-01   -.284E-04 0.284E-04 0.210E-01   0.847E-21 0.169E-19 -.148E-19   0.484E-08 -.486E-08 0.523E-07
   0.146E-04 0.106E-01 0.108E-01   -.284E-04 -.207E-01 -.210E-01   -.847E-21 0.220E-20 0.791E-20   0.484E-08 -.570E-07 -.478E-07
   0.108E-01 -.146E-04 0.108E-01   -.210E-01 0.284E-04 -.210E-01   -.145E-20 0.508E-20 0.472E-19   -.472E-07 -.486E-08 -.472E-07
   0.108E-01 0.106E-01 -.108E-01   -.210E-01 -.207E-01 0.210E-01   0.562E-21 0.317E-20 -.216E-19   -.478E-07 -.570E-07 0.523E-07
   -.108E-01 -.146E-04 -.108E-01   0.210E-01 0.284E-04 0.210E-01   -.749E-27 0.169E-20 0.381E-20   0.522E-07 -.486E-08 0.522E-07
   -.108E-01 0.106E-01 0.108E-01   0.210E-01 -.207E-01 -.210E-01   -.358E-27 -.119E-20 0.151E-19   0.523E-07 -.570E-07 -.478E-07
   -.146E-04 -.106E-01 0.108E-01   0.284E-04 0.207E-01 -.210E-01   -.169E-20 -.212E-20 0.175E-19   -.486E-08 0.519E-07 -.472E-07
   -.146E-04 0.146E-04 -.108E-01   0.284E-04 -.284E-04 0.210E-01   0.249E-27 0.381E-20 0.385E-19   -.486E-08 0.484E-08 0.523E-07
   0.106E-01 -.106E-01 -.108E-01   -.207E-01 0.207E-01 0.210E-01   -.160E-20 -.805E-20 -.127E-19   -.570E-07 0.525E-07 0.523E-07
   0.106E-01 0.146E-04 0.108E-01   -.207E-01 -.284E-04 -.210E-01   0.122E-20 0.424E-20 -.133E-19   -.570E-07 0.484E-08 -.478E-07
   -.106E-01 -.106E-01 0.108E-01   0.207E-01 0.207E-01 -.210E-01   -.191E-25 0.127E-20 0.141E-19   0.520E-07 0.520E-07 -.472E-07
   -.106E-01 0.146E-04 -.108E-01   0.207E-01 -.284E-04 0.210E-01   0.847E-21 0.106E-19 0.847E-21   0.525E-07 0.484E-08 0.522E-07
   0.146E-04 -.106E-01 -.108E-01   -.284E-04 0.207E-01 0.210E-01   -.847E-21 -.424E-21 0.762E-20   0.484E-08 0.525E-07 0.522E-07
   0.146E-04 0.146E-04 0.108E-01   -.284E-04 -.284E-04 -.210E-01   0.424E-21 0.110E-19 -.162E-19   0.484E-08 0.484E-08 -.479E-07
   0.108E-01 -.106E-01 0.108E-01   -.210E-01 0.207E-01 -.210E-01   -.155E-20 0.339E-20 0.103E-19   -.472E-07 0.520E-07 -.472E-07
   0.108E-01 0.146E-04 -.108E-01   -.210E-01 -.284E-04 0.210E-01   0.110E-20 0.424E-20 0.208E-19   -.478E-07 0.484E-08 0.522E-07
   -.108E-01 -.106E-01 -.108E-01   0.210E-01 0.207E-01 0.210E-01   -.382E-25 0.593E-20 0.424E-20   0.523E-07 0.525E-07 0.523E-07
   -.108E-01 0.146E-04 0.108E-01   0.210E-01 -.284E-04 -.210E-01   0.185E-25 -.593E-20 -.563E-20   0.522E-07 0.484E-08 -.478E-07
   -.146E-04 0.108E-01 0.108E-01   0.284E-04 -.210E-01 -.210E-01   0.424E-21 0.675E-21 -.236E-19   -.486E-08 -.472E-07 -.472E-07
   -.146E-04 -.108E-01 -.108E-01   0.284E-04 0.210E-01 0.210E-01   0.423E-21 0.123E-19 0.466E-20   -.486E-08 0.522E-07 0.522E-07
   0.106E-01 0.108E-01 -.108E-01   -.207E-01 -.210E-01 0.210E-01   -.214E-21 -.123E-19 0.847E-21   -.570E-07 -.478E-07 0.523E-07
   0.106E-01 -.108E-01 0.108E-01   -.207E-01 0.210E-01 -.210E-01   -.135E-20 0.424E-20 0.219E-19   -.570E-07 0.523E-07 -.478E-07
   -.106E-01 0.108E-01 0.108E-01   0.207E-01 -.210E-01 -.210E-01   -.228E-27 0.675E-21 -.613E-19   0.520E-07 -.472E-07 -.472E-07
   -.106E-01 -.108E-01 -.108E-01   0.207E-01 0.210E-01 0.210E-01   -.424E-21 0.424E-20 0.805E-20   0.525E-07 0.523E-07 0.523E-07
   0.146E-04 0.108E-01 -.108E-01   -.284E-04 -.210E-01 0.210E-01   0.423E-21 0.199E-19 0.106E-19   0.484E-08 -.478E-07 0.522E-07
   0.146E-04 -.108E-01 0.108E-01   -.284E-04 0.210E-01 -.210E-01   0.847E-21 -.635E-20 -.267E-20   0.484E-08 0.522E-07 -.478E-07
   0.108E-01 0.108E-01 0.108E-01   -.210E-01 -.210E-01 -.210E-01   0.102E-20 -.652E-20 -.384E-19   -.472E-07 -.472E-07 -.472E-07
   0.108E-01 -.108E-01 -.108E-01   -.210E-01 0.210E-01 0.210E-01   0.741E-21 -.635E-20 0.102E-19   -.478E-07 0.523E-07 0.523E-07
   -.108E-01 0.108E-01 -.108E-01   0.210E-01 -.210E-01 0.210E-01   -.193E-25 0.148E-19 -.165E-19   0.523E-07 -.478E-07 0.523E-07
   -.108E-01 -.108E-01 0.108E-01   0.210E-01 0.210E-01 -.210E-01   -.189E-25 -.381E-20 0.177E-19   0.523E-07 0.523E-07 -.478E-07
 -----------------------------------------------------------------------------------------------
   0.177E-08 0.180E-08 0.172E-08   0.270E-12 -.146E-12 0.576E-11   -.935E-20 0.751E-19 -.114E-18   -.121E-08 -.121E-08 -.121E-08
 
 
 POSITION                                       TOTAL-FORCE (eV/Angst)
 -----------------------------------------------------------------------------------
     -0.00000      0.00000      0.00000        -0.000000      0.000000      0.000000
     -0.00000      1.70355      1.70355         0.000000     -0.000000      0.000000
      1.70355     -0.00000      1.70355         0.000000     -0.000000     -0.000000
      1.70355      1.70355      0.00000        -0.000000     -0.000000      0.000000
      3.40704     -0.00000      0.00000         0.000000      0.000000     -0.000000
      3.40704      1.70355      1.70355        -0.000000      0.000000      0.000000
      5.11059     -0.00000      1.70355        -0.000000     -0.000000     -0.000000
      5.11059      1.70355      0.00000         0.000000      0.000000      0.000000
      6.81414     -0.00000      0.00000         0.000000     -0.000000      0.000000
      6.81414      1.70355      1.70355         0.000000     -0.000000      0.000000
      8.51762     -0.00000      1.70355         0.000000      0.000000     -0.000000
      8.51762      1.70355      0.00000        -0.000000     -0.000000      0.000000
     -0.00000      3.40704      0.00000         0.000000     -0.000000      0.000000
     -0.00000      5.11059      1.70355         0.000000     -0.000000     -0.000000
      1.70355      3.40704      1.70355         0.000000      0.000000      0.000000
      1.70355      5.11059      0.00000        -0.000000     -0.000000      0.000000
      3.40704      3.40704      0.00000        -0.000000     -0.000000     -0.000000
      3.40704      5.11059      1.70355        -0.000000      0.000000     -0.000000
      5.11059      3.40704      1.70355         0.000000     -0.000000     -0.000000
      5.11059      5.11059      0.00000         0.000000      0.000000     -0.000000
      6.81414      3.40704      0.00000         0.000000     -0.000000     -0.000000
      6.81414      5.11059      1.70355        -0.000000     -0.000000     -0.000000
      8.51762      3.40704      1.70355         0.000000      0.000000      0.000000
      8.51762      5.11059      0.00000        -0.000000     -0.000000     -0.000000
     -0.00000      6.81414      0.00000         0.000000     -0.000000      0.000000
     -0.00000      8.51762      1.70355        -0.000000      0.000000     -0.000000
      1.70355      6.81414      1.70355        -0.000000     -0.000000      0.000000
      1.70355      8.51762      0.00000        -0.000000      0.000000      0.000000
      3.40704      6.81414      0.00000        -0.000000      0.000000     -0.000000
      3.40704      8.51762      1.70355        -0.000000     -0.000000      0.000000
      5.11059      6.81414      1.70355        -0.000000      0.000000      0.000000
      5.11059      8.51762      0.00000         0.000000     -0.000000     -0.000000
      6.81414      6.81414      0.00000         0.000000     -0.000000     -0.000000
      6.81414      8.51762      1.70355         0.000000      0.000000      0.000000
      8.51762      6.81414      1.70355         0.000000     -0.000000      0.000000
      8.51762      8.51762      0.00000        -0.000000      0.000000      0.000000
     -0.00000     -0.00000      3.40704         0.000000      0.000000      0.000000
     -0.00000      1.70355      5.11059         0.000000      0.000000      0.000000
      1.70355     -0.00000      5.11059        -0.000000     -0.000000     -0.000000
      1.70355      1.70355      3.40704         0.000000     -0.000000     -0.000000
      3.40704     -0.00000      3.40704        -0.000000     -0.000000      0.000000
      3.40704      1.70355      5.11059         0.000000     -0.000000      0.000000
      5.11059     -0.00000      5.11059         0.000000      0.000000     -0.000000
      5.11059      1.70355      3.40704         0.000000      0.000000     -0.000000
      6.81414     -0.00000      3.40704         0.000000     -0.000000     -0.000000
      6.81414      1.70355      5.11059        -0.000000     -0.000000      0.000000
      8.51762     -0.00000      5.11059        -0.000000     -0.000000     -0.000000
      8.51762      1.70355      3.40704         0.000000     -0.000000     -0.000000
     -0.00000      3.40704      3.40704         0.000000     -0.000000      0.000000
     -0.00000      5.11059      5.11059         0.000000      0.000000     -0.000000
      1.70355      3.40704      5.11059        -0.000000      0.000000      0.000000
      1.70355      5.11059      3.40704         0.000000     -0.000000      0.000000
      3.40704      3.40704      3.40704         0.000000     -0.000000      0.000000
      3.40704      5.11059      5.11059         0.000000      0.000000     -0.000000
      5.11059      3.40704      5.11059        -0.000000      0.000000     -0.000000
      5.11059      5.11059      3.40704         0.000000      0.000000      0.000000
      6.81414      3.40704      3.40704         0.000000     -0.000000      0.000000
      6.81414      5.11059      5.11059        -0.000000     -0.000000     -0.000000
      8.51762      3.40704      5.11059        -0.000000      0.000000      0.000000
      8.51762      5.11059      3.40704         0.000000      0.000000      0.000000
     -0.00000      6.81414      3.40704        -0.000000      0.000000     -0.000000
     -0.00000      8.51762      5.11059        -0.000000      0.000000      0.000000
      1.70355      6.81414      5.11059        -0.000000     -0.000000      0.000000
      1.70355      8.51762      3.40704         0.000000      0.000000     -0.000000
      3.40704      6.81414      3.40704         0.000000      0.000000      0.000000
      3.40704      8.51762      5.11059         0.000000      0.000000     -0.000000
      5.11059      6.81414      5.11059        -0.000000      0.000000     -0.000000
      5.11059      8.51762      3.40704        -0.000000     -0.000000      0.000000
      6.81414      6.81414      3.40704        -0.000000     -0.000000      0.000000
      6.81414      8.51762      5.11059         0.000000      0.000000      0.000000
      8.51762      6.81414      5.11059         0.000000     -0.000000     -0.000000
      8.51762      8.51762      3.40704         0.000000      0.000000     -0.000000
     -0.00000     -0.00000      6.81414         0.000000      0.000000      0.000000
     -0.00000      1.70355      8.51762         0.000000     -0.000000     -0.000000
      1.70355     -0.00000      8.51762        -0.000000     -0.000000      0.000000
      1.70355      1.70355      6.81414         0.000000     -0.000000      0.000000
      3.40704     -0.00000      6.81414        -0.000000     -0.000000     -0.000000
      3.40704      1.70355      8.51762         0.000000      0.000000     -0.000000
      5.11059     -0.00000      8.51762         0.000000      0.000000      0.000000
      5.11059      1.70355      6.81414         0.000000      0.000000     -0.000000
      6.81414     -0.00000      6.81414        -0.000000     -0.000000      0.000000
      6.81414      1.70355      8.51762        -0.000000      0.000000     -0.000000
      8.51762     -0.00000      8.51762        -0.000000      0.000000      0.000000
      8.51762      1.70355      6.81414         0.000000     -0.000000      0.000000
     -0.00000      3.40704      6.81414        -0.000000      0.000000      0.000000
     -0.00000      5.11059      8.51762        -0.000000      0.000000      0.000000
      1.70355      3.40704      8.51762        -0.000000      0.000000     -0.000000
      1.70355      5.11059      6.81414         0.000000     -0.000000     -0.000000
      3.40704      3.40704      6.81414         0.000000      0.000000     -0.000000
      3.40704      5.11059      8.51762         0.000000      0.000000      0.000000
      5.11059      3.40704      8.51762        -0.000000     -0.000000      0.000000
      5.11059      5.11059      6.81414         0.000000      0.000000     -0.000000
      6.81414      3.40704      6.81414         0.000000     -0.000000     -0.000000
      6.81414      5.11059      8.51762        -0.000000     -0.000000      0.000000
      8.51762      3.40704      8.51762         0.000000      0.000000     -0.000000
      8.51762      5.11059      6.81414         0.000000     -0.000000     -0.000000
     -0.00000      6.81414      6.81414        -0.000000     -0.000000     -0.000000
     -0.00000      8.51762      8.51762        -0.000000      0.000000      0.000000
      1.70355      6.81414      8.51762         0.000000     -0.000000     -0.000000
      1.70355      8.51762      6.81414         0.000000      0.000000      0.000000
      3.40704      6.81414      6.81414        -0.000000      0.000000     -0.000000
      3.40704      8.51762      8.51762         0.000000      0.000000      0.000000
      5.11059      6.81414      8.51762        -0.000000      0.000000      0.000000
      5.11059      8.51762      6.81414         0.000000     -0.000000     -0.000000
      6.81414      6.81414      6.81414        -0.000000     -0.000000     -0.000000
      6.81414      8.51762      8.51762        -0.000000      0.000000     -0.000000
      8.51762      6.81414      8.51762         0.000000     -0.000000     -0.000000
      8.51762      8.51762      6.81414         0.000000      0.000000      0.000000
 -----------------------------------------------------------------------------------
    total drift:                                0.000000      0.000000      0.000000


--------------------------------------------------------------------------------------------------------



  FREE ENERGIE OF THE ION-ELECTRON SYSTEM (eV)
  ---------------------------------------------------
  free  energy   TOTEN  =      -877.73531915 eV

  energy  without entropy=     -877.63291080  energy(sigma->0) =     -877.70118303
 
 d Force = 0.0000000E+00[ 0.000E+00, 0.000E+00]  d Energy = 0.1779242E-02-0.178E-02
 d Force = 0.0000000E+00[ 0.000E+00, 0.000E+00]  d Ewald  = 0.2345254E+02-0.235E+02


--------------------------------------------------------------------------------------------------------


    POTLOK:  cpu time    0.3442: real time    0.3442


--------------------------------------------------------------------------------------------------------




--------------------------------------------------------------------------------------------------------


  
 reached required accuracy - stopping structural energy minimisation
     LOOP+:  cpu time  426.8684: real time  427.0331
    4ORBIT:  cpu time    0.0000: real time    0.0000

 total amount of memory used by VASP MPI-rank0   166146. kBytes
=======================================================================

   base      :      30000. kBytes
   nonlr-proj:      49212. kBytes
   fftplans  :      15383. kBytes
   grid      :      21835. kBytes
   one-center:        419. kBytes
   wavefun   :      49297. kBytes
 
  
  
 General timing and accounting informations for this job:
 ========================================================
  
                  Total CPU time used (sec):     3194.465
                            User time (sec):     3190.432
                          System time (sec):        4.033
                         Elapsed time (sec):     3195.391
  
                   Maximum memory used (kb):      220504.
                   Average memory used (kb):           0.
  
                          Minor page faults:       194658
                          Major page faults:            0
                 Voluntary context switches:          916
