<?xml version="1.0" encoding="ISO-8859-1"?>
<modeling>
 <generator>
  <i name="program" type="string">vasp </i>
  <i name="version" type="string">5.4.4.18Apr17-6-g9f103f2a35  </i>
  <i name="subversion" type="string">(build Aug 17 2017 06:00:38) complex            parallel </i>
  <i name="platform" type="string">LinuxIFC </i>
  <i name="date" type="string">2019 07 12 </i>
  <i name="time" type="string">14:57:57 </i>
 </generator>
 <incar>
  <i type="string" name="SYSTEM">Opt</i>
  <i type="int" name="ISTART">     0</i>
  <i type="string" name="PREC">normal</i>
  <i type="string" name="ALGO"> Fast</i>
  <i type="int" name="ISPIN">     1</i>
  <i type="int" name="ICHARG">     2</i>
  <i type="int" name="NELM">   400</i>
  <i type="int" name="IBRION">     2</i>
  <i name="EDIFF">      0.00000100</i>
  <i name="EDIFFG">     -0.01000000</i>
  <i type="int" name="NSW">   100</i>
  <i type="int" name="ISIF">     3</i>
  <i name="ENCUT">    250.00000000</i>
  <i type="int" name="NGX">    72</i>
  <i type="int" name="NGY">    72</i>
  <i type="int" name="NGZ">    72</i>
  <i name="POTIM">      0.50000000</i>
  <i type="string" name="LREAL">Auto</i>
  <i type="logical" name="LWAVE"> F  </i>
  <i type="logical" name="LCHARG"> F  </i>
  <v type="int" name="KPOINT_BSE">    -1     0     0     0</v>
  <i type="int" name="NELM">   400</i>
 </incar>
 <structure name="primitive_cell" >
  <crystal>
   <varray name="basis" >
    <v>       3.44492529       0.00000000       0.00000000 </v>
    <v>       0.00000000       3.44492529       0.00000000 </v>
    <v>       0.00000000       0.00000000       3.44492524 </v>
   </varray>
   <i name="volume">     40.88268566 </i>
   <varray name="rec_basis" >
    <v>       0.29028206       0.00000000       0.00000000 </v>
    <v>       0.00000000       0.29028206       0.00000000 </v>
    <v>       0.00000000       0.00000000       0.29028206 </v>
   </varray>
  </crystal>
  <varray name="positions" >
   <v>       0.00000000       0.00000000       0.00000000 </v>
   <v>       0.00000000      -0.49998976      -0.49998975 </v>
   <v>      -0.49998976       0.00000000      -0.49998975 </v>
   <v>      -0.49998976      -0.49998976       0.00000000 </v>
  </varray>
 </structure>
 <varray name="primitive_index" >
  <v type="int" >        1 </v>
  <v type="int" >        2 </v>
  <v type="int" >        3 </v>
  <v type="int" >        4 </v>
 </varray>
 <kpoints>
  <generation param="Monkhorst-Pack">
   <v type="int" name="divisions">       4        4        4 </v>
   <v name="usershift">      0.00000000       0.00000000       0.00000000 </v>
   <v name="genvec1">      0.25000000       0.00000000       0.00000000 </v>
   <v name="genvec2">      0.00000000       0.25000000       0.00000000 </v>
   <v name="genvec3">      0.00000000       0.00000000       0.25000000 </v>
   <v name="shift">      0.50000000       0.50000000       0.50000000 </v>
  </generation>
  <varray name="kpointlist" >
   <v>       0.12500000       0.12500000       0.12500000 </v>
   <v>       0.37500000       0.12500000       0.12500000 </v>
   <v>       0.37500000       0.37500000       0.12500000 </v>
   <v>       0.37500000       0.37500000       0.37500000 </v>
  </varray>
  <varray name="weights" >
   <v>       0.12500000 </v>
   <v>       0.37500000 </v>
   <v>       0.37500000 </v>
   <v>       0.12500000 </v>
  </varray>
 </kpoints>
 <parameters>
  <separator name="general" >
   <i type="string" name="SYSTEM">Opt</i>
   <i type="logical" name="LCOMPAT"> F  </i>
  </separator>
  <separator name="electronic" >
   <i type="string" name="PREC">normal</i>
   <i name="ENMAX">    250.00000000</i>
   <i name="ENAUG">    511.36800000</i>
   <i name="EDIFF">      0.00000100</i>
   <i type="int" name="IALGO">    68</i>
   <i type="int" name="IWAVPR">    11</i>
   <i type="int" name="NBANDS">   518</i>
   <i name="NELECT">    864.00000000</i>
   <i type="int" name="TURBO">     0</i>
   <i type="int" name="IRESTART">     0</i>
   <i type="int" name="NREBOOT">     0</i>
   <i type="int" name="NMIN">     0</i>
   <i name="EREF">      0.00000000</i>
   <separator name="electronic smearing" >
    <i type="int" name="ISMEAR">     1</i>
    <i name="SIGMA">      0.20000000</i>
    <i name="KSPACING">      0.50000000</i>
    <i type="logical" name="KGAMMA"> T  </i>
   </separator>
   <separator name="electronic projectors" >
    <i type="logical" name="LREAL"> T  </i>
    <v name="ROPT">     -0.00050000</v>
    <i type="int" name="LMAXPAW">  -100</i>
    <i type="int" name="LMAXMIX">     2</i>
    <i type="logical" name="NLSPLINE"> F  </i>
   </separator>
   <separator name="electronic startup" >
    <i type="int" name="ISTART">     0</i>
    <i type="int" name="ICHARG">     2</i>
    <i type="int" name="INIWAV">     1</i>
   </separator>
   <separator name="electronic spin" >
    <i type="int" name="ISPIN">     1</i>
    <i type="logical" name="LNONCOLLINEAR"> F  </i>
    <v name="MAGMOM">      1.00000000      1.00000000      1.00000000      1.00000000      1.00000000      1.00000000      1.00000000      1.00000000      1.00000000      1.00000000      1.00000000      1.00000000      1.00000000      1.00000000      1.00000000      1.00000000      1.00000000      1.00000000      1.00000000      1.00000000
      1.00000000      1.00000000      1.00000000      1.00000000      1.00000000      1.00000000      1.00000000      1.00000000      1.00000000      1.00000000      1.00000000      1.00000000      1.00000000      1.00000000      1.00000000      1.00000000      1.00000000      1.00000000      1.00000000      1.00000000
      1.00000000      1.00000000      1.00000000      1.00000000      1.00000000      1.00000000      1.00000000      1.00000000      1.00000000      1.00000000      1.00000000      1.00000000      1.00000000      1.00000000      1.00000000      1.00000000      1.00000000      1.00000000      1.00000000      1.00000000
      1.00000000      1.00000000      1.00000000      1.00000000      1.00000000      1.00000000      1.00000000      1.00000000      1.00000000      1.00000000      1.00000000      1.00000000      1.00000000      1.00000000      1.00000000      1.00000000      1.00000000      1.00000000      1.00000000      1.00000000
      1.00000000      1.00000000      1.00000000      1.00000000      1.00000000      1.00000000      1.00000000      1.00000000      1.00000000      1.00000000      1.00000000      1.00000000      1.00000000      1.00000000      1.00000000      1.00000000      1.00000000      1.00000000      1.00000000      1.00000000
      1.00000000      1.00000000      1.00000000      1.00000000      1.00000000      1.00000000      1.00000000      1.00000000</v>
    <i name="NUPDOWN">     -1.00000000</i>
    <i type="logical" name="LSORBIT"> F  </i>
    <v name="SAXIS">      0.00000000      0.00000000      1.00000000</v>
    <i type="logical" name="LSPIRAL"> F  </i>
    <v name="QSPIRAL">      0.00000000      0.00000000      0.00000000</v>
    <i type="logical" name="LZEROZ"> F  </i>
   </separator>
   <separator name="electronic exchange-correlation" >
    <i type="logical" name="LASPH"> F  </i>
    <i type="logical" name="LMETAGGA"> F  </i>
   </separator>
   <separator name="electronic convergence" >
    <i type="int" name="NELM">   400</i>
    <i type="int" name="NELMDL">    -5</i>
    <i type="int" name="NELMIN">     2</i>
    <i name="ENINI">    250.00000000</i>
    <separator name="electronic convergence detail" >
     <i type="logical" name="LDIAG"> T  </i>
     <i type="logical" name="LSUBROT"> F  </i>
     <i name="WEIMIN">      0.00100000</i>
     <i name="EBREAK">      0.00000000</i>
     <i name="DEPER">      0.30000000</i>
     <i type="int" name="NRMM">     4</i>
     <i name="TIME">      0.40000000</i>
    </separator>
   </separator>
   <separator name="electronic mixer" >
    <i name="AMIX">      0.40000000</i>
    <i name="BMIX">      1.00000000</i>
    <i name="AMIN">      0.10000000</i>
    <i name="AMIX_MAG">      1.60000000</i>
    <i name="BMIX_MAG">      1.00000000</i>
    <separator name="electronic mixer details" >
     <i type="int" name="IMIX">     4</i>
     <i type="logical" name="MIXFIRST"> F  </i>
     <i type="int" name="MAXMIX">   -45</i>
     <i name="WC">    100.00000000</i>
     <i type="int" name="INIMIX">     1</i>
     <i type="int" name="MIXPRE">     1</i>
     <i type="int" name="MREMOVE">     5</i>
    </separator>
   </separator>
   <separator name="electronic dipolcorrection" >
    <i type="logical" name="LDIPOL"> F  </i>
    <i type="logical" name="LMONO"> F  </i>
    <i type="int" name="IDIPOL">     0</i>
    <i name="EPSILON">      1.00000000</i>
    <v name="DIPOL">   -100.00000000   -100.00000000   -100.00000000</v>
    <i name="EFIELD">      0.00000000</i>
   </separator>
  </separator>
  <separator name="grids" >
   <i type="int" name="NGX">    72</i>
   <i type="int" name="NGY">    72</i>
   <i type="int" name="NGZ">    72</i>
   <i type="int" name="NGXF">   144</i>
   <i type="int" name="NGYF">   144</i>
   <i type="int" name="NGZF">   144</i>
   <i type="logical" name="ADDGRID"> F  </i>
  </separator>
  <separator name="ionic" >
   <i type="int" name="NSW">   100</i>
   <i type="int" name="IBRION">     2</i>
   <i type="int" name="MDALGO">     0</i>
   <i type="int" name="ISIF">     3</i>
   <i name="PSTRESS">      0.00000000</i>
   <i name="EDIFFG">     -0.01000000</i>
   <i type="int" name="NFREE">     1</i>
   <i name="POTIM">      0.50000000</i>
   <i name="SMASS">     -3.00000000</i>
   <i name="SCALEE">      1.00000000</i>
  </separator>
  <separator name="ionic md" >
   <i name="TEBEG">      0.00010000</i>
   <i name="TEEND">      0.00010000</i>
   <i type="int" name="NBLOCK">     1</i>
   <i type="int" name="KBLOCK">   100</i>
   <i type="int" name="NPACO">   256</i>
   <i name="APACO">     16.00000000</i>
  </separator>
  <separator name="symmetry" >
   <i type="int" name="ISYM">     2</i>
   <i name="SYMPREC">      0.00001000</i>
  </separator>
  <separator name="dos" >
   <i type="int" name="LORBIT">     0</i>
   <v name="RWIGS">     -1.00000000</v>
   <i type="int" name="NEDOS">   301</i>
   <i name="EMIN">     10.00000000</i>
   <i name="EMAX">    -10.00000000</i>
   <i name="EFERMI">      0.00000000</i>
  </separator>
  <separator name="writing" >
   <i type="int" name="NWRITE">     2</i>
   <i type="logical" name="LWAVE"> F  </i>
   <i type="logical" name="LDOWNSAMPLE"> F  </i>
   <i type="logical" name="LCHARG"> F  </i>
   <i type="logical" name="LPARD"> F  </i>
   <i type="logical" name="LVTOT"> F  </i>
   <i type="logical" name="LVHAR"> F  </i>
   <i type="logical" name="LELF"> F  </i>
   <i type="logical" name="LOPTICS"> F  </i>
   <v name="STM">      0.00000000      0.00000000      0.00000000      0.00000000      0.00000000      0.00000000      0.00000000</v>
  </separator>
  <separator name="performance" >
   <i type="int" name="NPAR">     2</i>
   <i type="int" name="NSIM">     4</i>
   <i type="int" name="NBLK">    -1</i>
   <i type="logical" name="LPLANE"> T  </i>
   <i type="logical" name="LSCALAPACK"> T  </i>
   <i type="logical" name="LSCAAWARE"> F  </i>
   <i type="logical" name="LSCALU"> F  </i>
   <i type="logical" name="LASYNC"> F  </i>
   <i type="logical" name="LORBITALREAL"> F  </i>
  </separator>
  <separator name="miscellaneous" >
   <i type="int" name="IDIOT">     3</i>
   <i type="int" name="ISPECIAL">     0</i>
   <i type="logical" name="LMUSIC"> F  </i>
   <v name="POMASS">     55.84700000</v>
   <v name="DARWINR">      0.00000000</v>
   <v name="DARWINV">      1.00000000</v>
   <i type="logical" name="LCORR"> T  </i>
  </separator>
  <i type="logical" name="GGA_COMPAT"> T  </i>
  <i type="logical" name="LBERRY"> F  </i>
  <i type="int" name="ICORELEVEL">     0</i>
  <i type="logical" name="LDAU"> F  </i>
  <i type="int" name="I_CONSTRAINED_M">     0</i>
  <separator name="electronic exchange-correlation" >
   <i type="string" name="GGA">--</i>
   <i type="int" name="VOSKOWN">     0</i>
   <i type="logical" name="LHFCALC"> F  </i>
   <i type="string" name="PRECFOCK"></i>
   <i type="logical" name="LSYMGRAD"> F  </i>
   <i type="logical" name="LHFONE"> F  </i>
   <i type="logical" name="LRHFCALC"> F  </i>
   <i type="logical" name="LTHOMAS"> F  </i>
   <i type="logical" name="LMODELHF"> F  </i>
   <i name="ENCUT4O">     -1.00000000</i>
   <i type="int" name="EXXOEP">     0</i>
   <i type="int" name="FOURORBIT">     0</i>
   <i name="AEXX">      0.00000000</i>
   <i name="HFALPHA">      0.00000000</i>
   <i name="MCALPHA">      0.00000000</i>
   <i name="ALDAX">      1.00000000</i>
   <i name="AGGAX">      1.00000000</i>
   <i name="ALDAC">      1.00000000</i>
   <i name="AGGAC">      1.00000000</i>
   <i type="int" name="NKREDX">     1</i>
   <i type="int" name="NKREDY">     1</i>
   <i type="int" name="NKREDZ">     1</i>
   <i type="logical" name="SHIFTRED"> F  </i>
   <i type="logical" name="ODDONLY"> F  </i>
   <i type="logical" name="EVENONLY"> F  </i>
   <i type="int" name="LMAXFOCK">     0</i>
   <i type="int" name="NMAXFOCKAE">     0</i>
   <i type="logical" name="LFOCKAEDFT"> F  </i>
   <i name="HFSCREEN">      0.00000000</i>
   <i name="HFSCREENC">      0.00000000</i>
   <i type="int" name="NBANDSGWLOW">     0</i>
  </separator>
  <separator name="vdW DFT" >
   <i type="logical" name="LUSE_VDW"> F  </i>
   <i name="Zab_VDW">     -0.84910000</i>
   <i name="PARAM1">      0.12340000</i>
   <i name="PARAM2">      1.00000000</i>
   <i name="PARAM3">      0.00000000</i>
  </separator>
  <separator name="model GW" >
   <i type="int" name="MODEL_GW">     0</i>
   <i name="MODEL_EPS0">      6.13252964</i>
   <i name="MODEL_ALPHA">      1.00000000</i>
  </separator>
  <separator name="linear response parameters" >
   <i type="logical" name="LEPSILON"> F  </i>
   <i type="logical" name="LRPA"> F  </i>
   <i type="logical" name="LNABLA"> F  </i>
   <i type="logical" name="LVEL"> F  </i>
   <i type="int" name="KINTER">     0</i>
   <i name="CSHIFT">      0.10000000</i>
   <i name="OMEGAMAX">     -1.00000000</i>
   <i name="DEG_THRESHOLD">      0.00200000</i>
   <i name="RTIME">     -0.10000000</i>
   <i name="WPLASMAI">      0.00000000</i>
   <v name="DFIELD">      0.00000000      0.00000000      0.00000000</v>
   <v name="WPLASMA">      0.00000000      0.00000000      0.00000000      0.00000000      0.00000000      0.00000000      0.00000000      0.00000000      0.00000000</v>
  </separator>
  <separator name="orbital magnetization" >
   <i type="logical" name="NUCIND"> F  </i>
   <v name="MAGPOS">      0.00000000      0.00000000      0.00000000</v>
   <i type="logical" name="LNICSALL"> T  </i>
   <i type="logical" name="ORBITALMAG"> F  </i>
   <i type="logical" name="LMAGBLOCH"> F  </i>
   <i type="logical" name="LCHIMAG"> F  </i>
   <i type="logical" name="LGAUGE"> T  </i>
   <i type="int" name="MAGATOM">     0</i>
   <v name="MAGDIPOL">      0.00000000      0.00000000      0.00000000</v>
   <v name="AVECCONST">      0.00000000      0.00000000      0.00000000</v>
  </separator>
  <separator name="response functions" >
   <i type="logical" name="LADDER"> F  </i>
   <i type="logical" name="LRPAFORCE"> F  </i>
   <i type="logical" name="LFXC"> F  </i>
   <i type="logical" name="LHARTREE"> T  </i>
   <i type="int" name="IBSE">     0</i>
   <v type="int" name="KPOINT">    -1     0     0     0</v>
   <i type="logical" name="LTCTE"> F  </i>
   <i type="logical" name="LTETE"> F  </i>
   <i type="logical" name="LTRIPLET"> F  </i>
   <i type="logical" name="LFXCEPS"> F  </i>
   <i type="logical" name="LFXHEG"> F  </i>
   <i type="int" name="NATURALO">     2</i>
   <i type="logical" name="L2ORDER"> F  </i>
   <i type="logical" name="LMP2LT"> F  </i>
   <i type="logical" name="LUSEW"> F  </i>
   <i name="ENCUTGW">     -2.00000000</i>
   <i name="ENCUTGWSOFT">     -2.00000000</i>
   <i name="ENCUTLF">     -1.00000000</i>
   <i type="int" name="LMAXMP2">    -1</i>
   <i name="SCISSOR">      0.00000000</i>
   <i type="int" name="NOMEGA">     0</i>
   <i type="int" name="NOMEGAR">     0</i>
   <i type="int" name="NBANDSGW">    -1</i>
   <i type="int" name="NBANDSO">    -1</i>
   <i type="int" name="NBANDSV">    -1</i>
   <i type="int" name="NELM">   400</i>
   <i type="int" name="NELMHF">     1</i>
   <i type="int" name="DIM">     3</i>
   <i type="int" name="ANTIRES">     0</i>
   <i name="OMEGAMAX">    -30.00000000</i>
   <i name="OMEGAMIN">    -30.00000000</i>
   <i name="OMEGATL">   -200.00000000</i>
   <i type="int" name="OMEGAGRID">   140</i>
   <i name="CSHIFT">     -0.10000000</i>
   <i type="logical" name="SELFENERGY"> F  </i>
   <i type="logical" name="LSPECTRAL"> F  </i>
   <i type="logical" name="LSPECTRALGW"> F  </i>
   <i type="logical" name="LSINGLES"> F  </i>
   <i type="logical" name="LFERMIGW"> F  </i>
   <i type="logical" name="ODDONLYGW"> F  </i>
   <i type="logical" name="EVENONLYGW"> F  </i>
   <i type="int" name="NKREDLFX">     1</i>
   <i type="int" name="NKREDLFY">     1</i>
   <i type="int" name="NKREDLFZ">     1</i>
   <i type="int" name="MAXMEM">  2800</i>
   <i type="int" name="TELESCOPE">     0</i>
   <i type="int" name="TAUPAR">     1</i>
   <i type="int" name="OMEGAPAR">    -1</i>
   <i name="LAMBDA">      1.00000000</i>
  </separator>
  <separator name="External order field" >
   <i name="OFIELD_KAPPA">      0.00000000</i>
   <v name="OFIELD_K">      0.00000000      0.00000000      0.00000000</v>
   <i name="OFIELD_Q6_NEAR">      0.00000000</i>
   <i name="OFIELD_Q6_FAR">      0.00000000</i>
   <i name="OFIELD_A">      0.00000000</i>
  </separator>
 </parameters>
 <atominfo>
  <atoms>     108 </atoms>
  <types>       1 </types>
  <array name="atoms" >
   <dimension dim="1">ion</dimension>
   <field type="string">element</field>
   <field type="int">atomtype</field>
   <set>
    <rc><c>Fe</c><c>   1</c></rc>
    <rc><c>Fe</c><c>   1</c></rc>
    <rc><c>Fe</c><c>   1</c></rc>
    <rc><c>Fe</c><c>   1</c></rc>
    <rc><c>Fe</c><c>   1</c></rc>
    <rc><c>Fe</c><c>   1</c></rc>
    <rc><c>Fe</c><c>   1</c></rc>
    <rc><c>Fe</c><c>   1</c></rc>
    <rc><c>Fe</c><c>   1</c></rc>
    <rc><c>Fe</c><c>   1</c></rc>
    <rc><c>Fe</c><c>   1</c></rc>
    <rc><c>Fe</c><c>   1</c></rc>
    <rc><c>Fe</c><c>   1</c></rc>
    <rc><c>Fe</c><c>   1</c></rc>
    <rc><c>Fe</c><c>   1</c></rc>
    <rc><c>Fe</c><c>   1</c></rc>
    <rc><c>Fe</c><c>   1</c></rc>
    <rc><c>Fe</c><c>   1</c></rc>
    <rc><c>Fe</c><c>   1</c></rc>
    <rc><c>Fe</c><c>   1</c></rc>
    <rc><c>Fe</c><c>   1</c></rc>
    <rc><c>Fe</c><c>   1</c></rc>
    <rc><c>Fe</c><c>   1</c></rc>
    <rc><c>Fe</c><c>   1</c></rc>
    <rc><c>Fe</c><c>   1</c></rc>
    <rc><c>Fe</c><c>   1</c></rc>
    <rc><c>Fe</c><c>   1</c></rc>
    <rc><c>Fe</c><c>   1</c></rc>
    <rc><c>Fe</c><c>   1</c></rc>
    <rc><c>Fe</c><c>   1</c></rc>
    <rc><c>Fe</c><c>   1</c></rc>
    <rc><c>Fe</c><c>   1</c></rc>
    <rc><c>Fe</c><c>   1</c></rc>
    <rc><c>Fe</c><c>   1</c></rc>
    <rc><c>Fe</c><c>   1</c></rc>
    <rc><c>Fe</c><c>   1</c></rc>
    <rc><c>Fe</c><c>   1</c></rc>
    <rc><c>Fe</c><c>   1</c></rc>
    <rc><c>Fe</c><c>   1</c></rc>
    <rc><c>Fe</c><c>   1</c></rc>
    <rc><c>Fe</c><c>   1</c></rc>
    <rc><c>Fe</c><c>   1</c></rc>
    <rc><c>Fe</c><c>   1</c></rc>
    <rc><c>Fe</c><c>   1</c></rc>
    <rc><c>Fe</c><c>   1</c></rc>
    <rc><c>Fe</c><c>   1</c></rc>
    <rc><c>Fe</c><c>   1</c></rc>
    <rc><c>Fe</c><c>   1</c></rc>
    <rc><c>Fe</c><c>   1</c></rc>
    <rc><c>Fe</c><c>   1</c></rc>
    <rc><c>Fe</c><c>   1</c></rc>
    <rc><c>Fe</c><c>   1</c></rc>
    <rc><c>Fe</c><c>   1</c></rc>
    <rc><c>Fe</c><c>   1</c></rc>
    <rc><c>Fe</c><c>   1</c></rc>
    <rc><c>Fe</c><c>   1</c></rc>
    <rc><c>Fe</c><c>   1</c></rc>
    <rc><c>Fe</c><c>   1</c></rc>
    <rc><c>Fe</c><c>   1</c></rc>
    <rc><c>Fe</c><c>   1</c></rc>
    <rc><c>Fe</c><c>   1</c></rc>
    <rc><c>Fe</c><c>   1</c></rc>
    <rc><c>Fe</c><c>   1</c></rc>
    <rc><c>Fe</c><c>   1</c></rc>
    <rc><c>Fe</c><c>   1</c></rc>
    <rc><c>Fe</c><c>   1</c></rc>
    <rc><c>Fe</c><c>   1</c></rc>
    <rc><c>Fe</c><c>   1</c></rc>
    <rc><c>Fe</c><c>   1</c></rc>
    <rc><c>Fe</c><c>   1</c></rc>
    <rc><c>Fe</c><c>   1</c></rc>
    <rc><c>Fe</c><c>   1</c></rc>
    <rc><c>Fe</c><c>   1</c></rc>
    <rc><c>Fe</c><c>   1</c></rc>
    <rc><c>Fe</c><c>   1</c></rc>
    <rc><c>Fe</c><c>   1</c></rc>
    <rc><c>Fe</c><c>   1</c></rc>
    <rc><c>Fe</c><c>   1</c></rc>
    <rc><c>Fe</c><c>   1</c></rc>
    <rc><c>Fe</c><c>   1</c></rc>
    <rc><c>Fe</c><c>   1</c></rc>
    <rc><c>Fe</c><c>   1</c></rc>
    <rc><c>Fe</c><c>   1</c></rc>
    <rc><c>Fe</c><c>   1</c></rc>
    <rc><c>Fe</c><c>   1</c></rc>
    <rc><c>Fe</c><c>   1</c></rc>
    <rc><c>Fe</c><c>   1</c></rc>
    <rc><c>Fe</c><c>   1</c></rc>
    <rc><c>Fe</c><c>   1</c></rc>
    <rc><c>Fe</c><c>   1</c></rc>
    <rc><c>Fe</c><c>   1</c></rc>
    <rc><c>Fe</c><c>   1</c></rc>
    <rc><c>Fe</c><c>   1</c></rc>
    <rc><c>Fe</c><c>   1</c></rc>
    <rc><c>Fe</c><c>   1</c></rc>
    <rc><c>Fe</c><c>   1</c></rc>
    <rc><c>Fe</c><c>   1</c></rc>
    <rc><c>Fe</c><c>   1</c></rc>
    <rc><c>Fe</c><c>   1</c></rc>
    <rc><c>Fe</c><c>   1</c></rc>
    <rc><c>Fe</c><c>   1</c></rc>
    <rc><c>Fe</c><c>   1</c></rc>
    <rc><c>Fe</c><c>   1</c></rc>
    <rc><c>Fe</c><c>   1</c></rc>
    <rc><c>Fe</c><c>   1</c></rc>
    <rc><c>Fe</c><c>   1</c></rc>
    <rc><c>Fe</c><c>   1</c></rc>
    <rc><c>Fe</c><c>   1</c></rc>
   </set>
  </array>
  <array name="atomtypes" >
   <dimension dim="1">type</dimension>
   <field type="int">atomspertype</field>
   <field type="string">element</field>
   <field>mass</field>
   <field>valence</field>
   <field type="string">pseudopotential</field>
   <set>
    <rc><c> 108</c><c>Fe</c><c>     55.84700000</c><c>      8.00000000</c><c> PAW_PBE Fe 06Sep2000                   </c></rc>
   </set>
  </array>
 </atominfo>
 <structure name="initialpos" >
  <crystal>
   <varray name="basis" >
    <v>      10.33484705       0.00000000       0.00000000 </v>
    <v>       0.00000000      10.33484705       0.00000000 </v>
    <v>       0.00000000       0.00000000      10.33484705 </v>
   </varray>
   <i name="volume">   1103.85533447 </i>
   <varray name="rec_basis" >
    <v>       0.09676002       0.00000000       0.00000000 </v>
    <v>       0.00000000       0.09676002       0.00000000 </v>
    <v>       0.00000000       0.00000000       0.09676002 </v>
   </varray>
  </crystal>
  <varray name="positions" >
   <v>       0.00000000       0.00000000       0.00000000 </v>
   <v>       0.00000000       0.16666893       0.16666893 </v>
   <v>       0.16666893       0.00000000       0.16666893 </v>
   <v>       0.16666893       0.16666893       0.00000000 </v>
   <v>       0.33333106       0.00000000       0.00000000 </v>
   <v>       0.33333107       0.16666893       0.16666893 </v>
   <v>       0.50000000       0.00000000       0.16666894 </v>
   <v>       0.50000000       0.16666894       0.00000000 </v>
   <v>       0.66666897       0.00000000       0.00000000 </v>
   <v>       0.66666896       0.16666893       0.16666893 </v>
   <v>       0.83333104       0.00000000       0.16666893 </v>
   <v>       0.83333104       0.16666893       0.00000000 </v>
   <v>       0.00000000       0.33333106       0.00000000 </v>
   <v>       0.00000000       0.50000000       0.16666894 </v>
   <v>       0.16666893       0.33333107       0.16666893 </v>
   <v>       0.16666894       0.50000000       0.00000000 </v>
   <v>       0.33333107       0.33333107       0.00000000 </v>
   <v>       0.33333107       0.50000000       0.16666893 </v>
   <v>       0.50000000       0.33333107       0.16666893 </v>
   <v>       0.50000000       0.50000000       0.00000000 </v>
   <v>       0.66666896       0.33333107       0.00000000 </v>
   <v>       0.66666896       0.50000000       0.16666893 </v>
   <v>       0.83333104       0.33333107       0.16666893 </v>
   <v>       0.83333103       0.50000000       0.00000000 </v>
   <v>       0.00000000       0.66666897       0.00000000 </v>
   <v>       0.00000000       0.83333104       0.16666893 </v>
   <v>       0.16666893       0.66666896       0.16666893 </v>
   <v>       0.16666893       0.83333104       0.00000000 </v>
   <v>       0.33333107       0.66666896       0.00000000 </v>
   <v>       0.33333107       0.83333104       0.16666893 </v>
   <v>       0.50000000       0.66666896       0.16666893 </v>
   <v>       0.50000000       0.83333103       0.00000000 </v>
   <v>       0.66666896       0.66666896       0.00000000 </v>
   <v>       0.66666896       0.83333104       0.16666893 </v>
   <v>       0.83333104       0.66666896       0.16666893 </v>
   <v>       0.83333104       0.83333104       0.00000000 </v>
   <v>       0.00000000       0.00000000       0.33333106 </v>
   <v>       0.00000000       0.16666894       0.50000000 </v>
   <v>       0.16666894       0.00000000       0.50000000 </v>
   <v>       0.16666893       0.16666893       0.33333107 </v>
   <v>       0.33333107       0.00000000       0.33333107 </v>
   <v>       0.33333107       0.16666893       0.50000000 </v>
   <v>       0.50000000       0.00000000       0.50000000 </v>
   <v>       0.50000000       0.16666893       0.33333107 </v>
   <v>       0.66666896       0.00000000       0.33333107 </v>
   <v>       0.66666896       0.16666893       0.50000000 </v>
   <v>       0.83333103       0.00000000       0.50000000 </v>
   <v>       0.83333104       0.16666893       0.33333107 </v>
   <v>       0.00000000       0.33333107       0.33333107 </v>
   <v>       0.00000000       0.50000000       0.50000000 </v>
   <v>       0.16666893       0.33333107       0.50000000 </v>
   <v>       0.16666893       0.50000000       0.33333107 </v>
   <v>       0.33333107       0.33333107       0.33333107 </v>
   <v>       0.33333106       0.50000000       0.50000000 </v>
   <v>       0.50000000       0.33333106       0.50000000 </v>
   <v>       0.50000000       0.50000000       0.33333106 </v>
   <v>       0.66666896       0.33333107       0.33333107 </v>
   <v>       0.66666897       0.50000000       0.50000000 </v>
   <v>       0.83333104       0.33333107       0.50000000 </v>
   <v>       0.83333104       0.50000000       0.33333107 </v>
   <v>       0.00000000       0.66666896       0.33333107 </v>
   <v>       0.00000000       0.83333103       0.50000000 </v>
   <v>       0.16666893       0.66666896       0.50000000 </v>
   <v>       0.16666893       0.83333104       0.33333107 </v>
   <v>       0.33333107       0.66666896       0.33333107 </v>
   <v>       0.33333107       0.83333104       0.50000000 </v>
   <v>       0.50000000       0.66666897       0.50000000 </v>
   <v>       0.50000000       0.83333104       0.33333107 </v>
   <v>       0.66666896       0.66666896       0.33333107 </v>
   <v>       0.66666896       0.83333104       0.50000000 </v>
   <v>       0.83333104       0.66666896       0.50000000 </v>
   <v>       0.83333104       0.83333104       0.33333107 </v>
   <v>       0.00000000       0.00000000       0.66666897 </v>
   <v>       0.00000000       0.16666893       0.83333104 </v>
   <v>       0.16666893       0.00000000       0.83333104 </v>
   <v>       0.16666893       0.16666893       0.66666896 </v>
   <v>       0.33333107       0.00000000       0.66666896 </v>
   <v>       0.33333107       0.16666893       0.83333104 </v>
   <v>       0.50000000       0.00000000       0.83333103 </v>
   <v>       0.50000000       0.16666893       0.66666896 </v>
   <v>       0.66666896       0.00000000       0.66666896 </v>
   <v>       0.66666896       0.16666893       0.83333104 </v>
   <v>       0.83333104       0.00000000       0.83333104 </v>
   <v>       0.83333104       0.16666893       0.66666896 </v>
   <v>       0.00000000       0.33333107       0.66666896 </v>
   <v>       0.00000000       0.50000000       0.83333103 </v>
   <v>       0.16666893       0.33333107       0.83333104 </v>
   <v>       0.16666893       0.50000000       0.66666896 </v>
   <v>       0.33333107       0.33333107       0.66666896 </v>
   <v>       0.33333107       0.50000000       0.83333104 </v>
   <v>       0.50000000       0.33333107       0.83333104 </v>
   <v>       0.50000000       0.50000000       0.66666897 </v>
   <v>       0.66666896       0.33333107       0.66666896 </v>
   <v>       0.66666896       0.50000000       0.83333104 </v>
   <v>       0.83333104       0.33333107       0.83333104 </v>
   <v>       0.83333104       0.50000000       0.66666896 </v>
   <v>       0.00000000       0.66666896       0.66666896 </v>
   <v>       0.00000000       0.83333104       0.83333104 </v>
   <v>       0.16666893       0.66666896       0.83333104 </v>
   <v>       0.16666893       0.83333104       0.66666896 </v>
   <v>       0.33333107       0.66666896       0.66666896 </v>
   <v>       0.33333107       0.83333104       0.83333104 </v>
   <v>       0.50000000       0.66666896       0.83333104 </v>
   <v>       0.50000000       0.83333104       0.66666896 </v>
   <v>       0.66666896       0.66666896       0.66666896 </v>
   <v>       0.66666896       0.83333104       0.83333104 </v>
   <v>       0.83333104       0.66666896       0.83333104 </v>
   <v>       0.83333104       0.83333104       0.66666896 </v>
  </varray>
 </structure>
 <calculation>
  <scstep>
   <time name="dav">   41.21   41.26</time>
   <time name="total">   41.55   41.60</time>
   <energy>
    <i name="alphaZ">   7300.31925852 </i>
    <i name="ewald"> -66232.83996889 </i>
    <i name="hartreedc"> -11197.02572337 </i>
    <i name="XCdc">    446.63038354 </i>
    <i name="pawpsdc">  51723.88885462 </i>
    <i name="pawaedc"> -52548.28121372 </i>
    <i name="eentropy">      0.01143284 </i>
    <i name="bandstr">  11493.29486096 </i>
    <i name="atom">  64195.51168677 </i>
    <i name="e_fr_energy">   5181.50957128 </i>
    <i name="e_wo_entrp">   5181.49813843 </i>
    <i name="e_0_energy">   5181.50576033 </i>
   </energy>
  </scstep>
  <scstep>
   <time name="dav">   41.02   41.03</time>
   <time name="total">   41.03   41.03</time>
   <energy>
    <i name="e_fr_energy">   -395.28406825 </i>
    <i name="e_wo_entrp">   -395.23486022 </i>
    <i name="e_0_energy">   -395.26766557 </i>
   </energy>
  </scstep>
  <scstep>
   <time name="dav">   50.43   50.45</time>
   <time name="total">   50.44   50.46</time>
   <energy>
    <i name="e_fr_energy">   -976.46294667 </i>
    <i name="e_wo_entrp">   -976.51644290 </i>
    <i name="e_0_energy">   -976.48077874 </i>
   </energy>
  </scstep>
  <scstep>
   <time name="dav">   59.82   59.83</time>
   <time name="total">   59.83   59.84</time>
   <energy>
    <i name="e_fr_energy">  -1041.12907276 </i>
    <i name="e_wo_entrp">  -1041.03178451 </i>
    <i name="e_0_energy">  -1041.09664335 </i>
   </energy>
  </scstep>
  <scstep>
   <time name="dav">   56.51   56.53</time>
   <time name="total">   58.57   58.59</time>
   <energy>
    <i name="e_fr_energy">  -1046.46469220 </i>
    <i name="e_wo_entrp">  -1046.35464974 </i>
    <i name="e_0_energy">  -1046.42801138 </i>
   </energy>
  </scstep>
  <scstep>
   <time name="diag">    4.01    4.01</time>
   <time name="diis">   29.26   29.26</time>
   <time name="orth">    0.61    0.61</time>
   <time name="total">   36.28   36.29</time>
   <energy>
    <i name="e_fr_energy">   -876.39022557 </i>
    <i name="e_wo_entrp">   -876.34863338 </i>
    <i name="e_0_energy">   -876.37636151 </i>
   </energy>
  </scstep>
  <scstep>
   <time name="diag">    4.10    4.10</time>
   <time name="diis">   31.40   31.40</time>
   <time name="orth">    0.60    0.60</time>
   <time name="total">   38.47   38.48</time>
   <energy>
    <i name="e_fr_energy">   -877.22802158 </i>
    <i name="e_wo_entrp">   -877.09368186 </i>
    <i name="e_0_energy">   -877.18324167 </i>
   </energy>
  </scstep>
  <scstep>
   <time name="diag">    4.28    4.28</time>
   <time name="diis">   31.10   31.12</time>
   <time name="orth">    0.61    0.61</time>
   <time name="total">   38.38   38.41</time>
   <energy>
    <i name="e_fr_energy">   -876.83546768 </i>
    <i name="e_wo_entrp">   -876.72852988 </i>
    <i name="e_0_energy">   -876.79982175 </i>
   </energy>
  </scstep>
  <scstep>
   <time name="diag">    4.32    4.32</time>
   <time name="diis">   34.11   34.13</time>
   <time name="orth">    0.61    0.61</time>
   <time name="total">   41.50   41.52</time>
   <energy>
    <i name="e_fr_energy">   -876.34594512 </i>
    <i name="e_wo_entrp">   -876.26622241 </i>
    <i name="e_0_energy">   -876.31937089 </i>
   </energy>
  </scstep>
  <scstep>
   <time name="diag">    4.35    4.35</time>
   <time name="diis">   36.69   36.72</time>
   <time name="orth">    0.61    0.61</time>
   <time name="total">   44.13   44.16</time>
   <energy>
    <i name="e_fr_energy">   -876.15400057 </i>
    <i name="e_wo_entrp">   -876.06311612 </i>
    <i name="e_0_energy">   -876.12370576 </i>
   </energy>
  </scstep>
  <scstep>
   <time name="diag">    4.35    4.36</time>
   <time name="diis">   38.91   38.91</time>
   <time name="orth">    0.61    0.61</time>
   <time name="total">   46.34   46.35</time>
   <energy>
    <i name="e_fr_energy">   -876.16243031 </i>
    <i name="e_wo_entrp">   -876.07353769 </i>
    <i name="e_0_energy">   -876.13279944 </i>
   </energy>
  </scstep>
  <scstep>
   <time name="diag">    4.14    4.14</time>
   <time name="diis">   31.42   31.42</time>
   <time name="orth">    0.61    0.61</time>
   <time name="total">   38.64   38.64</time>
   <energy>
    <i name="e_fr_energy">   -876.15665536 </i>
    <i name="e_wo_entrp">   -876.07106563 </i>
    <i name="e_0_energy">   -876.12812545 </i>
   </energy>
  </scstep>
  <scstep>
   <time name="diag">    4.34    4.34</time>
   <time name="diis">   37.67   37.67</time>
   <time name="orth">    0.61    0.61</time>
   <time name="total">   45.09   45.09</time>
   <energy>
    <i name="e_fr_energy">   -876.15713594 </i>
    <i name="e_wo_entrp">   -876.07196786 </i>
    <i name="e_0_energy">   -876.12874658 </i>
   </energy>
  </scstep>
  <scstep>
   <time name="diag">    4.08    4.08</time>
   <time name="diis">   36.35   36.38</time>
   <time name="orth">    0.61    0.61</time>
   <time name="total">   43.40   43.43</time>
   <energy>
    <i name="e_fr_energy">   -876.15719676 </i>
    <i name="e_wo_entrp">   -876.07225612 </i>
    <i name="e_0_energy">   -876.12888321 </i>
   </energy>
  </scstep>
  <scstep>
   <time name="diag">    3.91    3.91</time>
   <time name="diis">   34.07   34.10</time>
   <time name="orth">    0.60    0.60</time>
   <time name="total">   40.95   40.97</time>
   <energy>
    <i name="e_fr_energy">   -876.15716916 </i>
    <i name="e_wo_entrp">   -876.07260750 </i>
    <i name="e_0_energy">   -876.12898194 </i>
   </energy>
  </scstep>
  <scstep>
   <time name="diag">    4.30    4.30</time>
   <time name="diis">   36.26   36.27</time>
   <time name="orth">    0.61    0.61</time>
   <time name="total">   43.62   43.63</time>
   <energy>
    <i name="e_fr_energy">   -876.15716548 </i>
    <i name="e_wo_entrp">   -876.07276576 </i>
    <i name="e_0_energy">   -876.12903224 </i>
   </energy>
  </scstep>
  <scstep>
   <time name="diag">    4.07    4.07</time>
   <time name="diis">   26.10   26.12</time>
   <time name="orth">    0.60    0.60</time>
   <time name="total">   33.18   33.20</time>
   <energy>
    <i name="e_fr_energy">   -876.15715071 </i>
    <i name="e_wo_entrp">   -876.07294881 </i>
    <i name="e_0_energy">   -876.12908341 </i>
   </energy>
  </scstep>
  <scstep>
   <time name="diag">    4.31    4.31</time>
   <time name="diis">   19.25   19.26</time>
   <time name="orth">    0.61    0.61</time>
   <time name="total">   26.63   26.64</time>
   <energy>
    <i name="e_fr_energy">   -876.15713683 </i>
    <i name="e_wo_entrp">   -876.07307321 </i>
    <i name="e_0_energy">   -876.12911563 </i>
   </energy>
  </scstep>
  <scstep>
   <time name="diag">    4.30    4.30</time>
   <time name="diis">   19.25   19.27</time>
   <time name="orth">    0.61    0.61</time>
   <time name="total">   26.61   26.63</time>
   <energy>
    <i name="e_fr_energy">   -876.15712934 </i>
    <i name="e_wo_entrp">   -876.07317651 </i>
    <i name="e_0_energy">   -876.12914506 </i>
   </energy>
  </scstep>
  <scstep>
   <time name="diag">    4.30    4.30</time>
   <time name="diis">   18.40   18.41</time>
   <time name="orth">    0.61    0.61</time>
   <time name="total">   25.77   25.77</time>
   <energy>
    <i name="e_fr_energy">   -876.15712220 </i>
    <i name="e_wo_entrp">   -876.07327777 </i>
    <i name="e_0_energy">   -876.12917406 </i>
   </energy>
  </scstep>
  <scstep>
   <time name="diag">    4.30    4.31</time>
   <time name="diis">   18.21   18.21</time>
   <time name="orth">    0.61    0.61</time>
   <time name="total">   25.57   25.57</time>
   <energy>
    <i name="e_fr_energy">   -876.15711552 </i>
    <i name="e_wo_entrp">   -876.07336506 </i>
    <i name="e_0_energy">   -876.12919870 </i>
   </energy>
  </scstep>
  <scstep>
   <time name="diag">    4.07    4.07</time>
   <time name="diis">   17.44   17.44</time>
   <time name="orth">    0.61    0.61</time>
   <time name="total">   24.48   24.48</time>
   <energy>
    <i name="e_fr_energy">   -876.15710933 </i>
    <i name="e_wo_entrp">   -876.07344908 </i>
    <i name="e_0_energy">   -876.12922258 </i>
   </energy>
  </scstep>
  <scstep>
   <time name="diag">    4.15    4.15</time>
   <time name="diis">   17.01   17.01</time>
   <time name="orth">    0.56    0.56</time>
   <time name="total">   24.09   24.09</time>
   <energy>
    <i name="e_fr_energy">   -876.15710363 </i>
    <i name="e_wo_entrp">   -876.07352410 </i>
    <i name="e_0_energy">   -876.12924378 </i>
   </energy>
  </scstep>
  <scstep>
   <time name="diag">    4.21    4.21</time>
   <time name="diis">   15.77   15.77</time>
   <time name="orth">    0.61    0.61</time>
   <time name="total">   22.98   22.98</time>
   <energy>
    <i name="e_fr_energy">   -876.15709832 </i>
    <i name="e_wo_entrp">   -876.07359442 </i>
    <i name="e_0_energy">   -876.12926369 </i>
   </energy>
  </scstep>
  <scstep>
   <time name="diag">    4.27    4.27</time>
   <time name="diis">   15.36   15.36</time>
   <time name="orth">    0.60    0.60</time>
   <time name="total">   22.60   22.60</time>
   <energy>
    <i name="e_fr_energy">   -876.15709346 </i>
    <i name="e_wo_entrp">   -876.07365888 </i>
    <i name="e_0_energy">   -876.12928193 </i>
   </energy>
  </scstep>
  <scstep>
   <time name="diag">    4.25    4.25</time>
   <time name="diis">   14.99   15.00</time>
   <time name="orth">    0.60    0.60</time>
   <time name="total">   22.24   22.25</time>
   <energy>
    <i name="e_fr_energy">   -876.15708892 </i>
    <i name="e_wo_entrp">   -876.07371876 </i>
    <i name="e_0_energy">   -876.12929887 </i>
   </energy>
  </scstep>
  <scstep>
   <time name="diag">    4.25    4.25</time>
   <time name="diis">   14.84   14.84</time>
   <time name="orth">    0.59    0.59</time>
   <time name="total">   22.05   22.05</time>
   <energy>
    <i name="e_fr_energy">   -876.15708480 </i>
    <i name="e_wo_entrp">   -876.07377319 </i>
    <i name="e_0_energy">   -876.12931427 </i>
   </energy>
  </scstep>
  <scstep>
   <time name="diag">    4.18    4.18</time>
   <time name="diis">   14.77   14.77</time>
   <time name="orth">    0.59    0.59</time>
   <time name="total">   21.83   21.84</time>
   <energy>
    <i name="e_fr_energy">   -876.15708099 </i>
    <i name="e_wo_entrp">   -876.07382379 </i>
    <i name="e_0_energy">   -876.12932859 </i>
   </energy>
  </scstep>
  <scstep>
   <time name="diag">    4.13    4.13</time>
   <time name="diis">   14.88   14.88</time>
   <time name="orth">    0.59    0.59</time>
   <time name="total">   21.87   21.87</time>
   <energy>
    <i name="e_fr_energy">   -876.15707754 </i>
    <i name="e_wo_entrp">   -876.07386928 </i>
    <i name="e_0_energy">   -876.12934145 </i>
   </energy>
  </scstep>
  <scstep>
   <time name="diag">    3.93    3.93</time>
   <time name="diis">   14.79   14.79</time>
   <time name="orth">    0.61    0.61</time>
   <time name="total">   21.58   21.59</time>
   <energy>
    <i name="e_fr_energy">   -876.15707433 </i>
    <i name="e_wo_entrp">   -876.07391164 </i>
    <i name="e_0_energy">   -876.12935343 </i>
   </energy>
  </scstep>
  <scstep>
   <time name="diag">    3.97    3.97</time>
   <time name="diis">   14.60   14.60</time>
   <time name="orth">    0.59    0.59</time>
   <time name="total">   21.36   21.36</time>
   <energy>
    <i name="e_fr_energy">   -876.15707143 </i>
    <i name="e_wo_entrp">   -876.07395008 </i>
    <i name="e_0_energy">   -876.12936431 </i>
   </energy>
  </scstep>
  <scstep>
   <time name="diag">    4.00    4.00</time>
   <time name="diis">   14.42   14.42</time>
   <time name="orth">    0.60    0.60</time>
   <time name="total">   21.36   21.36</time>
   <energy>
    <i name="e_fr_energy">   -876.15706878 </i>
    <i name="e_wo_entrp">   -876.07398529 </i>
    <i name="e_0_energy">   -876.12937428 </i>
   </energy>
  </scstep>
  <scstep>
   <time name="diag">    4.04    4.04</time>
   <time name="diis">   14.22   14.22</time>
   <time name="orth">    0.60    0.60</time>
   <time name="total">   21.19   21.20</time>
   <energy>
    <i name="e_fr_energy">   -876.15706636 </i>
    <i name="e_wo_entrp">   -876.07401727 </i>
    <i name="e_0_energy">   -876.12938333 </i>
   </energy>
  </scstep>
  <scstep>
   <time name="diag">    4.00    4.00</time>
   <time name="diis">   13.85   13.85</time>
   <time name="orth">    0.61    0.61</time>
   <time name="total">   20.85   20.85</time>
   <energy>
    <i name="e_fr_energy">   -876.15706414 </i>
    <i name="e_wo_entrp">   -876.07404658 </i>
    <i name="e_0_energy">   -876.12939162 </i>
   </energy>
  </scstep>
  <scstep>
   <time name="diag">    4.00    4.00</time>
   <time name="diis">   13.72   13.72</time>
   <time name="orth">    0.61    0.61</time>
   <time name="total">   20.73   20.73</time>
   <energy>
    <i name="e_fr_energy">   -876.15706213 </i>
    <i name="e_wo_entrp">   -876.07407310 </i>
    <i name="e_0_energy">   -876.12939912 </i>
   </energy>
  </scstep>
  <scstep>
   <time name="diag">    4.10    4.10</time>
   <time name="diis">   13.52   13.52</time>
   <time name="orth">    0.60    0.60</time>
   <time name="total">   20.61   20.61</time>
   <energy>
    <i name="e_fr_energy">   -876.15706030 </i>
    <i name="e_wo_entrp">   -876.07409745 </i>
    <i name="e_0_energy">   -876.12940602 </i>
   </energy>
  </scstep>
  <scstep>
   <time name="diag">    4.15    4.15</time>
   <time name="diis">   13.45   13.46</time>
   <time name="orth">    0.60    0.60</time>
   <time name="total">   20.58   20.59</time>
   <energy>
    <i name="e_fr_energy">   -876.15705865 </i>
    <i name="e_wo_entrp">   -876.07411931 </i>
    <i name="e_0_energy">   -876.12941221 </i>
   </energy>
  </scstep>
  <scstep>
   <time name="diag">    4.12    4.12</time>
   <time name="diis">   13.51   13.51</time>
   <time name="orth">    0.61    0.61</time>
   <time name="total">   20.63   20.63</time>
   <energy>
    <i name="e_fr_energy">   -876.15705715 </i>
    <i name="e_wo_entrp">   -876.07413937 </i>
    <i name="e_0_energy">   -876.12941789 </i>
   </energy>
  </scstep>
  <scstep>
   <time name="diag">    4.01    4.01</time>
   <time name="diis">   13.63   13.63</time>
   <time name="orth">    0.61    0.61</time>
   <time name="total">   20.57   20.57</time>
   <energy>
    <i name="e_fr_energy">   -876.15705579 </i>
    <i name="e_wo_entrp">   -876.07415754 </i>
    <i name="e_0_energy">   -876.12942304 </i>
   </energy>
  </scstep>
  <scstep>
   <time name="diag">    4.00    4.00</time>
   <time name="diis">   13.14   13.14</time>
   <time name="orth">    0.60    0.60</time>
   <time name="total">   20.07   20.07</time>
   <energy>
    <i name="e_fr_energy">   -876.15705455 </i>
    <i name="e_wo_entrp">   -876.07417408 </i>
    <i name="e_0_energy">   -876.12942773 </i>
   </energy>
  </scstep>
  <scstep>
   <time name="diag">    4.08    4.08</time>
   <time name="diis">   13.14   13.14</time>
   <time name="orth">    0.60    0.60</time>
   <time name="total">   20.15   20.15</time>
   <energy>
    <i name="e_fr_energy">   -876.15705344 </i>
    <i name="e_wo_entrp">   -876.07418903 </i>
    <i name="e_0_energy">   -876.12943197 </i>
   </energy>
  </scstep>
  <scstep>
   <time name="diag">    4.09    4.09</time>
   <time name="diis">   12.94   12.94</time>
   <time name="orth">    0.60    0.60</time>
   <time name="total">   19.98   19.98</time>
   <energy>
    <i name="e_fr_energy">   -876.15705243 </i>
    <i name="e_wo_entrp">   -876.07420268 </i>
    <i name="e_0_energy">   -876.12943585 </i>
   </energy>
  </scstep>
  <scstep>
   <time name="diag">    4.12    4.12</time>
   <time name="diis">   13.38   13.38</time>
   <time name="orth">    0.60    0.60</time>
   <time name="total">   18.46   18.46</time>
   <energy>
    <i name="alphaZ">   7300.31925852 </i>
    <i name="ewald"> -66232.83996889 </i>
    <i name="hartreedc">  -9348.10407797 </i>
    <i name="XCdc">    359.51375689 </i>
    <i name="pawpsdc">  58324.96895920 </i>
    <i name="pawaedc"> -59229.84088684 </i>
    <i name="eentropy">     -0.08283651 </i>
    <i name="bandstr">   3754.39705731 </i>
    <i name="atom">  64195.51168677 </i>
    <i name="e_fr_energy">   -876.15705152 </i>
    <i name="e_wo_entrp">   -876.07421501 </i>
    <i name="e_0_energy">   -876.12943935 </i>
   </energy>
  </scstep>
  <structure>
   <crystal>
    <varray name="basis" >
     <v>      10.33484705       0.00000000       0.00000000 </v>
     <v>       0.00000000      10.33484705       0.00000000 </v>
     <v>       0.00000000       0.00000000      10.33484705 </v>
    </varray>
    <i name="volume">   1103.85533447 </i>
    <varray name="rec_basis" >
     <v>       0.09676002       0.00000000       0.00000000 </v>
     <v>       0.00000000       0.09676002       0.00000000 </v>
     <v>       0.00000000       0.00000000       0.09676002 </v>
    </varray>
   </crystal>
   <varray name="positions" >
    <v>       0.00000000       0.00000000       0.00000000 </v>
    <v>       0.00000000       0.16666893       0.16666893 </v>
    <v>       0.16666893       0.00000000       0.16666893 </v>
    <v>       0.16666893       0.16666893       0.00000000 </v>
    <v>       0.33333106       0.00000000       0.00000000 </v>
    <v>       0.33333107       0.16666893       0.16666893 </v>
    <v>       0.50000000       0.00000000       0.16666894 </v>
    <v>       0.50000000       0.16666894       0.00000000 </v>
    <v>       0.66666897       0.00000000       0.00000000 </v>
    <v>       0.66666896       0.16666893       0.16666893 </v>
    <v>       0.83333104       0.00000000       0.16666893 </v>
    <v>       0.83333104       0.16666893       0.00000000 </v>
    <v>       0.00000000       0.33333106       0.00000000 </v>
    <v>       0.00000000       0.50000000       0.16666894 </v>
    <v>       0.16666893       0.33333107       0.16666893 </v>
    <v>       0.16666894       0.50000000       0.00000000 </v>
    <v>       0.33333107       0.33333107       0.00000000 </v>
    <v>       0.33333107       0.50000000       0.16666893 </v>
    <v>       0.50000000       0.33333107       0.16666893 </v>
    <v>       0.50000000       0.50000000       0.00000000 </v>
    <v>       0.66666896       0.33333107       0.00000000 </v>
    <v>       0.66666896       0.50000000       0.16666893 </v>
    <v>       0.83333104       0.33333107       0.16666893 </v>
    <v>       0.83333103       0.50000000       0.00000000 </v>
    <v>       0.00000000       0.66666897       0.00000000 </v>
    <v>       0.00000000       0.83333104       0.16666893 </v>
    <v>       0.16666893       0.66666896       0.16666893 </v>
    <v>       0.16666893       0.83333104       0.00000000 </v>
    <v>       0.33333107       0.66666896       0.00000000 </v>
    <v>       0.33333107       0.83333104       0.16666893 </v>
    <v>       0.50000000       0.66666896       0.16666893 </v>
    <v>       0.50000000       0.83333103       0.00000000 </v>
    <v>       0.66666896       0.66666896       0.00000000 </v>
    <v>       0.66666896       0.83333104       0.16666893 </v>
    <v>       0.83333104       0.66666896       0.16666893 </v>
    <v>       0.83333104       0.83333104       0.00000000 </v>
    <v>       0.00000000       0.00000000       0.33333106 </v>
    <v>       0.00000000       0.16666894       0.50000000 </v>
    <v>       0.16666894       0.00000000       0.50000000 </v>
    <v>       0.16666893       0.16666893       0.33333107 </v>
    <v>       0.33333107       0.00000000       0.33333107 </v>
    <v>       0.33333107       0.16666893       0.50000000 </v>
    <v>       0.50000000       0.00000000       0.50000000 </v>
    <v>       0.50000000       0.16666893       0.33333107 </v>
    <v>       0.66666896       0.00000000       0.33333107 </v>
    <v>       0.66666896       0.16666893       0.50000000 </v>
    <v>       0.83333103       0.00000000       0.50000000 </v>
    <v>       0.83333104       0.16666893       0.33333107 </v>
    <v>       0.00000000       0.33333107       0.33333107 </v>
    <v>       0.00000000       0.50000000       0.50000000 </v>
    <v>       0.16666893       0.33333107       0.50000000 </v>
    <v>       0.16666893       0.50000000       0.33333107 </v>
    <v>       0.33333107       0.33333107       0.33333107 </v>
    <v>       0.33333106       0.50000000       0.50000000 </v>
    <v>       0.50000000       0.33333106       0.50000000 </v>
    <v>       0.50000000       0.50000000       0.33333106 </v>
    <v>       0.66666896       0.33333107       0.33333107 </v>
    <v>       0.66666897       0.50000000       0.50000000 </v>
    <v>       0.83333104       0.33333107       0.50000000 </v>
    <v>       0.83333104       0.50000000       0.33333107 </v>
    <v>       0.00000000       0.66666896       0.33333107 </v>
    <v>       0.00000000       0.83333103       0.50000000 </v>
    <v>       0.16666893       0.66666896       0.50000000 </v>
    <v>       0.16666893       0.83333104       0.33333107 </v>
    <v>       0.33333107       0.66666896       0.33333107 </v>
    <v>       0.33333107       0.83333104       0.50000000 </v>
    <v>       0.50000000       0.66666897       0.50000000 </v>
    <v>       0.50000000       0.83333104       0.33333107 </v>
    <v>       0.66666896       0.66666896       0.33333107 </v>
    <v>       0.66666896       0.83333104       0.50000000 </v>
    <v>       0.83333104       0.66666896       0.50000000 </v>
    <v>       0.83333104       0.83333104       0.33333107 </v>
    <v>       0.00000000       0.00000000       0.66666897 </v>
    <v>       0.00000000       0.16666893       0.83333104 </v>
    <v>       0.16666893       0.00000000       0.83333104 </v>
    <v>       0.16666893       0.16666893       0.66666896 </v>
    <v>       0.33333107       0.00000000       0.66666896 </v>
    <v>       0.33333107       0.16666893       0.83333104 </v>
    <v>       0.50000000       0.00000000       0.83333103 </v>
    <v>       0.50000000       0.16666893       0.66666896 </v>
    <v>       0.66666896       0.00000000       0.66666896 </v>
    <v>       0.66666896       0.16666893       0.83333104 </v>
    <v>       0.83333104       0.00000000       0.83333104 </v>
    <v>       0.83333104       0.16666893       0.66666896 </v>
    <v>       0.00000000       0.33333107       0.66666896 </v>
    <v>       0.00000000       0.50000000       0.83333103 </v>
    <v>       0.16666893       0.33333107       0.83333104 </v>
    <v>       0.16666893       0.50000000       0.66666896 </v>
    <v>       0.33333107       0.33333107       0.66666896 </v>
    <v>       0.33333107       0.50000000       0.83333104 </v>
    <v>       0.50000000       0.33333107       0.83333104 </v>
    <v>       0.50000000       0.50000000       0.66666897 </v>
    <v>       0.66666896       0.33333107       0.66666896 </v>
    <v>       0.66666896       0.50000000       0.83333104 </v>
    <v>       0.83333104       0.33333107       0.83333104 </v>
    <v>       0.83333104       0.50000000       0.66666896 </v>
    <v>       0.00000000       0.66666896       0.66666896 </v>
    <v>       0.00000000       0.83333104       0.83333104 </v>
    <v>       0.16666893       0.66666896       0.83333104 </v>
    <v>       0.16666893       0.83333104       0.66666896 </v>
    <v>       0.33333107       0.66666896       0.66666896 </v>
    <v>       0.33333107       0.83333104       0.83333104 </v>
    <v>       0.50000000       0.66666896       0.83333104 </v>
    <v>       0.50000000       0.83333104       0.66666896 </v>
    <v>       0.66666896       0.66666896       0.66666896 </v>
    <v>       0.66666896       0.83333104       0.83333104 </v>
    <v>       0.83333104       0.66666896       0.83333104 </v>
    <v>       0.83333104       0.83333104       0.66666896 </v>
   </varray>
  </structure>
  <varray name="forces" >
   <v>      -0.00000000       0.00000000       0.00000000 </v>
   <v>      -0.00000000       0.00000000      -0.00000000 </v>
   <v>       0.00000000      -0.00000000      -0.00000000 </v>
   <v>      -0.00000000      -0.00000000      -0.00000000 </v>
   <v>       0.00000000      -0.00000000       0.00000000 </v>
   <v>      -0.00000000      -0.00000000       0.00000000 </v>
   <v>       0.00000000       0.00000000       0.00000000 </v>
   <v>      -0.00000000      -0.00000000      -0.00000000 </v>
   <v>      -0.00000000       0.00000000      -0.00000000 </v>
   <v>       0.00000000       0.00000000      -0.00000000 </v>
   <v>       0.00000000       0.00000000       0.00000000 </v>
   <v>       0.00000000      -0.00000000      -0.00000000 </v>
   <v>       0.00000000       0.00000000       0.00000000 </v>
   <v>      -0.00000000      -0.00000000       0.00000000 </v>
   <v>       0.00000000       0.00000000       0.00000000 </v>
   <v>       0.00000000       0.00000000       0.00000000 </v>
   <v>      -0.00000000       0.00000000       0.00000000 </v>
   <v>      -0.00000000       0.00000000       0.00000000 </v>
   <v>      -0.00000000      -0.00000000      -0.00000000 </v>
   <v>       0.00000000       0.00000000      -0.00000000 </v>
   <v>       0.00000000       0.00000000       0.00000000 </v>
   <v>       0.00000000      -0.00000000       0.00000000 </v>
   <v>       0.00000000      -0.00000000       0.00000000 </v>
   <v>       0.00000000       0.00000000       0.00000000 </v>
   <v>      -0.00000000      -0.00000000       0.00000000 </v>
   <v>       0.00000000       0.00000000      -0.00000000 </v>
   <v>       0.00000000       0.00000000       0.00000000 </v>
   <v>       0.00000000       0.00000000      -0.00000000 </v>
   <v>       0.00000000      -0.00000000      -0.00000000 </v>
   <v>      -0.00000000       0.00000000       0.00000000 </v>
   <v>       0.00000000      -0.00000000      -0.00000000 </v>
   <v>      -0.00000000       0.00000000       0.00000000 </v>
   <v>      -0.00000000      -0.00000000       0.00000000 </v>
   <v>       0.00000000      -0.00000000       0.00000000 </v>
   <v>       0.00000000      -0.00000000       0.00000000 </v>
   <v>       0.00000000       0.00000000       0.00000000 </v>
   <v>       0.00000000      -0.00000000      -0.00000000 </v>
   <v>      -0.00000000       0.00000000       0.00000000 </v>
   <v>      -0.00000000      -0.00000000      -0.00000000 </v>
   <v>       0.00000000      -0.00000000      -0.00000000 </v>
   <v>      -0.00000000      -0.00000000      -0.00000000 </v>
   <v>       0.00000000       0.00000000      -0.00000000 </v>
   <v>      -0.00000000      -0.00000000       0.00000000 </v>
   <v>      -0.00000000       0.00000000       0.00000000 </v>
   <v>      -0.00000000       0.00000000       0.00000000 </v>
   <v>       0.00000000      -0.00000000      -0.00000000 </v>
   <v>       0.00000000       0.00000000      -0.00000000 </v>
   <v>       0.00000000      -0.00000000       0.00000000 </v>
   <v>       0.00000000      -0.00000000      -0.00000000 </v>
   <v>      -0.00000000       0.00000000       0.00000000 </v>
   <v>       0.00000000       0.00000000       0.00000000 </v>
   <v>       0.00000000      -0.00000000      -0.00000000 </v>
   <v>       0.00000000       0.00000000       0.00000000 </v>
   <v>       0.00000000      -0.00000000       0.00000000 </v>
   <v>      -0.00000000       0.00000000      -0.00000000 </v>
   <v>       0.00000000       0.00000000      -0.00000000 </v>
   <v>      -0.00000000       0.00000000      -0.00000000 </v>
   <v>       0.00000000      -0.00000000       0.00000000 </v>
   <v>      -0.00000000       0.00000000       0.00000000 </v>
   <v>      -0.00000000      -0.00000000       0.00000000 </v>
   <v>      -0.00000000       0.00000000       0.00000000 </v>
   <v>      -0.00000000       0.00000000      -0.00000000 </v>
   <v>      -0.00000000       0.00000000       0.00000000 </v>
   <v>       0.00000000       0.00000000       0.00000000 </v>
   <v>      -0.00000000      -0.00000000       0.00000000 </v>
   <v>       0.00000000      -0.00000000       0.00000000 </v>
   <v>      -0.00000000      -0.00000000       0.00000000 </v>
   <v>       0.00000000      -0.00000000       0.00000000 </v>
   <v>       0.00000000      -0.00000000      -0.00000000 </v>
   <v>       0.00000000      -0.00000000       0.00000000 </v>
   <v>      -0.00000000      -0.00000000       0.00000000 </v>
   <v>       0.00000000       0.00000000      -0.00000000 </v>
   <v>       0.00000000      -0.00000000       0.00000000 </v>
   <v>       0.00000000       0.00000000      -0.00000000 </v>
   <v>      -0.00000000      -0.00000000       0.00000000 </v>
   <v>       0.00000000      -0.00000000       0.00000000 </v>
   <v>      -0.00000000       0.00000000       0.00000000 </v>
   <v>      -0.00000000       0.00000000       0.00000000 </v>
   <v>       0.00000000      -0.00000000      -0.00000000 </v>
   <v>       0.00000000       0.00000000      -0.00000000 </v>
   <v>      -0.00000000       0.00000000      -0.00000000 </v>
   <v>       0.00000000      -0.00000000       0.00000000 </v>
   <v>       0.00000000      -0.00000000      -0.00000000 </v>
   <v>      -0.00000000       0.00000000      -0.00000000 </v>
   <v>      -0.00000000       0.00000000       0.00000000 </v>
   <v>      -0.00000000       0.00000000      -0.00000000 </v>
   <v>       0.00000000       0.00000000      -0.00000000 </v>
   <v>      -0.00000000       0.00000000      -0.00000000 </v>
   <v>       0.00000000       0.00000000      -0.00000000 </v>
   <v>       0.00000000      -0.00000000      -0.00000000 </v>
   <v>       0.00000000      -0.00000000      -0.00000000 </v>
   <v>      -0.00000000       0.00000000      -0.00000000 </v>
   <v>      -0.00000000       0.00000000      -0.00000000 </v>
   <v>       0.00000000      -0.00000000      -0.00000000 </v>
   <v>       0.00000000       0.00000000      -0.00000000 </v>
   <v>      -0.00000000      -0.00000000       0.00000000 </v>
   <v>       0.00000000      -0.00000000      -0.00000000 </v>
   <v>       0.00000000       0.00000000      -0.00000000 </v>
   <v>       0.00000000       0.00000000      -0.00000000 </v>
   <v>       0.00000000       0.00000000      -0.00000000 </v>
   <v>      -0.00000000       0.00000000      -0.00000000 </v>
   <v>       0.00000000      -0.00000000      -0.00000000 </v>
   <v>       0.00000000       0.00000000      -0.00000000 </v>
   <v>       0.00000000      -0.00000000       0.00000000 </v>
   <v>       0.00000000      -0.00000000      -0.00000000 </v>
   <v>       0.00000000       0.00000000       0.00000000 </v>
   <v>      -0.00000000       0.00000000      -0.00000000 </v>
   <v>      -0.00000000       0.00000000      -0.00000000 </v>
  </varray>
  <varray name="stress" >
   <v>    -137.41025822      -0.00000000       0.00000000 </v>
   <v>      -0.00000000    -137.41025822       0.00000000 </v>
   <v>      -0.00000000      -0.00000000    -137.41025822 </v>
  </varray>
  <energy>
   <i name="e_fr_energy">   -876.15705152 </i>
   <i name="e_wo_entrp">   -876.12943935 </i>
   <i name="e_0_energy">     -0.08283651 </i>
  </energy>
  <time name="totalsc"> 1391.07 1391.46</time>
 </calculation>
 <calculation>
  <scstep>
   <time name="dav">   44.05   44.08</time>
   <time name="total">   46.39   46.42</time>
   <energy>
    <i name="alphaZ">   8310.71762383 </i>
    <i name="ewald"> -69157.44421734 </i>
    <i name="hartreedc">  -9760.88273696 </i>
    <i name="XCdc">    491.53851782 </i>
    <i name="pawpsdc">  58324.96893223 </i>
    <i name="pawaedc"> -59229.84084533 </i>
    <i name="eentropy">     -0.24353035 </i>
    <i name="bandstr">   5847.15910989 </i>
    <i name="atom">  64195.51168677 </i>
    <i name="e_fr_energy">   -978.51545944 </i>
    <i name="e_wo_entrp">   -978.27192909 </i>
    <i name="e_0_energy">   -978.43428266 </i>
   </energy>
  </scstep>
  <scstep>
   <time name="diag">    4.21    4.21</time>
   <time name="diis">   30.79   30.79</time>
   <time name="orth">    0.61    0.61</time>
   <time name="total">   37.99   37.99</time>
   <energy>
    <i name="e_fr_energy">   -868.07037537 </i>
    <i name="e_wo_entrp">   -867.85215832 </i>
    <i name="e_0_energy">   -867.99763635 </i>
   </energy>
  </scstep>
  <scstep>
   <time name="diag">    4.24    4.24</time>
   <time name="diis">   32.33   32.33</time>
   <time name="orth">    0.61    0.61</time>
   <time name="total">   39.59   39.59</time>
   <energy>
    <i name="e_fr_energy">   -865.88331065 </i>
    <i name="e_wo_entrp">   -865.71912845 </i>
    <i name="e_0_energy">   -865.82858325 </i>
   </energy>
  </scstep>
  <scstep>
   <time name="diag">    4.24    4.24</time>
   <time name="diis">   30.74   30.75</time>
   <time name="orth">    0.61    0.61</time>
   <time name="total">   38.00   38.01</time>
   <energy>
    <i name="e_fr_energy">   -864.91628633 </i>
    <i name="e_wo_entrp">   -864.76362446 </i>
    <i name="e_0_energy">   -864.86539904 </i>
   </energy>
  </scstep>
  <scstep>
   <time name="diag">    4.23    4.23</time>
   <time name="diis">   30.94   30.95</time>
   <time name="orth">    0.61    0.61</time>
   <time name="total">   38.18   38.20</time>
   <energy>
    <i name="e_fr_energy">   -864.80854985 </i>
    <i name="e_wo_entrp">   -864.63442222 </i>
    <i name="e_0_energy">   -864.75050731 </i>
   </energy>
  </scstep>
  <scstep>
   <time name="diag">    4.21    4.21</time>
   <time name="diis">   30.56   30.57</time>
   <time name="orth">    0.59    0.59</time>
   <time name="total">   37.71   37.72</time>
   <energy>
    <i name="e_fr_energy">   -864.27845861 </i>
    <i name="e_wo_entrp">   -864.10255978 </i>
    <i name="e_0_energy">   -864.21982567 </i>
   </energy>
  </scstep>
  <scstep>
   <time name="diag">    4.10    4.10</time>
   <time name="diis">   36.58   36.58</time>
   <time name="orth">    0.60    0.60</time>
   <time name="total">   43.60   43.60</time>
   <energy>
    <i name="e_fr_energy">   -864.26717875 </i>
    <i name="e_wo_entrp">   -864.09312750 </i>
    <i name="e_0_energy">   -864.20916166 </i>
   </energy>
  </scstep>
  <scstep>
   <time name="diag">    3.99    3.99</time>
   <time name="diis">   30.40   30.41</time>
   <time name="orth">    0.60    0.60</time>
   <time name="total">   37.34   37.35</time>
   <energy>
    <i name="e_fr_energy">   -864.24246945 </i>
    <i name="e_wo_entrp">   -864.07029595 </i>
    <i name="e_0_energy">   -864.18507828 </i>
   </energy>
  </scstep>
  <scstep>
   <time name="diag">    4.13    4.14</time>
   <time name="diis">   30.76   30.77</time>
   <time name="orth">    0.61    0.61</time>
   <time name="total">   37.89   37.90</time>
   <energy>
    <i name="e_fr_energy">   -864.23689817 </i>
    <i name="e_wo_entrp">   -864.06635257 </i>
    <i name="e_0_energy">   -864.18004964 </i>
   </energy>
  </scstep>
  <scstep>
   <time name="diag">    4.21    4.21</time>
   <time name="diis">   35.09   35.09</time>
   <time name="orth">    0.61    0.61</time>
   <time name="total">   42.27   42.27</time>
   <energy>
    <i name="e_fr_energy">   -864.23757530 </i>
    <i name="e_wo_entrp">   -864.06703653 </i>
    <i name="e_0_energy">   -864.18072905 </i>
   </energy>
  </scstep>
  <scstep>
   <time name="diag">    3.98    3.98</time>
   <time name="diis">   32.26   32.28</time>
   <time name="orth">    0.61    0.61</time>
   <time name="total">   39.25   39.27</time>
   <energy>
    <i name="e_fr_energy">   -864.23755854 </i>
    <i name="e_wo_entrp">   -864.06692165 </i>
    <i name="e_0_energy">   -864.18067957 </i>
   </energy>
  </scstep>
  <scstep>
   <time name="diag">    4.17    4.17</time>
   <time name="diis">   31.85   31.87</time>
   <time name="orth">    0.61    0.61</time>
   <time name="total">   39.07   39.09</time>
   <energy>
    <i name="e_fr_energy">   -864.23757748 </i>
    <i name="e_wo_entrp">   -864.06683416 </i>
    <i name="e_0_energy">   -864.18066304 </i>
   </energy>
  </scstep>
  <scstep>
   <time name="diag">    4.28    4.29</time>
   <time name="diis">   32.89   32.90</time>
   <time name="orth">    0.62    0.62</time>
   <time name="total">   40.27   40.28</time>
   <energy>
    <i name="e_fr_energy">   -864.23756051 </i>
    <i name="e_wo_entrp">   -864.06686312 </i>
    <i name="e_0_energy">   -864.18066138 </i>
   </energy>
  </scstep>
  <scstep>
   <time name="diag">    4.39    4.39</time>
   <time name="diis">   24.74   24.74</time>
   <time name="orth">    0.61    0.61</time>
   <time name="total">   30.12   30.12</time>
   <energy>
    <i name="alphaZ">   8310.71762383 </i>
    <i name="ewald"> -69157.44421734 </i>
    <i name="hartreedc">  -8372.71459280 </i>
    <i name="XCdc">    408.21866488 </i>
    <i name="pawpsdc">  62100.85831872 </i>
    <i name="pawaedc"> -63110.16641242 </i>
    <i name="eentropy">     -0.17069502 </i>
    <i name="bandstr">   4760.95206219 </i>
    <i name="atom">  64195.51168677 </i>
    <i name="e_fr_energy">   -864.23756120 </i>
    <i name="e_wo_entrp">   -864.06686619 </i>
    <i name="e_0_energy">   -864.18066286 </i>
   </energy>
  </scstep>
  <structure>
   <crystal>
    <varray name="basis" >
     <v>       9.89779594      -0.00000000       0.00000000 </v>
     <v>      -0.00000000       9.89779594       0.00000000 </v>
     <v>      -0.00000000      -0.00000000       9.89779594 </v>
    </varray>
    <i name="volume">    969.65108449 </i>
    <varray name="rec_basis" >
     <v>       0.10103259       0.00000000       0.00000000 </v>
     <v>       0.00000000       0.10103259       0.00000000 </v>
     <v>      -0.00000000      -0.00000000       0.10103259 </v>
    </varray>
   </crystal>
   <varray name="positions" >
    <v>      -0.00000000       0.00000000       0.00000000 </v>
    <v>      -0.00000000       0.16666893       0.16666893 </v>
    <v>       0.16666893      -0.00000000       0.16666893 </v>
    <v>       0.16666893       0.16666893      -0.00000000 </v>
    <v>       0.33333106      -0.00000000       0.00000000 </v>
    <v>       0.33333107       0.16666893       0.16666893 </v>
    <v>       0.50000000       0.00000000       0.16666894 </v>
    <v>       0.50000000       0.16666894      -0.00000000 </v>
    <v>       0.66666897       0.00000000      -0.00000000 </v>
    <v>       0.66666896       0.16666893       0.16666893 </v>
    <v>       0.83333104       0.00000000       0.16666893 </v>
    <v>       0.83333104       0.16666893      -0.00000000 </v>
    <v>       0.00000000       0.33333106       0.00000000 </v>
    <v>      -0.00000000       0.50000000       0.16666894 </v>
    <v>       0.16666893       0.33333107       0.16666893 </v>
    <v>       0.16666894       0.50000000       0.00000000 </v>
    <v>       0.33333107       0.33333107       0.00000000 </v>
    <v>       0.33333107       0.50000000       0.16666893 </v>
    <v>       0.50000000       0.33333107       0.16666893 </v>
    <v>       0.50000000       0.50000000      -0.00000000 </v>
    <v>       0.66666896       0.33333107       0.00000000 </v>
    <v>       0.66666896       0.50000000       0.16666893 </v>
    <v>       0.83333104       0.33333107       0.16666893 </v>
    <v>       0.83333103       0.50000000       0.00000000 </v>
    <v>      -0.00000000       0.66666897       0.00000000 </v>
    <v>       0.00000000       0.83333104       0.16666893 </v>
    <v>       0.16666893       0.66666896       0.16666893 </v>
    <v>       0.16666893       0.83333104      -0.00000000 </v>
    <v>       0.33333107       0.66666896      -0.00000000 </v>
    <v>       0.33333107       0.83333104       0.16666893 </v>
    <v>       0.50000000       0.66666896       0.16666893 </v>
    <v>       0.50000000       0.83333103       0.00000000 </v>
    <v>       0.66666896       0.66666896       0.00000000 </v>
    <v>       0.66666896       0.83333104       0.16666893 </v>
    <v>       0.83333104       0.66666896       0.16666893 </v>
    <v>       0.83333104       0.83333104       0.00000000 </v>
    <v>       0.00000000      -0.00000000       0.33333106 </v>
    <v>      -0.00000000       0.16666894       0.50000000 </v>
    <v>       0.16666894      -0.00000000       0.50000000 </v>
    <v>       0.16666893       0.16666893       0.33333107 </v>
    <v>       0.33333107      -0.00000000       0.33333107 </v>
    <v>       0.33333107       0.16666893       0.50000000 </v>
    <v>       0.50000000      -0.00000000       0.50000000 </v>
    <v>       0.50000000       0.16666893       0.33333107 </v>
    <v>       0.66666896       0.00000000       0.33333107 </v>
    <v>       0.66666896       0.16666893       0.50000000 </v>
    <v>       0.83333103       0.00000000       0.50000000 </v>
    <v>       0.83333104       0.16666893       0.33333107 </v>
    <v>       0.00000000       0.33333107       0.33333107 </v>
    <v>      -0.00000000       0.50000000       0.50000000 </v>
    <v>       0.16666893       0.33333107       0.50000000 </v>
    <v>       0.16666893       0.50000000       0.33333107 </v>
    <v>       0.33333107       0.33333107       0.33333107 </v>
    <v>       0.33333106       0.50000000       0.50000000 </v>
    <v>       0.50000000       0.33333106       0.50000000 </v>
    <v>       0.50000000       0.50000000       0.33333106 </v>
    <v>       0.66666896       0.33333107       0.33333107 </v>
    <v>       0.66666897       0.50000000       0.50000000 </v>
    <v>       0.83333104       0.33333107       0.50000000 </v>
    <v>       0.83333104       0.50000000       0.33333107 </v>
    <v>      -0.00000000       0.66666896       0.33333107 </v>
    <v>      -0.00000000       0.83333103       0.50000000 </v>
    <v>       0.16666893       0.66666896       0.50000000 </v>
    <v>       0.16666893       0.83333104       0.33333107 </v>
    <v>       0.33333107       0.66666896       0.33333107 </v>
    <v>       0.33333107       0.83333104       0.50000000 </v>
    <v>       0.50000000       0.66666897       0.50000000 </v>
    <v>       0.50000000       0.83333104       0.33333107 </v>
    <v>       0.66666896       0.66666896       0.33333107 </v>
    <v>       0.66666896       0.83333104       0.50000000 </v>
    <v>       0.83333104       0.66666896       0.50000000 </v>
    <v>       0.83333104       0.83333104       0.33333107 </v>
    <v>       0.00000000      -0.00000000       0.66666897 </v>
    <v>       0.00000000       0.16666893       0.83333104 </v>
    <v>       0.16666893      -0.00000000       0.83333104 </v>
    <v>       0.16666893       0.16666893       0.66666896 </v>
    <v>       0.33333107       0.00000000       0.66666896 </v>
    <v>       0.33333107       0.16666893       0.83333104 </v>
    <v>       0.50000000      -0.00000000       0.83333103 </v>
    <v>       0.50000000       0.16666893       0.66666896 </v>
    <v>       0.66666896       0.00000000       0.66666896 </v>
    <v>       0.66666896       0.16666893       0.83333104 </v>
    <v>       0.83333104      -0.00000000       0.83333104 </v>
    <v>       0.83333104       0.16666893       0.66666896 </v>
    <v>      -0.00000000       0.33333107       0.66666896 </v>
    <v>      -0.00000000       0.50000000       0.83333103 </v>
    <v>       0.16666893       0.33333107       0.83333104 </v>
    <v>       0.16666893       0.50000000       0.66666896 </v>
    <v>       0.33333107       0.33333107       0.66666896 </v>
    <v>       0.33333107       0.50000000       0.83333104 </v>
    <v>       0.50000000       0.33333107       0.83333104 </v>
    <v>       0.50000000       0.50000000       0.66666897 </v>
    <v>       0.66666896       0.33333107       0.66666896 </v>
    <v>       0.66666896       0.50000000       0.83333104 </v>
    <v>       0.83333104       0.33333107       0.83333104 </v>
    <v>       0.83333104       0.50000000       0.66666896 </v>
    <v>       0.00000000       0.66666896       0.66666896 </v>
    <v>       0.00000000       0.83333104       0.83333104 </v>
    <v>       0.16666893       0.66666896       0.83333104 </v>
    <v>       0.16666893       0.83333104       0.66666896 </v>
    <v>       0.33333107       0.66666896       0.66666896 </v>
    <v>       0.33333107       0.83333104       0.83333104 </v>
    <v>       0.50000000       0.66666896       0.83333104 </v>
    <v>       0.50000000       0.83333104       0.66666896 </v>
    <v>       0.66666896       0.66666896       0.66666896 </v>
    <v>       0.66666896       0.83333104       0.83333104 </v>
    <v>       0.83333104       0.66666896       0.83333104 </v>
    <v>       0.83333104       0.83333104       0.66666896 </v>
   </varray>
  </structure>
  <varray name="forces" >
   <v>      -0.00000000       0.00000000       0.00000000 </v>
   <v>      -0.00000000      -0.00000000       0.00000000 </v>
   <v>      -0.00000000       0.00000000       0.00000000 </v>
   <v>      -0.00000000      -0.00000000      -0.00000000 </v>
   <v>      -0.00000000      -0.00000000       0.00000000 </v>
   <v>       0.00000000      -0.00000000      -0.00000000 </v>
   <v>      -0.00000000      -0.00000000       0.00000000 </v>
   <v>       0.00000000       0.00000000       0.00000000 </v>
   <v>      -0.00000000      -0.00000000       0.00000000 </v>
   <v>      -0.00000000       0.00000000       0.00000000 </v>
   <v>       0.00000000      -0.00000000       0.00000000 </v>
   <v>      -0.00000000      -0.00000000       0.00000000 </v>
   <v>      -0.00000000      -0.00000000       0.00000000 </v>
   <v>      -0.00000000      -0.00000000       0.00000000 </v>
   <v>      -0.00000000       0.00000000      -0.00000000 </v>
   <v>       0.00000000       0.00000000      -0.00000000 </v>
   <v>      -0.00000000      -0.00000000       0.00000000 </v>
   <v>       0.00000000      -0.00000000      -0.00000000 </v>
   <v>       0.00000000      -0.00000000      -0.00000000 </v>
   <v>      -0.00000000       0.00000000       0.00000000 </v>
   <v>       0.00000000       0.00000000      -0.00000000 </v>
   <v>       0.00000000       0.00000000      -0.00000000 </v>
   <v>       0.00000000      -0.00000000       0.00000000 </v>
   <v>      -0.00000000       0.00000000       0.00000000 </v>
   <v>      -0.00000000       0.00000000      -0.00000000 </v>
   <v>      -0.00000000       0.00000000       0.00000000 </v>
   <v>      -0.00000000       0.00000000      -0.00000000 </v>
   <v>       0.00000000       0.00000000       0.00000000 </v>
   <v>      -0.00000000       0.00000000      -0.00000000 </v>
   <v>       0.00000000      -0.00000000      -0.00000000 </v>
   <v>      -0.00000000       0.00000000      -0.00000000 </v>
   <v>       0.00000000      -0.00000000      -0.00000000 </v>
   <v>      -0.00000000      -0.00000000      -0.00000000 </v>
   <v>      -0.00000000       0.00000000       0.00000000 </v>
   <v>       0.00000000      -0.00000000      -0.00000000 </v>
   <v>       0.00000000      -0.00000000      -0.00000000 </v>
   <v>       0.00000000      -0.00000000       0.00000000 </v>
   <v>       0.00000000      -0.00000000       0.00000000 </v>
   <v>       0.00000000       0.00000000      -0.00000000 </v>
   <v>       0.00000000      -0.00000000       0.00000000 </v>
   <v>      -0.00000000      -0.00000000      -0.00000000 </v>
   <v>      -0.00000000      -0.00000000      -0.00000000 </v>
   <v>       0.00000000       0.00000000       0.00000000 </v>
   <v>       0.00000000       0.00000000      -0.00000000 </v>
   <v>       0.00000000      -0.00000000      -0.00000000 </v>
   <v>       0.00000000       0.00000000       0.00000000 </v>
   <v>      -0.00000000      -0.00000000       0.00000000 </v>
   <v>       0.00000000      -0.00000000       0.00000000 </v>
   <v>      -0.00000000       0.00000000      -0.00000000 </v>
   <v>       0.00000000      -0.00000000       0.00000000 </v>
   <v>      -0.00000000      -0.00000000      -0.00000000 </v>
   <v>       0.00000000       0.00000000       0.00000000 </v>
   <v>       0.00000000      -0.00000000      -0.00000000 </v>
   <v>      -0.00000000      -0.00000000      -0.00000000 </v>
   <v>       0.00000000      -0.00000000      -0.00000000 </v>
   <v>      -0.00000000       0.00000000      -0.00000000 </v>
   <v>       0.00000000       0.00000000       0.00000000 </v>
   <v>       0.00000000      -0.00000000      -0.00000000 </v>
   <v>      -0.00000000      -0.00000000       0.00000000 </v>
   <v>      -0.00000000       0.00000000       0.00000000 </v>
   <v>       0.00000000      -0.00000000       0.00000000 </v>
   <v>       0.00000000       0.00000000       0.00000000 </v>
   <v>       0.00000000      -0.00000000      -0.00000000 </v>
   <v>      -0.00000000      -0.00000000      -0.00000000 </v>
   <v>       0.00000000       0.00000000       0.00000000 </v>
   <v>      -0.00000000       0.00000000      -0.00000000 </v>
   <v>       0.00000000       0.00000000      -0.00000000 </v>
   <v>       0.00000000       0.00000000       0.00000000 </v>
   <v>       0.00000000      -0.00000000       0.00000000 </v>
   <v>       0.00000000       0.00000000      -0.00000000 </v>
   <v>      -0.00000000       0.00000000       0.00000000 </v>
   <v>       0.00000000      -0.00000000       0.00000000 </v>
   <v>       0.00000000      -0.00000000       0.00000000 </v>
   <v>      -0.00000000      -0.00000000      -0.00000000 </v>
   <v>       0.00000000       0.00000000      -0.00000000 </v>
   <v>      -0.00000000      -0.00000000      -0.00000000 </v>
   <v>       0.00000000       0.00000000       0.00000000 </v>
   <v>       0.00000000      -0.00000000      -0.00000000 </v>
   <v>       0.00000000      -0.00000000       0.00000000 </v>
   <v>      -0.00000000       0.00000000      -0.00000000 </v>
   <v>       0.00000000      -0.00000000       0.00000000 </v>
   <v>      -0.00000000      -0.00000000      -0.00000000 </v>
   <v>      -0.00000000      -0.00000000      -0.00000000 </v>
   <v>       0.00000000      -0.00000000       0.00000000 </v>
   <v>       0.00000000       0.00000000       0.00000000 </v>
   <v>      -0.00000000       0.00000000       0.00000000 </v>
   <v>      -0.00000000       0.00000000      -0.00000000 </v>
   <v>      -0.00000000       0.00000000      -0.00000000 </v>
   <v>       0.00000000      -0.00000000       0.00000000 </v>
   <v>      -0.00000000      -0.00000000       0.00000000 </v>
   <v>      -0.00000000      -0.00000000      -0.00000000 </v>
   <v>       0.00000000       0.00000000       0.00000000 </v>
   <v>       0.00000000       0.00000000      -0.00000000 </v>
   <v>       0.00000000      -0.00000000       0.00000000 </v>
   <v>       0.00000000      -0.00000000      -0.00000000 </v>
   <v>       0.00000000       0.00000000      -0.00000000 </v>
[...]
       <r>    -1.5658     3.0851     0.4975 </r>
       <r>    -1.5196     3.5018     0.6593 </r>
       <r>    -1.4734     3.7364     0.8318 </r>
       <r>    -1.4272     3.8208     1.0083 </r>
       <r>    -1.3810     3.8402     1.1857 </r>
       <r>    -1.3349     3.8795     1.3648 </r>
       <r>    -1.2887     3.9950     1.5494 </r>
       <r>    -1.2425     4.2172     1.7441 </r>
       <r>    -1.1963     4.5615     1.9548 </r>
       <r>    -1.1501     5.0308     2.1871 </r>
       <r>    -1.1039     5.6119     2.4463 </r>
       <r>    -1.0577     6.2552     2.7352 </r>
       <r>    -1.0116     6.8427     3.0513 </r>
       <r>    -0.9654     7.1884     3.3833 </r>
       <r>    -0.9192     7.1195     3.7121 </r>
       <r>    -0.8730     6.6064     4.0172 </r>
       <r>    -0.8268     5.8323     4.2865 </r>
       <r>    -0.7806     5.1296     4.5235 </r>
       <r>    -0.7344     4.8231     4.7462 </r>
       <r>    -0.6883     5.0897     4.9813 </r>
       <r>    -0.6421     5.9143     5.2544 </r>
       <r>    -0.5959     7.1395     5.5842 </r>
       <r>    -0.5497     8.5463     5.9789 </r>
       <r>    -0.5035     9.8926     6.4358 </r>
       <r>    -0.4573    10.9021     6.9393 </r>
       <r>    -0.4111    11.2777     7.4602 </r>
       <r>    -0.3650    10.8170     7.9597 </r>
       <r>    -0.3188     9.5857     8.4024 </r>
       <r>    -0.2726     7.9899     8.7715 </r>
       <r>    -0.2264     6.6373     9.0780 </r>
       <r>    -0.1802     6.0549     9.3576 </r>
       <r>    -0.1340     6.4517     9.6556 </r>
       <r>    -0.0879     7.6669    10.0097 </r>
       <r>    -0.0417     9.2943    10.4390 </r>
       <r>     0.0045    10.8688    10.9409 </r>
       <r>     0.0507    12.0124    11.4957 </r>
       <r>     0.0969    12.5142    12.0737 </r>
       <r>     0.1431    12.3759    12.6453 </r>
       <r>     0.1893    11.8202    13.1912 </r>
       <r>     0.2354    11.2187    13.7093 </r>
       <r>     0.2816    10.9275    14.2140 </r>
       <r>     0.3278    11.1132    14.7273 </r>
       <r>     0.3740    11.6937    15.2674 </r>
       <r>     0.4202    12.4319    15.8415 </r>
       <r>     0.4664    13.0991    16.4465 </r>
       <r>     0.5126    13.5810    17.0738 </r>
       <r>     0.5587    13.8663    17.7142 </r>
       <r>     0.6049    13.9691    18.3593 </r>
       <r>     0.6511    13.8748    19.0001 </r>
       <r>     0.6973    13.5524    19.6261 </r>
       <r>     0.7435    13.0163    20.2272 </r>
       <r>     0.7897    12.3982    20.7998 </r>
       <r>     0.8358    11.9899    21.3536 </r>
       <r>     0.8820    12.1967    21.9169 </r>
       <r>     0.9282    13.3512    22.5335 </r>
       <r>     0.9744    15.4507    23.2471 </r>
       <r>     1.0206    18.0154    24.0792 </r>
       <r>     1.0668    20.2507    25.0144 </r>
       <r>     1.1130    21.4738    26.0062 </r>
       <r>     1.1591    21.5113    26.9997 </r>
       <r>     1.2053    20.7520    27.9581 </r>
       <r>     1.2515    19.8006    28.8726 </r>
       <r>     1.2977    19.0202    29.7511 </r>
       <r>     1.3439    18.3555    30.5988 </r>
       <r>     1.3901    17.5863    31.4111 </r>
       <r>     1.4363    16.7622    32.1852 </r>
       <r>     1.4824    16.4057    32.9429 </r>
       <r>     1.5286    17.2756    33.7408 </r>
       <r>     1.5748    19.8521    34.6577 </r>
       <r>     1.6210    23.9104    35.7620 </r>
       <r>     1.6672    28.4621    37.0765 </r>
       <r>     1.7134    32.1187    38.5599 </r>
       <r>     1.7595    33.7327    40.1178 </r>
       <r>     1.8057    33.0459    41.6441 </r>
       <r>     1.8519    31.0235    43.0769 </r>
       <r>     1.8981    29.6306    44.4454 </r>
       <r>     1.9443    31.0655    45.8801 </r>
       <r>     1.9905    36.7781    47.5787 </r>
       <r>     2.0367    46.7795    49.7393 </r>
       <r>     2.0828    59.6230    52.4929 </r>
       <r>     2.1290    73.0813    55.8682 </r>
       <r>     2.1752    85.1282    59.7999 </r>
       <r>     2.2214    94.6394    64.1708 </r>
       <r>     2.2676   101.4213    68.8549 </r>
       <r>     2.3138   105.6908    73.7363 </r>
       <r>     2.3600   107.5621    78.7040 </r>
       <r>     2.4061   107.0420    83.6478 </r>
       <r>     2.4523   104.5122    88.4747 </r>
       <r>     2.4985   101.1680    93.1471 </r>
       <r>     2.5447    98.8513    97.7126 </r>
       <r>     2.5909    99.2129   102.2947 </r>
       <r>     2.6371   102.7552   107.0405 </r>
       <r>     2.6833   108.5293   112.0529 </r>
       <r>     2.7294   114.8289   117.3563 </r>
       <r>     2.7756   120.3878   122.9164 </r>
       <r>     2.8218   125.0860   128.6935 </r>
       <r>     2.8680   129.5724   134.6778 </r>
       <r>     2.9142   134.2572   140.8785 </r>
       <r>     2.9604   138.7768   147.2879 </r>
       <r>     3.0065   142.5240   153.8704 </r>
       <r>     3.0527   145.6317   160.5964 </r>
       <r>     3.0989   149.2069   167.4876 </r>
       <r>     3.1451   154.3404   174.6158 </r>
       <r>     3.1913   160.7580   182.0404 </r>
       <r>     3.2375   166.5002   189.7302 </r>
       <r>     3.2837   169.1365   197.5418 </r>
       <r>     3.3298   167.5570   205.2804 </r>
       <r>     3.3760   162.7750   212.7982 </r>
       <r>     3.4222   157.0517   220.0517 </r>
       <r>     3.4684   152.2035   227.0812 </r>
       <r>     3.5146   148.6530   233.9467 </r>
       <r>     3.5608   145.9273   240.6864 </r>
       <r>     3.6070   143.8086   247.3282 </r>
       <r>     3.6531   142.7946   253.9232 </r>
       <r>     3.6993   143.4367   260.5478 </r>
       <r>     3.7455   145.3764   267.2620 </r>
       <r>     3.7917   147.1513   274.0582 </r>
       <r>     3.8379   146.9995   280.8474 </r>
       <r>     3.8841   143.9875   287.4975 </r>
       <r>     3.9302   138.6411   293.9006 </r>
       <r>     3.9764   132.7264   300.0306 </r>
       <r>     4.0226   128.3390   305.9580 </r>
       <r>     4.0688   126.7529   311.8120 </r>
       <r>     4.1150   127.6179   317.7061 </r>
       <r>     4.1612   129.0612   323.6668 </r>
       <r>     4.2074   128.8286   329.6167 </r>
       <r>     4.2535   125.8777   335.4304 </r>
       <r>     4.2997   121.3127   341.0333 </r>
       <r>     4.3459   117.8312   346.4753 </r>
       <r>     4.3921   117.9268   351.9218 </r>
       <r>     4.4383   122.1850   357.5649 </r>
       <r>     4.4845   129.0873   363.5268 </r>
       <r>     4.5307   136.5128   369.8316 </r>
       <r>     4.5768   143.5661   376.4623 </r>
       <r>     4.6230   150.9964   383.4360 </r>
       <r>     4.6692   159.8254   390.8176 </r>
       <r>     4.7154   169.5796   398.6496 </r>
       <r>     4.7616   177.8984   406.8659 </r>
       <r>     4.8078   181.9158   415.2677 </r>
       <r>     4.8539   180.2022   423.5903 </r>
       <r>     4.9001   173.7823   431.6165 </r>
       <r>     4.9463   165.7500   439.2716 </r>
       <r>     4.9925   160.0140   446.6619 </r>
       <r>     5.0387   159.8830   454.0461 </r>
       <r>     5.0849   166.8909   461.7540 </r>
       <r>     5.1311   180.1189   470.0728 </r>
       <r>     5.1772   196.3675   479.1420 </r>
       <r>     5.2234   211.3511   488.9033 </r>
       <r>     5.2696   221.4910   499.1329 </r>
       <r>     5.3158   225.3541   509.5409 </r>
       <r>     5.3620   223.9464   519.8838 </r>
       <r>     5.4082   219.8471   530.0375 </r>
       <r>     5.4544   215.8929   540.0085 </r>
       <r>     5.5005   214.2327   549.9029 </r>
       <r>     5.5467   216.0835   559.8827 </r>
       <r>     5.5929   221.8830   570.1304 </r>
       <r>     5.6391   231.2605   580.8112 </r>
       <r>     5.6853   242.6099   592.0161 </r>
       <r>     5.7315   252.7676   603.6902 </r>
       <r>     5.7776   257.6073   615.5878 </r>
       <r>     5.8238   253.7488   627.3072 </r>
       <r>     5.8700   240.4923   638.4144 </r>
       <r>     5.9162   220.5857   648.6022 </r>
       <r>     5.9624   199.0738   657.7964 </r>
       <r>     6.0086   180.8084   666.1470 </r>
       <r>     6.0548   168.1624   673.9136 </r>
       <r>     6.1009   160.3590   681.3198 </r>
       <r>     6.1471   154.7065   688.4650 </r>
       <r>     6.1933   148.7601   695.3355 </r>
       <r>     6.2395   141.9545   701.8916 </r>
       <r>     6.2857   135.7926   708.1632 </r>
       <r>     6.3319   132.7129   714.2926 </r>
       <r>     6.3781   134.5044   720.5047 </r>
       <r>     6.4242   141.2234   727.0271 </r>
       <r>     6.4704   151.1320   734.0071 </r>
       <r>     6.5166   161.5849   741.4699 </r>
       <r>     6.5628   170.3578   749.3379 </r>
       <r>     6.6090   176.7157   757.4995 </r>
       <r>     6.6552   181.5916   765.8864 </r>
       <r>     6.7014   186.6483   774.5067 </r>
       <r>     6.7475   192.7318   783.4081 </r>
       <r>     6.7937   198.8687   792.5928 </r>
       <r>     6.8399   202.7849   801.9585 </r>
       <r>     6.8861   202.7395   811.3220 </r>
       <r>     6.9323   199.1907   820.5216 </r>
       <r>     6.9785   194.7323   829.5154 </r>
       <r>     7.0246   192.1410   838.3894 </r>
       <r>     7.0708   192.0712   847.2602 </r>
       <r>     7.1170   192.3698   856.1448 </r>
       <r>     7.1632   189.7123   864.9067 </r>
       <r>     7.2094   182.3460   873.3284 </r>
       <r>     7.2556   171.7685   881.2615 </r>
       <r>     7.3018   161.9741   888.7423 </r>
       <r>     7.3479   156.8251   895.9853 </r>
       <r>     7.3941   157.5814   903.2632 </r>
       <r>     7.4403   162.4205   910.7646 </r>
       <r>     7.4865   168.0950   918.5281 </r>
       <r>     7.5327   172.1894   926.4807 </r>
       <r>     7.5789   174.2377   934.5278 </r>
       <r>     7.6251   175.2486   942.6217 </r>
       <r>     7.6712   176.5698   950.7766 </r>
       <r>     7.7174   179.1948   959.0527 </r>
       <r>     7.7636   183.6991   967.5369 </r>
       <r>     7.8098   190.1837   976.3205 </r>
       <r>     7.8560   197.7636   985.4542 </r>
       <r>     7.9022   203.9300   994.8728 </r>
       <r>     7.9483   204.6149  1004.3229 </r>
       <r>     7.9945   195.4575  1013.3501 </r>
       <r>     8.0407   173.8880  1021.3812 </r>
       <r>     8.0869   140.8977  1027.8885 </r>
       <r>     8.1331   101.3102  1032.5676 </r>
       <r>     8.1793    62.1503  1035.4380 </r>
       <r>     8.2255    29.8870  1036.8183 </r>
       <r>     8.2716     8.0808  1037.1915 </r>
       <r>     8.3178    -3.3336  1037.0376 </r>
       <r>     8.3640    -7.0273  1036.7130 </r>
       <r>     8.4102    -6.4647  1036.4144 </r>
       <r>     8.4564    -4.4395  1036.2094 </r>
       <r>     8.5026    -2.5160  1036.0932 </r>
       <r>     8.5488    -1.2210  1036.0368 </r>
       <r>     8.5949    -0.5164  1036.0129 </r>
       <r>     8.6411    -0.1922  1036.0041 </r>
       <r>     8.6873    -0.0633  1036.0011 </r>
       <r>     8.7335    -0.0185  1036.0003 </r>
       <r>     8.7797    -0.0048  1036.0001 </r>
       <r>     8.8259    -0.0011  1036.0000 </r>
       <r>     8.8720    -0.0002  1036.0000 </r>
       <r>     8.9182    -0.0000  1036.0000 </r>
       <r>     8.9644    -0.0000  1036.0000 </r>
       <r>     9.0106    -0.0000  1036.0000 </r>
       <r>     9.0568    -0.0000  1036.0000 </r>
       <r>     9.1030    -0.0000  1036.0000 </r>
       <r>     9.1492    -0.0000  1036.0000 </r>
       <r>     9.1953    -0.0000  1036.0000 </r>
       <r>     9.2415    -0.0000  1036.0000 </r>
       <r>     9.2877    -0.0000  1036.0000 </r>
       <r>     9.3339    -0.0000  1036.0000 </r>
       <r>     9.3801    -0.0000  1036.0000 </r>
       <r>     9.4263     0.0000  1036.0000 </r>
       <r>     9.4725     0.0000  1036.0000 </r>
       <r>     9.5186     0.0000  1036.0000 </r>
       <r>     9.5648     0.0000  1036.0000 </r>
       <r>     9.6110     0.0000  1036.0000 </r>
       <r>     9.6572     0.0000  1036.0000 </r>
       <r>     9.7034     0.0000  1036.0000 </r>
       <r>     9.7496     0.0000  1036.0000 </r>
       <r>     9.7958     0.0000  1036.0000 </r>
       <r>     9.8419     0.0000  1036.0000 </r>
       <r>     9.8881     0.0000  1036.0000 </r>
       <r>     9.9343     0.0000  1036.0000 </r>
       <r>     9.9805     0.0000  1036.0000 </r>
       <r>    10.0267     0.0000  1036.0000 </r>
       <r>    10.0729     0.0000  1036.0000 </r>
       <r>    10.1190     0.0000  1036.0000 </r>
      </set>
     </set>
    </array>
   </total>
  </dos>
 </calculation>
 <structure name="finalpos" >
  <crystal>
   <varray name="basis" >
    <v>      10.22117515      -0.00000000       0.00000000 </v>
    <v>      -0.00000000      10.22117515       0.00000000 </v>
    <v>      -0.00000000      -0.00000000      10.22117515 </v>
   </varray>
   <i name="volume">   1067.83091674 </i>
   <varray name="rec_basis" >
    <v>       0.09783611       0.00000000       0.00000000 </v>
    <v>       0.00000000       0.09783611       0.00000000 </v>
    <v>      -0.00000000      -0.00000000       0.09783611 </v>
   </varray>
  </crystal>
  <varray name="positions" >
   <v>      -0.00000000       0.00000000       0.00000000 </v>
   <v>      -0.00000000       0.16666893       0.16666893 </v>
   <v>       0.16666893      -0.00000000       0.16666893 </v>
   <v>       0.16666893       0.16666893      -0.00000000 </v>
   <v>       0.33333106      -0.00000000       0.00000000 </v>
   <v>       0.33333107       0.16666893       0.16666893 </v>
   <v>       0.50000000       0.00000000       0.16666894 </v>
   <v>       0.50000000       0.16666894      -0.00000000 </v>
   <v>       0.66666897       0.00000000      -0.00000000 </v>
   <v>       0.66666896       0.16666893       0.16666893 </v>
   <v>       0.83333104       0.00000000       0.16666893 </v>
   <v>       0.83333104       0.16666893      -0.00000000 </v>
   <v>       0.00000000       0.33333106       0.00000000 </v>
   <v>      -0.00000000       0.50000000       0.16666894 </v>
   <v>       0.16666893       0.33333107       0.16666893 </v>
   <v>       0.16666894       0.50000000       0.00000000 </v>
   <v>       0.33333107       0.33333107       0.00000000 </v>
   <v>       0.33333107       0.50000000       0.16666893 </v>
   <v>       0.50000000       0.33333107       0.16666893 </v>
   <v>       0.50000000       0.50000000      -0.00000000 </v>
   <v>       0.66666896       0.33333107       0.00000000 </v>
   <v>       0.66666896       0.50000000       0.16666893 </v>
   <v>       0.83333104       0.33333107       0.16666893 </v>
   <v>       0.83333103       0.50000000       0.00000000 </v>
   <v>      -0.00000000       0.66666897       0.00000000 </v>
   <v>       0.00000000       0.83333104       0.16666893 </v>
   <v>       0.16666893       0.66666896       0.16666893 </v>
   <v>       0.16666893       0.83333104      -0.00000000 </v>
   <v>       0.33333107       0.66666896      -0.00000000 </v>
   <v>       0.33333107       0.83333104       0.16666893 </v>
   <v>       0.50000000       0.66666896       0.16666893 </v>
   <v>       0.50000000       0.83333103       0.00000000 </v>
   <v>       0.66666896       0.66666896       0.00000000 </v>
   <v>       0.66666896       0.83333104       0.16666893 </v>
   <v>       0.83333104       0.66666896       0.16666893 </v>
   <v>       0.83333104       0.83333104       0.00000000 </v>
   <v>       0.00000000      -0.00000000       0.33333106 </v>
   <v>      -0.00000000       0.16666894       0.50000000 </v>
   <v>       0.16666894      -0.00000000       0.50000000 </v>
   <v>       0.16666893       0.16666893       0.33333107 </v>
   <v>       0.33333107      -0.00000000       0.33333107 </v>
   <v>       0.33333107       0.16666893       0.50000000 </v>
   <v>       0.50000000      -0.00000000       0.50000000 </v>
   <v>       0.50000000       0.16666893       0.33333107 </v>
   <v>       0.66666896       0.00000000       0.33333107 </v>
   <v>       0.66666896       0.16666893       0.50000000 </v>
   <v>       0.83333103       0.00000000       0.50000000 </v>
   <v>       0.83333104       0.16666893       0.33333107 </v>
   <v>       0.00000000       0.33333107       0.33333107 </v>
   <v>      -0.00000000       0.50000000       0.50000000 </v>
   <v>       0.16666893       0.33333107       0.50000000 </v>
   <v>       0.16666893       0.50000000       0.33333107 </v>
   <v>       0.33333107       0.33333107       0.33333107 </v>
   <v>       0.33333106       0.50000000       0.50000000 </v>
   <v>       0.50000000       0.33333106       0.50000000 </v>
   <v>       0.50000000       0.50000000       0.33333106 </v>
   <v>       0.66666896       0.33333107       0.33333107 </v>
   <v>       0.66666897       0.50000000       0.50000000 </v>
   <v>       0.83333104       0.33333107       0.50000000 </v>
   <v>       0.83333104       0.50000000       0.33333107 </v>
   <v>      -0.00000000       0.66666896       0.33333107 </v>
   <v>      -0.00000000       0.83333103       0.50000000 </v>
   <v>       0.16666893       0.66666896       0.50000000 </v>
   <v>       0.16666893       0.83333104       0.33333107 </v>
   <v>       0.33333107       0.66666896       0.33333107 </v>
   <v>       0.33333107       0.83333104       0.50000000 </v>
   <v>       0.50000000       0.66666897       0.50000000 </v>
   <v>       0.50000000       0.83333104       0.33333107 </v>
   <v>       0.66666896       0.66666896       0.33333107 </v>
   <v>       0.66666896       0.83333104       0.50000000 </v>
   <v>       0.83333104       0.66666896       0.50000000 </v>
   <v>       0.83333104       0.83333104       0.33333107 </v>
   <v>       0.00000000      -0.00000000       0.66666897 </v>
   <v>       0.00000000       0.16666893       0.83333104 </v>
   <v>       0.16666893      -0.00000000       0.83333104 </v>
   <v>       0.16666893       0.16666893       0.66666896 </v>
   <v>       0.33333107       0.00000000       0.66666896 </v>
   <v>       0.33333107       0.16666893       0.83333104 </v>
   <v>       0.50000000      -0.00000000       0.83333103 </v>
   <v>       0.50000000       0.16666893       0.66666896 </v>
   <v>       0.66666896       0.00000000       0.66666896 </v>
   <v>       0.66666896       0.16666893       0.83333104 </v>
   <v>       0.83333104      -0.00000000       0.83333104 </v>
   <v>       0.83333104       0.16666893       0.66666896 </v>
   <v>      -0.00000000       0.33333107       0.66666896 </v>
   <v>      -0.00000000       0.50000000       0.83333103 </v>
   <v>       0.16666893       0.33333107       0.83333104 </v>
   <v>       0.16666893       0.50000000       0.66666896 </v>
   <v>       0.33333107       0.33333107       0.66666896 </v>
   <v>       0.33333107       0.50000000       0.83333104 </v>
   <v>       0.50000000       0.33333107       0.83333104 </v>
   <v>       0.50000000       0.50000000       0.66666897 </v>
   <v>       0.66666896       0.33333107       0.66666896 </v>
   <v>       0.66666896       0.50000000       0.83333104 </v>
   <v>       0.83333104       0.33333107       0.83333104 </v>
   <v>       0.83333104       0.50000000       0.66666896 </v>
   <v>       0.00000000       0.66666896       0.66666896 </v>
   <v>       0.00000000       0.83333104       0.83333104 </v>
   <v>       0.16666893       0.66666896       0.83333104 </v>
   <v>       0.16666893       0.83333104       0.66666896 </v>
   <v>       0.33333107       0.66666896       0.66666896 </v>
   <v>       0.33333107       0.83333104       0.83333104 </v>
   <v>       0.50000000       0.66666896       0.83333104 </v>
   <v>       0.50000000       0.83333104       0.66666896 </v>
   <v>       0.66666896       0.66666896       0.66666896 </v>
   <v>       0.66666896       0.83333104       0.83333104 </v>
   <v>       0.83333104       0.66666896       0.83333104 </v>
   <v>       0.83333104       0.83333104       0.66666896 </v>
  </varray>
 </structure>
</modeling>
