 108 108   0   0
  0.1215811E+02  0.1095040E-08  0.1095040E-08  0.1095040E-08  0.5000000E-15
  1.000000000000000E-004
  CAR 
 Opt                                     
      9.71543882     -3.93223780  301      6.78884173      1.00000000
     -3.932  0.0000E+00  0.0000E+00
     -3.887  0.0000E+00  0.0000E+00
     -3.841  0.0000E+00  0.0000E+00
     -3.796  0.0000E+00  0.0000E+00
     -3.750  0.0000E+00  0.0000E+00
     -3.705  0.0000E+00  0.0000E+00
     -3.659  0.0000E+00  0.0000E+00
     -3.614  0.0000E+00  0.0000E+00
     -3.568 -0.1100E-29 -0.5003E-31
     -3.523 -0.4085E-28 -0.1908E-29
     -3.477 -0.1400E-26 -0.6559E-28
     -3.432 -0.4320E-25 -0.2031E-26
     -3.386 -0.1201E-23 -0.5666E-25
     -3.341 -0.3005E-22 -0.1424E-23
     -3.295 -0.6770E-21 -0.3222E-22
     -3.250 -0.1373E-19 -0.6569E-21
     -3.204 -0.2507E-18 -0.1206E-19
     -3.159 -0.4118E-17 -0.1994E-18
     -3.113 -0.5783E-16 -0.2830E-17
     -3.068 -0.7852E-15 -0.3855E-16
     -3.022 -0.9360E-14 -0.4643E-15
     -2.977 -0.1003E-12 -0.5029E-14
     -2.931 -0.9666E-12 -0.4900E-13
     -2.886 -0.8362E-11 -0.4294E-12
     -2.840 -0.6493E-10 -0.3383E-11
     -2.795 -0.4522E-09 -0.2396E-10
     -2.749 -0.2824E-08 -0.1524E-09
     -2.704 -0.1579E-07 -0.8708E-09
     -2.658 -0.7900E-07 -0.4465E-08
     -2.613 -0.3531E-06 -0.2053E-07
     -2.567 -0.1407E-05 -0.8456E-07
     -2.522 -0.4993E-05 -0.3117E-06
     -2.476 -0.1571E-04 -0.1027E-05
     -2.431 -0.4371E-04 -0.3015E-05
     -2.386 -0.1068E-03 -0.7875E-05
     -2.340 -0.2274E-03 -0.1822E-04
     -2.295 -0.4157E-03 -0.3713E-04
     -2.249 -0.6350E-03 -0.6602E-04
     -2.204 -0.7607E-03 -0.1006E-03
     -2.158 -0.5683E-03 -0.1265E-03
     -2.113  0.2124E-03 -0.1168E-03
     -2.067  0.1789E-02 -0.3543E-04
     -2.022  0.4231E-02  0.1571E-03
     -1.976  0.7511E-02  0.4988E-03
     -1.931  0.1162E-01  0.1028E-02
     -1.885  0.1660E-01  0.1783E-02
     -1.840  0.2230E-01  0.2797E-02
     -1.794  0.2817E-01  0.4079E-02
     -1.749  0.3329E-01  0.5593E-02
     -1.703  0.3686E-01  0.7270E-02
     -1.658  0.3870E-01  0.9031E-02
     -1.612  0.3933E-01  0.1082E-01
     -1.567  0.3964E-01  0.1262E-01
     -1.521  0.4038E-01  0.1446E-01
     -1.476  0.4207E-01  0.1637E-01
     -1.430  0.4496E-01  0.1842E-01
     -1.385  0.4916E-01  0.2066E-01
     -1.339  0.5461E-01  0.2314E-01
     -1.294  0.6096E-01  0.2591E-01
     -1.248  0.6728E-01  0.2897E-01
     -1.203  0.7196E-01  0.3225E-01
     -1.157  0.7317E-01  0.3558E-01
     -1.112  0.6997E-01  0.3876E-01
     -1.066  0.6324E-01  0.4164E-01
     -1.021  0.5573E-01  0.4417E-01
     -0.975  0.5082E-01  0.4648E-01
     -0.930  0.5100E-01  0.4880E-01
     -0.884  0.5703E-01  0.5140E-01
     -0.839  0.6792E-01  0.5449E-01
     -0.793  0.8165E-01  0.5820E-01
     -0.748  0.9576E-01  0.6256E-01
     -0.702  0.1075E+00  0.6745E-01
     -0.657  0.1137E+00  0.7262E-01
     -0.611  0.1122E+00  0.7773E-01
     -0.566  0.1025E+00  0.8239E-01
     -0.520  0.8758E-01  0.8637E-01
     -0.475  0.7287E-01  0.8969E-01
     -0.429  0.6407E-01  0.9260E-01
     -0.384  0.6450E-01  0.9554E-01
     -0.338  0.7387E-01  0.9890E-01
     -0.293  0.8890E-01  0.1029E+00
     -0.247  0.1050E+00  0.1077E+00
     -0.202  0.1181E+00  0.1131E+00
     -0.156  0.1255E+00  0.1188E+00
     -0.111  0.1263E+00  0.1246E+00
     -0.065  0.1221E+00  0.1301E+00
     -0.020  0.1162E+00  0.1354E+00
      0.026  0.1121E+00  0.1405E+00
      0.071  0.1123E+00  0.1456E+00
      0.117  0.1170E+00  0.1509E+00
      0.162  0.1241E+00  0.1566E+00
      0.208  0.1314E+00  0.1625E+00
      0.253  0.1371E+00  0.1688E+00
      0.299  0.1405E+00  0.1752E+00
      0.344  0.1416E+00  0.1816E+00
      0.390  0.1404E+00  0.1880E+00
      0.435  0.1369E+00  0.1942E+00
      0.481  0.1313E+00  0.2002E+00
      0.526  0.1251E+00  0.2059E+00
      0.571  0.1206E+00  0.2114E+00
      0.617  0.1214E+00  0.2169E+00
      0.662  0.1310E+00  0.2229E+00
      0.708  0.1499E+00  0.2297E+00
      0.753  0.1746E+00  0.2376E+00
      0.799  0.1981E+00  0.2466E+00
      0.844  0.2131E+00  0.2563E+00
      0.890  0.2163E+00  0.2662E+00
      0.935  0.2102E+00  0.2757E+00
      0.981  0.2005E+00  0.2849E+00
      1.026  0.1920E+00  0.2936E+00
      1.072  0.1853E+00  0.3020E+00
      1.117  0.1781E+00  0.3101E+00
      1.163  0.1691E+00  0.3178E+00
      1.208  0.1620E+00  0.3252E+00
      1.254  0.1639E+00  0.3326E+00
      1.299  0.1817E+00  0.3409E+00
      1.345  0.2163E+00  0.3507E+00
      1.390  0.2611E+00  0.3626E+00
      1.436  0.3037E+00  0.3764E+00
      1.481  0.3310E+00  0.3915E+00
      1.527  0.3352E+00  0.4067E+00
      1.572  0.3172E+00  0.4212E+00
      1.618  0.2869E+00  0.4342E+00
      1.663  0.2609E+00  0.4461E+00
      1.709  0.2570E+00  0.4578E+00
      1.754  0.2884E+00  0.4709E+00
      1.800  0.3597E+00  0.4873E+00
      1.845  0.4650E+00  0.5084E+00
      1.891  0.5904E+00  0.5353E+00
      1.936  0.7189E+00  0.5680E+00
      1.982  0.8362E+00  0.6060E+00
      2.027  0.9331E+00  0.6485E+00
      2.073  0.1004E+01  0.6941E+00
      2.118  0.1045E+01  0.7417E+00
      2.164  0.1057E+01  0.7898E+00
      2.209  0.1046E+01  0.8373E+00
      2.255  0.1025E+01  0.8840E+00
      2.300  0.1010E+01  0.9299E+00
      2.346  0.1015E+01  0.9761E+00
      2.391  0.1041E+01  0.1023E+01
      2.437  0.1081E+01  0.1073E+01
      2.482  0.1121E+01  0.1124E+01
      2.528  0.1151E+01  0.1176E+01
      2.573  0.1174E+01  0.1229E+01
      2.619  0.1200E+01  0.1284E+01
      2.664  0.1242E+01  0.1340E+01
      2.710  0.1300E+01  0.1400E+01
      2.755  0.1366E+01  0.1462E+01
      2.801  0.1427E+01  0.1527E+01
      2.846  0.1477E+01  0.1594E+01
      2.892  0.1523E+01  0.1663E+01
      2.937  0.1573E+01  0.1735E+01
      2.983  0.1628E+01  0.1809E+01
      3.028  0.1678E+01  0.1885E+01
      3.074  0.1709E+01  0.1963E+01
      3.119  0.1709E+01  0.2041E+01
      3.165  0.1683E+01  0.2117E+01
      3.210  0.1642E+01  0.2192E+01
      3.256  0.1599E+01  0.2265E+01
      3.301  0.1561E+01  0.2336E+01
      3.347  0.1528E+01  0.2405E+01
      3.392  0.1504E+01  0.2474E+01
      3.438  0.1491E+01  0.2541E+01
      3.483  0.1493E+01  0.2609E+01
      3.528  0.1505E+01  0.2678E+01
      3.574  0.1514E+01  0.2747E+01
      3.619  0.1505E+01  0.2815E+01
      3.665  0.1474E+01  0.2882E+01
      3.710  0.1425E+01  0.2947E+01
      3.756  0.1374E+01  0.3009E+01
      3.801  0.1337E+01  0.3070E+01
      3.847  0.1324E+01  0.3131E+01
      3.892  0.1329E+01  0.3191E+01
      3.938  0.1334E+01  0.3252E+01
      3.983  0.1323E+01  0.3312E+01
      4.029  0.1294E+01  0.3371E+01
      4.074  0.1261E+01  0.3428E+01
      4.120  0.1248E+01  0.3485E+01
      4.165  0.1271E+01  0.3543E+01
      4.211  0.1328E+01  0.3603E+01
      4.256  0.1404E+01  0.3667E+01
      4.302  0.1485E+01  0.3735E+01
      4.347  0.1568E+01  0.3806E+01
      4.393  0.1659E+01  0.3881E+01
      4.438  0.1754E+01  0.3961E+01
      4.484  0.1837E+01  0.4045E+01
      4.529  0.1884E+01  0.4130E+01
      4.575  0.1880E+01  0.4216E+01
      4.620  0.1829E+01  0.4299E+01
      4.666  0.1757E+01  0.4379E+01
      4.711  0.1703E+01  0.4457E+01
      4.757  0.1703E+01  0.4534E+01
      4.802  0.1773E+01  0.4615E+01
      4.848  0.1905E+01  0.4701E+01
      4.893  0.2064E+01  0.4795E+01
      4.939  0.2209E+01  0.4896E+01
      4.984  0.2305E+01  0.5001E+01
      5.030  0.2338E+01  0.5107E+01
      5.075  0.2322E+01  0.5213E+01
      5.121  0.2280E+01  0.5316E+01
      5.166  0.2241E+01  0.5418E+01
      5.212  0.2226E+01  0.5520E+01
      5.257  0.2250E+01  0.5622E+01
      5.303  0.2321E+01  0.5727E+01
      5.348  0.2433E+01  0.5838E+01
      5.394  0.2560E+01  0.5955E+01
      5.439  0.2661E+01  0.6076E+01
      5.485  0.2689E+01  0.6198E+01
      5.530  0.2613E+01  0.6317E+01
      5.576  0.2444E+01  0.6428E+01
      5.621  0.2223E+01  0.6529E+01
      5.667  0.2007E+01  0.6620E+01
      5.712  0.1835E+01  0.6704E+01
      5.758  0.1715E+01  0.6782E+01
      5.803  0.1631E+01  0.6856E+01
      5.849  0.1557E+01  0.6927E+01
      5.894  0.1486E+01  0.6995E+01
      5.940  0.1425E+01  0.7059E+01
      5.985  0.1395E+01  0.7123E+01
      6.031  0.1411E+01  0.7187E+01
      6.076  0.1473E+01  0.7254E+01
      6.122  0.1564E+01  0.7325E+01
      6.167  0.1662E+01  0.7401E+01
      6.213  0.1748E+01  0.7480E+01
      6.258  0.1816E+01  0.7563E+01
      6.304  0.1873E+01  0.7648E+01
      6.349  0.1933E+01  0.7736E+01
      6.395  0.2003E+01  0.7827E+01
      6.440  0.2071E+01  0.7921E+01
      6.485  0.2118E+01  0.8018E+01
      6.531  0.2128E+01  0.8115E+01
      6.576  0.2104E+01  0.8210E+01
      6.622  0.2067E+01  0.8304E+01
      6.667  0.2040E+01  0.8397E+01
      6.713  0.2024E+01  0.8489E+01
      6.758  0.2002E+01  0.8580E+01
      6.804  0.1949E+01  0.8669E+01
      6.849  0.1859E+01  0.8754E+01
      6.895  0.1754E+01  0.8833E+01
      6.940  0.1673E+01  0.8910E+01
      6.986  0.1646E+01  0.8984E+01
      7.031  0.1674E+01  0.9061E+01
      7.077  0.1733E+01  0.9139E+01
      7.122  0.1790E+01  0.9221E+01
      7.168  0.1824E+01  0.9304E+01
      7.213  0.1836E+01  0.9387E+01
      7.259  0.1837E+01  0.9471E+01
      7.304  0.1846E+01  0.9555E+01
      7.350  0.1880E+01  0.9640E+01
      7.395  0.1948E+01  0.9729E+01
      7.441  0.2049E+01  0.9822E+01
      7.486  0.2163E+01  0.9921E+01
      7.532  0.2248E+01  0.1002E+02
      7.577  0.2251E+01  0.1013E+02
      7.623  0.2121E+01  0.1022E+02
      7.668  0.1842E+01  0.1031E+02
      7.714  0.1440E+01  0.1037E+02
      7.759  0.9858E+00  0.1042E+02
      7.805  0.5623E+00  0.1044E+02
      7.850  0.2354E+00  0.1045E+02
      7.896  0.3156E-01  0.1045E+02
      7.941 -0.6263E-01  0.1045E+02
      7.987 -0.8307E-01  0.1045E+02
      8.032 -0.6772E-01  0.1044E+02
      8.078 -0.4350E-01  0.1044E+02
      8.123 -0.2353E-01  0.1044E+02
      8.169 -0.1103E-01  0.1044E+02
      8.214 -0.4536E-02  0.1044E+02
      8.260 -0.1652E-02  0.1044E+02
      8.305 -0.5357E-03  0.1044E+02
      8.351 -0.1551E-03  0.1044E+02
      8.396 -0.4018E-04  0.1044E+02
      8.442 -0.9337E-05  0.1044E+02
      8.487 -0.1948E-05  0.1044E+02
      8.533 -0.3651E-06  0.1044E+02
      8.578 -0.6155E-07  0.1044E+02
      8.624 -0.9336E-08  0.1044E+02
      8.669 -0.1275E-08  0.1044E+02
      8.715 -0.1568E-09  0.1044E+02
      8.760 -0.1736E-10  0.1044E+02
      8.806 -0.1733E-11  0.1044E+02
      8.851 -0.1558E-12  0.1044E+02
      8.897 -0.1276E-13  0.1044E+02
      8.942 -0.8786E-15  0.1044E+02
      8.988  0.0000E+00  0.1044E+02
      9.033  0.0000E+00  0.1044E+02
      9.079  0.0000E+00  0.1044E+02
      9.124  0.0000E+00  0.1044E+02
      9.170  0.0000E+00  0.1044E+02
      9.215  0.0000E+00  0.1044E+02
      9.261  0.0000E+00  0.1044E+02
      9.306  0.0000E+00  0.1044E+02
      9.352  0.0000E+00  0.1044E+02
      9.397  0.0000E+00  0.1044E+02
      9.442  0.0000E+00  0.1044E+02
      9.488  0.0000E+00  0.1044E+02
      9.533  0.0000E+00  0.1044E+02
      9.579  0.0000E+00  0.1044E+02
      9.624  0.0000E+00  0.1044E+02
      9.670  0.0000E+00  0.1044E+02
      9.715  0.0000E+00  0.1044E+02
