  108  108  100    1
  0.1215811E+02  0.1095040E-08  0.1095040E-08  0.1095040E-08  0.5000000E-15
  1.000000000000000E-004
  CAR 
 Opt                                     
    864      4    522
 
  0.1250000E+00  0.1250000E+00  0.1250000E+00  0.1250000E+00
    1       -1.932238   1.000000
    2       -0.800675   1.000000
    3       -0.800675   1.000000
    4       -0.800675   1.000000
    5       -0.117634   1.000000
    6       -0.117634   1.000000
    7       -0.117634   1.000000
    8        0.214770   1.000000
    9        0.214770   1.000000
   10        0.214770   1.000000
   11        0.821301   1.000000
   12        0.821301   1.000000
   13        0.821301   1.000000
   14        0.821301   1.000000
   15        0.821301   1.000000
   16        0.821301   1.000000
   17        0.927842   1.000000
   18        1.323453   1.000000
   19        1.323453   1.000000
   20        1.323453   1.000000
   21        1.370518   1.000000
   22        1.370518   1.000000
   23        1.370518   1.000000
   24        1.591612   1.000000
   25        1.591612   1.000000
   26        1.591612   1.000000
   27        1.724999   1.000000
   28        1.796733   1.000000
   29        1.796733   1.000000
   30        1.796733   1.000000
   31        1.896552   1.000000
   32        1.896552   1.000000
   33        1.896552   1.000000
   34        1.992392   1.000000
   35        1.992392   1.000000
   36        1.992392   1.000000
   37        2.349687   1.000000
   38        2.349687   1.000000
   39        2.349687   1.000000
   40        2.472114   1.000000
   41        2.472114   1.000000
   42        2.472114   1.000000
   43        2.472114   1.000000
   44        2.472114   1.000000
   45        2.472114   1.000000
   46        2.486914   1.000000
   47        2.486914   1.000000
   48        2.486914   1.000000
   49        2.531328   1.000000
   50        2.531328   1.000000
   51        2.531328   1.000000
   52        2.531328   1.000000
   53        2.531328   1.000000
   54        2.531328   1.000000
   55        2.556190   1.000000
   56        2.556190   1.000000
   57        2.556190   1.000000
   58        2.556190   1.000000
   59        2.556190   1.000000
   60        2.556190   1.000000
   61        2.631453   1.000000
   62        2.631453   1.000000
   63        2.631453   1.000000
   64        2.634887   1.000000
   65        2.634887   1.000000
   66        2.634887   1.000000
   67        2.726846   1.000000
   68        2.726846   1.000000
   69        2.726846   1.000000
   70        2.726846   1.000000
   71        2.726846   1.000000
   72        2.726846   1.000000
   73        2.766171   1.000000
   74        2.766171   1.000000
   75        2.766171   1.000000
   76        2.766171   1.000000
   77        2.766171   1.000000
   78        2.766171   1.000000
   79        2.769055   1.000000
   80        2.769055   1.000000
   81        2.769055   1.000000
   82        2.823676   1.000000
   83        2.823676   1.000000
   84        2.823676   1.000000
   85        2.823676   1.000000
   86        2.823676   1.000000
   87        2.823676   1.000000
   88        2.935432   1.000000
   89        2.935432   1.000000
   90        2.935432   1.000000
   91        2.935432   1.000000
   92        2.935432   1.000000
   93        2.935432   1.000000
   94        3.049099   1.000000
   95        3.049099   1.000000
   96        3.049099   1.000000
   97        3.066669   1.000000
   98        3.066669   1.000000
   99        3.066669   1.000000
  100        3.099251   1.000000
  101        3.099251   1.000000
  102        3.099251   1.000000
  103        3.099251   1.000000
  104        3.099251   1.000000
  105        3.099251   1.000000
  106        3.160609   1.000000
  107        3.160609   1.000000
  108        3.160609   1.000000
  109        3.160610   1.000000
  110        3.160610   1.000000
  111        3.160610   1.000000
  112        3.324843   1.000000
  113        3.324843   1.000000
  114        3.324843   1.000000
  115        3.324843   1.000000
  116        3.324843   1.000000
  117        3.324844   1.000000
  118        3.333411   1.000000
  119        3.333411   1.000000
  120        3.333411   1.000000
  121        3.437186   1.000000
  122        3.437186   1.000000
  123        3.437186   1.000000
  124        3.440371   1.000000
  125        3.440371   1.000000
  126        3.440371   1.000000
  127        3.485195   1.000000
  128        3.485195   1.000000
  129        3.485195   1.000000
  130        3.485195   1.000000
  131        3.485195   1.000000
  132        3.485195   1.000000
  133        3.509864   1.000000
  134        3.509864   1.000000
  135        3.509864   1.000000
  136        3.509864   1.000000
  137        3.509864   1.000000
  138        3.509864   1.000000
  139        3.563787   1.000000
  140        3.563787   1.000000
  141        3.563787   1.000000
  142        3.563787   1.000000
  143        3.563788   1.000000
  144        3.563788   1.000000
  145        3.682335   1.000000
  146        3.682335   1.000000
  147        3.682335   1.000000
  148        3.682335   1.000000
  149        3.682335   1.000000
  150        3.682335   1.000000
  151        3.720894   1.000000
  152        3.720894   1.000000
  153        3.720894   1.000000
  154        3.744692   1.000000
  155        3.744692   1.000000
  156        3.744692   1.000000
  157        3.744692   1.000000
  158        3.744692   1.000000
  159        3.744692   1.000000
  160        3.897889   1.000000
  161        3.897889   1.000000
  162        3.897889   1.000000
  163        3.897889   1.000000
  164        3.897889   1.000000
  165        3.897889   1.000000
  166        3.914725   1.000000
  167        3.914725   1.000000
  168        3.914725   1.000000
  169        4.105755   1.000000
  170        4.105755   1.000000
  171        4.105755   1.000000
  172        4.105755   1.000000
  173        4.105755   1.000000
  174        4.105755   1.000000
  175        4.245708   1.000000
  176        4.245708   1.000000
  177        4.245708   1.000000
  178        4.264153   1.000000
  179        4.264153   1.000000
  180        4.264153   1.000000
  181        4.297163   1.000000
  182        4.297163   1.000000
  183        4.297163   1.000000
  184        4.311871   1.000000
  185        4.311871   1.000000
  186        4.311871   1.000000
  187        4.311871   1.000000
  188        4.311871   1.000000
  189        4.311871   1.000000
  190        4.320190   1.000000
  191        4.320190   1.000000
  192        4.320190   1.000000
  193        4.444696   1.000000
  194        4.444696   1.000000
  195        4.444696   1.000000
  196        4.444696   1.000000
  197        4.444696   1.000000
  198        4.444696   1.000000
  199        4.465230   1.000000
  200        4.465230   1.000000
  201        4.465230   1.000000
  202        4.471770   1.000000
  203        4.471770   1.000000
  204        4.471770   1.000000
  205        4.471770   1.000000
  206        4.471770   1.000000
  207        4.471770   1.000000
  208        4.484237   1.000000
  209        4.484237   1.000000
  210        4.484237   1.000000
  211        4.484237   1.000000
  212        4.484237   1.000000
  213        4.484237   1.000000
  214        4.602235   1.000000
  215        4.602235   1.000000
  216        4.602235   1.000000
  217        4.626958   1.000000
  218        4.626958   1.000000
  219        4.626958   1.000000
  220        4.641349   1.000000
  221        4.641349   1.000000
  222        4.641349   1.000000
  223        4.732263   1.000000
  224        4.813537   1.000000
  225        4.813537   1.000000
  226        4.813537   1.000000
  227        4.813537   1.000000
  228        4.813537   1.000000
  229        4.813537   1.000000
  230        4.821581   1.000000
  231        4.821581   1.000000
  232        4.821582   1.000000
  233        4.821582   1.000000
  234        4.821582   1.000000
  235        4.821583   1.000000
  236        4.827806   1.000000
  237        4.827806   1.000000
  238        4.827806   1.000000
  239        4.964053   1.000000
  240        4.964053   1.000000
  241        4.964053   1.000000
  242        4.964053   1.000000
  243        4.964053   1.000000
  244        4.964053   1.000000
  245        5.058862   1.000000
  246        5.058862   1.000000
  247        5.058862   1.000000
  248        5.063968   1.000000
  249        5.063968   1.000000
  250        5.063968   1.000000
  251        5.068200   1.000000
  252        5.068200   1.000000
  253        5.068200   1.000000
  254        5.068200   1.000000
  255        5.068200   1.000000
  256        5.068200   1.000000
  257        5.094553   1.000000
  258        5.094553   1.000000
  259        5.094553   1.000000
  260        5.121629   1.000000
  261        5.121629   1.000000
  262        5.121629   1.000000
  263        5.121629   1.000000
  264        5.121629   1.000000
  265        5.121629   1.000000
  266        5.136423   1.000000
  267        5.164820   1.000000
  268        5.164820   1.000000
  269        5.164820   1.000000
  270        5.165355   1.000000
  271        5.165355   1.000000
  272        5.165355   1.000000
  273        5.186736   1.000000
  274        5.186736   1.000000
  275        5.204632   1.000000
  276        5.204632   1.000000
  277        5.221909   1.000000
  278        5.221909   1.000000
  279        5.221909   1.000000
  280        5.221909   1.000000
  281        5.221909   1.000000
  282        5.221909   1.000000
  283        5.237652   1.000000
  284        5.237652   1.000000
  285        5.237652   1.000000
  286        5.283714   1.000000
  287        5.283714   1.000000
  288        5.283714   1.000000
  289        5.285683   1.000000
  290        5.285683   1.000000
  291        5.285683   1.000000
  292        5.303081   1.000000
  293        5.303081   1.000000
  294        5.303081   1.000000
  295        5.303081   1.000000
  296        5.303081   1.000000
  297        5.303081   1.000000
  298        5.331312   1.000000
  299        5.331312   1.000000
  300        5.331312   1.000000
  301        5.361972   1.000000
  302        5.361972   1.000000
  303        5.361973   1.000000
  304        5.374783   1.000000
  305        5.374783   1.000000
  306        5.415393   1.000000
  307        5.415393   1.000000
  308        5.415393   1.000000
  309        5.417570   1.000000
  310        5.417570   1.000000
  311        5.417570   1.000000
  312        5.553757   1.000000
  313        5.569831   1.000000
  314        5.569831   1.000000
  315        5.569831   1.000000
  316        5.585737   1.000000
  317        5.585737   1.000000
  318        5.585737   1.000000
  319        5.593248   1.000000
  320        5.593248   1.000000
  321        5.593248   1.000000
  322        5.593248   1.000000
  323        5.593248   1.000000
  324        5.593248   1.000000
  325        5.595207   1.000000
  326        5.595207   1.000000
  327        5.595207   1.000000
  328        5.619839   1.000000
  329        5.619839   1.000000
  330        5.619839   1.000000
  331        5.735292   1.000000
  332        5.735292   1.000000
  333        5.735292   1.000000
  334        5.738265   1.000000
  335        5.738265   1.000000
  336        5.738265   1.000000
  337        5.744679   1.000000
  338        5.744679   1.000000
  339        5.744679   1.000000
  340        5.744679   1.000000
  341        5.744679   1.000000
  342        5.744679   1.000000
  343        5.762330   1.000000
  344        5.762330   1.000000
  345        5.762330   1.000000
  346        5.812097   1.000000
  347        5.812097   1.000000
  348        5.812097   1.000000
  349        5.812097   1.000000
  350        5.812097   1.000000
  351        5.812097   1.000000
  352        5.856497   1.000000
  353        5.856497   1.000000
  354        5.856497   1.000000
  355        5.894016   1.000000
  356        5.894016   1.000000
  357        5.894016   1.000000
  358        5.894016   1.000000
  359        5.894016   1.000000
  360        5.894016   1.000000
  361        5.926306   1.000000
  362        5.926306   1.000000
  363        5.926306   1.000000
  364        5.972479   1.000000
  365        5.972479   1.000000
  366        5.972479   1.000000
  367        6.074853   1.000003
  368        6.074853   1.000003
  369        6.074853   1.000003
  370        6.101718   1.000007
  371        6.101718   1.000007
  372        6.101718   1.000007
  373        6.236065   1.000329
  374        6.236065   1.000329
  375        6.236065   1.000329
  376        6.236066   1.000329
  377        6.236066   1.000329
  378        6.236066   1.000329
  379        6.237390   1.000340
  380        6.237390   1.000340
  381        6.237390   1.000340
  382        6.240839   1.000371
  383        6.240839   1.000371
  384        6.240839   1.000371
  385        6.242474   1.000386
  386        6.242474   1.000386
  387        6.242474   1.000386
  388        6.319693   1.002243
  389        6.319693   1.002243
  390        6.319693   1.002243
  391        6.422898   1.013315
  392        6.422898   1.013315
  393        6.422898   1.013315
  394        6.422898   1.013315
  395        6.422898   1.013315
  396        6.422898   1.013315
  397        6.490706   1.028065
  398        6.490706   1.028065
  399        6.490707   1.028065
  400        6.490707   1.028065
  401        6.490708   1.028066
  402        6.490708   1.028066
  403        6.615328   1.005372
  404        6.615328   1.005372
  405        6.615328   1.005372
  406        6.615328   1.005371
  407        6.615328   1.005371
  408        6.615328   1.005371
  409        6.635297   0.981322
  410        6.635297   0.981322
  411        6.635297   0.981322
  412        6.635298   0.981322
  413        6.635298   0.981322
  414        6.635298   0.981322
  415        6.681369   0.889924
  416        6.681369   0.889924
  417        6.681370   0.889922
  418        6.691766   0.861962
  419        6.691766   0.861962
  420        6.691766   0.861962
  421        6.710616   0.804599
  422        6.710616   0.804599
  423        6.796054   0.469505
  424        6.796054   0.469505
  425        6.796054   0.469505
  426        6.796054   0.469505
  427        6.796054   0.469505
  428        6.796054   0.469505
  429        6.868497   0.190763
  430        6.868497   0.190763
  431        6.868497   0.190763
  432        6.868497   0.190762
  433        6.868497   0.190762
  434        6.868497   0.190762
  435        6.878057   0.160939
  436        6.878057   0.160939
  437        6.878058   0.160938
  438        6.914723   0.067226
  439        6.914723   0.067226
  440        6.914723   0.067226
  441        7.026272  -0.035229
  442        7.026272  -0.035229
  443        7.026272  -0.035229
  444        7.026273  -0.035229
  445        7.026273  -0.035229
  446        7.026273  -0.035229
  447        7.037050  -0.035418
  448        7.037050  -0.035418
  449        7.037050  -0.035418
  450        7.041082  -0.035263
  451        7.041082  -0.035263
  452        7.065197  -0.032418
  453        7.065197  -0.032418
  454        7.065197  -0.032418
  455        7.065197  -0.032418
  456        7.065197  -0.032418
  457        7.065197  -0.032418
  458        7.090911  -0.027188
  459        7.090911  -0.027188
  460        7.090911  -0.027188
  461        7.090911  -0.027188
  462        7.090911  -0.027188
  463        7.090911  -0.027188
  464        7.128981  -0.018517
  465        7.128981  -0.018517
  466        7.128981  -0.018517
  467        7.141245  -0.015933
  468        7.141245  -0.015933
  469        7.141245  -0.015933
  470        7.203818  -0.006230
  471        7.203818  -0.006230
  472        7.203819  -0.006230
  473        7.223456  -0.004394
  474        7.223456  -0.004394
  475        7.223456  -0.004394
  476        7.251691  -0.002550
  477        7.251691  -0.002550
  478        7.251691  -0.002550
  479        7.256556  -0.002310
  480        7.256556  -0.002310
  481        7.256556  -0.002310
  482        7.314450  -0.000641
  483        7.314450  -0.000641
  484        7.314450  -0.000641
  485        7.353194  -0.000244
  486        7.353194  -0.000244
  487        7.353194  -0.000244
  488        7.353194  -0.000244
  489        7.353194  -0.000244
  490        7.353194  -0.000244
  491        7.385476  -0.000103
  492        7.385476  -0.000103
  493        7.385476  -0.000103
  494        7.385476  -0.000103
  495        7.385476  -0.000103
  496        7.385476  -0.000103
  497        7.447945  -0.000016
  498        7.447946  -0.000016
  499        7.447947  -0.000016
  500        7.447948  -0.000016
  501        7.447951  -0.000016
  502        7.447954  -0.000016
  503        7.465480  -0.000009
  504        7.465494  -0.000009
  505        7.468103  -0.000009
  506        7.468105  -0.000009
  507        7.468111  -0.000009
  508        7.557466  -0.000000
  509        7.557482  -0.000000
  510        7.557594  -0.000000
  511        7.560636  -0.000000
  512        7.560644  -0.000000
  513        7.560658  -0.000000
  514        7.561074  -0.000000
  515        7.561076  -0.000000
  516        7.561077  -0.000000
  517        7.561079  -0.000000
  518        7.561082  -0.000000
  519        7.561104  -0.000000
  520        7.611334  -0.000000
  521        7.611383  -0.000000
  522        7.611980  -0.000000
 
  0.3750000E+00  0.1250000E+00  0.1250000E+00  0.3750000E+00
    1       -1.736080   1.000000
    2       -1.352387   1.000000
    3       -0.623571   1.000000
    4       -0.623571   1.000000
    5       -0.278460   1.000000
    6       -0.278460   1.000000
    7        0.047705   1.000000
    8        0.047705   1.000000
    9        0.343973   1.000000
   10        0.368066   1.000000
   11        0.368066   1.000000
   12        0.589866   1.000000
   13        0.629090   1.000000
   14        0.915356   1.000000
   15        0.915356   1.000000
   16        1.090204   1.000000
   17        1.090205   1.000000
   18        1.319739   1.000000
   19        1.411491   1.000000
   20        1.483427   1.000000
   21        1.483427   1.000000
   22        1.487153   1.000000
   23        1.737895   1.000000
   24        1.877665   1.000000
   25        1.877665   1.000000
   26        1.892761   1.000000
   27        1.937345   1.000000
   28        1.937345   1.000000
   29        1.941682   1.000000
   30        1.960747   1.000000
   31        1.960747   1.000000
   32        1.999248   1.000000
   33        2.016725   1.000000
   34        2.016725   1.000000
   35        2.100484   1.000000
   36        2.107321   1.000000
   37        2.107321   1.000000
   38        2.128052   1.000000
   39        2.128052   1.000000
   40        2.135335   1.000000
   41        2.172955   1.000000
   42        2.172955   1.000000
   43        2.202505   1.000000
   44        2.202505   1.000000
   45        2.240559   1.000000
   46        2.240559   1.000000
   47        2.285005   1.000000
   48        2.285005   1.000000
   49        2.384054   1.000000
   50        2.384054   1.000000
   51        2.486623   1.000000
   52        2.486623   1.000000
   53        2.515888   1.000000
   54        2.515888   1.000000
   55        2.516445   1.000000
   56        2.516445   1.000000
   57        2.539855   1.000000
   58        2.539855   1.000000
   59        2.542430   1.000000
   60        2.542430   1.000000
   61        2.596195   1.000000
   62        2.596195   1.000000
   63        2.629204   1.000000
   64        2.629204   1.000000
   65        2.636234   1.000000
   66        2.636234   1.000000
   67        2.691090   1.000000
   68        2.691090   1.000000
   69        2.706872   1.000000
   70        2.719985   1.000000
   71        2.719985   1.000000
   72        2.746122   1.000000
   73        2.746122   1.000000
   74        2.763001   1.000000
   75        2.763001   1.000000
   76        2.764087   1.000000
   77        2.764087   1.000000
   78        2.810159   1.000000
   79        2.810159   1.000000
   80        2.810488   1.000000
   81        2.810488   1.000000
   82        2.854273   1.000000
   83        2.896737   1.000000
   84        2.896737   1.000000
   85        2.904648   1.000000
   86        2.904648   1.000000
   87        2.914914   1.000000
   88        2.914914   1.000000
   89        2.924930   1.000000
   90        2.924930   1.000000
   91        2.940591   1.000000
   92        2.960597   1.000000
   93        3.017744   1.000000
   94        3.017744   1.000000
   95        3.031493   1.000000
   96        3.031493   1.000000
   97        3.035943   1.000000
   98        3.035943   1.000000
   99        3.040403   1.000000
  100        3.040403   1.000000
  101        3.044892   1.000000
  102        3.109469   1.000000
  103        3.109469   1.000000
  104        3.137565   1.000000
  105        3.137565   1.000000
  106        3.207923   1.000000
  107        3.207923   1.000000
  108        3.216647   1.000000
  109        3.216647   1.000000
  110        3.233865   1.000000
  111        3.242275   1.000000
  112        3.242275   1.000000
  113        3.249707   1.000000
  114        3.249707   1.000000
  115        3.278216   1.000000
  116        3.278216   1.000000
  117        3.303255   1.000000
  118        3.303255   1.000000
  119        3.326351   1.000000
  120        3.326351   1.000000
  121        3.393006   1.000000
  122        3.393006   1.000000
  123        3.417222   1.000000
  124        3.417222   1.000000
  125        3.418572   1.000000
  126        3.418572   1.000000
  127        3.487503   1.000000
  128        3.509413   1.000000
  129        3.509413   1.000000
  130        3.510630   1.000000
  131        3.510630   1.000000
  132        3.518283   1.000000
  133        3.518283   1.000000
  134        3.549541   1.000000
  135        3.549541   1.000000
  136        3.556415   1.000000
  137        3.556415   1.000000
  138        3.582951   1.000000
  139        3.582951   1.000000
  140        3.623842   1.000000
  141        3.623842   1.000000
  142        3.627119   1.000000
  143        3.627119   1.000000
  144        3.632610   1.000000
  145        3.632610   1.000000
  146        3.640080   1.000000
  147        3.646588   1.000000
  148        3.707474   1.000000
  149        3.707474   1.000000
  150        3.768377   1.000000
  151        3.768377   1.000000
  152        3.789860   1.000000
  153        3.789860   1.000000
  154        3.817329   1.000000
  155        3.817330   1.000000
  156        3.830905   1.000000
  157        3.897003   1.000000
  158        3.897003   1.000000
  159        3.898844   1.000000
  160        3.898844   1.000000
  161        3.912602   1.000000
  162        3.912602   1.000000
  163        3.935846   1.000000
  164        3.935846   1.000000
  165        3.942964   1.000000
  166        3.942964   1.000000
  167        3.968514   1.000000
  168        3.994268   1.000000
  169        3.994268   1.000000
  170        4.021300   1.000000
  171        4.021300   1.000000
  172        4.040015   1.000000
  173        4.047537   1.000000
  174        4.047537   1.000000
  175        4.088301   1.000000
  176        4.088301   1.000000
  177        4.115411   1.000000
  178        4.115411   1.000000
  179        4.173040   1.000000
  180        4.173040   1.000000
  181        4.208318   1.000000
  182        4.208318   1.000000
  183        4.208544   1.000000
  184        4.208544   1.000000
  185        4.222816   1.000000
  186        4.222816   1.000000
  187        4.254286   1.000000
  188        4.254287   1.000000
  189        4.309011   1.000000
  190        4.309011   1.000000
  191        4.320694   1.000000
  192        4.320694   1.000000
  193        4.397595   1.000000
  194        4.397597   1.000000
  195        4.402281   1.000000
  196        4.425406   1.000000
  197        4.425406   1.000000
  198        4.467101   1.000000
  199        4.467101   1.000000
  200        4.470143   1.000000
  201        4.470143   1.000000
  202        4.470237   1.000000
  203        4.470237   1.000000
  204        4.515207   1.000000
  205        4.517692   1.000000
  206        4.517692   1.000000
  207        4.558055   1.000000
  208        4.558055   1.000000
  209        4.573138   1.000000
  210        4.573138   1.000000
  211        4.578625   1.000000
  212        4.594968   1.000000
  213        4.594968   1.000000
  214        4.610888   1.000000
  215        4.628249   1.000000
  216        4.628249   1.000000
  217        4.647401   1.000000
  218        4.647401   1.000000
  219        4.672240   1.000000
  220        4.672240   1.000000
  221        4.683576   1.000000
  222        4.686327   1.000000
  223        4.686327   1.000000
  224        4.728127   1.000000
  225        4.728127   1.000000
  226        4.782226   1.000000
  227        4.782226   1.000000
  228        4.805884   1.000000
  229        4.824652   1.000000
  230        4.858951   1.000000
  231        4.860273   1.000000
  232        4.860273   1.000000
  233        4.880409   1.000000
  234        4.880409   1.000000
  235        4.889576   1.000000
  236        4.889576   1.000000
  237        4.892637   1.000000
  238        4.892637   1.000000
  239        4.894086   1.000000
  240        4.894086   1.000000
  241        4.903079   1.000000
  242        4.919581   1.000000
  243        4.919581   1.000000
  244        4.943074   1.000000
  245        4.943074   1.000000
  246        4.944812   1.000000
  247        4.944812   1.000000
  248        4.952003   1.000000
  249        4.952003   1.000000
  250        4.988411   1.000000
  251        4.988411   1.000000
  252        5.004931   1.000000
  253        5.004931   1.000000
  254        5.024593   1.000000
  255        5.024593   1.000000
  256        5.031698   1.000000
  257        5.031698   1.000000
  258        5.044423   1.000000
  259        5.056283   1.000000
  260        5.056283   1.000000
  261        5.075660   1.000000
  262        5.078801   1.000000
  263        5.093113   1.000000
  264        5.099113   1.000000
  265        5.099113   1.000000
  266        5.099909   1.000000
  267        5.134769   1.000000
  268        5.149065   1.000000
  269        5.188799   1.000000
  270        5.194425   1.000000
  271        5.194425   1.000000
  272        5.200223   1.000000
  273        5.221329   1.000000
  274        5.224691   1.000000
  275        5.224691   1.000000
  276        5.251880   1.000000
  277        5.255989   1.000000
  278        5.262736   1.000000
  279        5.262736   1.000000
  280        5.263976   1.000000
  281        5.263977   1.000000
  282        5.272101   1.000000
  283        5.280906   1.000000
  284        5.280906   1.000000
  285        5.307645   1.000000
  286        5.307646   1.000000
  287        5.308662   1.000000
  288        5.308663   1.000000
  289        5.322099   1.000000
  290        5.322099   1.000000
  291        5.323060   1.000000
  292        5.323060   1.000000
  293        5.390026   1.000000
  294        5.391598   1.000000
  295        5.391598   1.000000
  296        5.393176   1.000000
  297        5.408850   1.000000
  298        5.417105   1.000000
  299        5.420055   1.000000
  300        5.427784   1.000000
  301        5.427784   1.000000
  302        5.429062   1.000000
  303        5.429062   1.000000
  304        5.439198   1.000000
  305        5.452844   1.000000
  306        5.452848   1.000000
  307        5.453420   1.000000
  308        5.453420   1.000000
  309        5.454901   1.000000
  310        5.476860   1.000000
  311        5.476860   1.000000
  312        5.481502   1.000000
  313        5.481502   1.000000
  314        5.514631   1.000000
  315        5.514631   1.000000
  316        5.516271   1.000000
  317        5.516271   1.000000
  318        5.523912   1.000000
  319        5.523912   1.000000
  320        5.535665   1.000000
  321        5.535665   1.000000
  322        5.546843   1.000000
  323        5.559873   1.000000
  324        5.559873   1.000000
  325        5.586970   1.000000
  326        5.586970   1.000000
  327        5.590197   1.000000
  328        5.599917   1.000000
  329        5.599917   1.000000
  330        5.638715   1.000000
  331        5.638715   1.000000
  332        5.648989   1.000000
  333        5.648989   1.000000
  334        5.657143   1.000000
  335        5.664113   1.000000
  336        5.664114   1.000000
  337        5.677312   1.000000
  338        5.677312   1.000000
  339        5.717604   1.000000
  340        5.720223   1.000000
  341        5.720223   1.000000
  342        5.744167   1.000000
  343        5.766875   1.000000
  344        5.819159   1.000000
  345        5.820000   1.000000
  346        5.820000   1.000000
  347        5.839260   1.000000
  348        5.839260   1.000000
  349        5.847617   1.000000
  350        5.847617   1.000000
  351        5.859630   1.000000
  352        5.859630   1.000000
  353        5.867092   1.000000
  354        5.961006   1.000000
  355        5.961006   1.000000
  356        6.000150   1.000000
  357        6.000150   1.000000
  358        6.063880   1.000002
  359        6.063880   1.000002
  360        6.076021   1.000003
  361        6.076021   1.000003
  362        6.087204   1.000004
  363        6.087204   1.000004
  364        6.118757   1.000012
  365        6.118757   1.000012
  366        6.124519   1.000014
  367        6.135136   1.000019
  368        6.135136   1.000019
  369        6.167936   1.000051
  370        6.183042   1.000079
  371        6.183042   1.000079
  372        6.213232   1.000182
  373        6.213233   1.000182
  374        6.215358   1.000192
  375        6.215358   1.000192
  376        6.237764   1.000343
  377        6.254052   1.000514