 running on   24 total cores
 distrk:  each k-point on   24 cores,    1 groups
 distr:  one band on    4 cores,    6 groups
 using from now: INCAR     
 vasp.5.4.4.18Apr17-6-g9f103f2a35 (build Aug 17 2017 06:00:38) complex          
  
 POSCAR found type information on POSCAR  Fe
 POSCAR found :  1 types and     108 ions
 scaLAPACK will be used
 LDA part: xc-table for Pade appr. of Perdew
 POSCAR, INCAR and KPOINTS ok, starting setup
 FFT: planning ...
 WAVECAR not read
 entering main loop
       N       E                     dE             d eps       ncg     rms          rms(c)
DAV:   1     0.705876382949E+04    0.70588E+04   -0.29182E+05  4176   0.174E+03
DAV:   2    -0.132323110876E+03   -0.71911E+04   -0.70365E+04  4176   0.438E+02
DAV:   3    -0.843676770373E+03   -0.71135E+03   -0.60424E+03  4224   0.172E+02
DAV:   4    -0.101472467076E+04   -0.17105E+03   -0.15968E+03  7836   0.518E+01
DAV:   5    -0.103204320940E+04   -0.17319E+02   -0.16306E+02  6720   0.218E+01    0.969E+01
RMM:   6    -0.856950485660E+03    0.17509E+03   -0.18850E+03  4178   0.123E+02    0.209E+01
RMM:   7    -0.853236910584E+03    0.37136E+01   -0.16129E+02  4256   0.364E+01    0.499E+00
RMM:   8    -0.859762846963E+03   -0.65259E+01   -0.44697E+01  5541   0.976E+00    0.308E+01
RMM:   9    -0.854776749153E+03    0.49861E+01   -0.77306E+00  4463   0.675E+00    0.862E+00
RMM:  10    -0.854889660738E+03   -0.11291E+00   -0.49768E+00  6343   0.190E+00    0.195E+00
RMM:  11    -0.854903745157E+03   -0.14084E-01   -0.10477E+00  4704   0.232E+00    0.381E+00
RMM:  12    -0.854918780848E+03   -0.15036E-01   -0.77546E-01  5917   0.924E-01    0.238E+00
RMM:  13    -0.854876796235E+03    0.41985E-01   -0.15668E-01  4791   0.851E-01    0.531E-01
RMM:  14    -0.854883446672E+03   -0.66504E-02   -0.10038E-01  5734   0.365E-01    0.278E-01
RMM:  15    -0.854882815961E+03    0.63071E-03   -0.11700E-02  5241   0.188E-01    0.103E-01
RMM:  16    -0.854882783540E+03    0.32421E-04   -0.47188E-03  5312   0.125E-01    0.606E-02
RMM:  17    -0.854882786778E+03   -0.32373E-05   -0.70334E-04  5941   0.474E-02    0.284E-02
RMM:  18    -0.854882695918E+03    0.90860E-04    0.73202E-04  6119   0.124E-02    0.833E-03
RMM:  19    -0.854882626053E+03    0.69865E-04    0.69031E-04  5311   0.554E-03    0.153E-03
RMM:  20    -0.854882560256E+03    0.65797E-04    0.62624E-04  3286   0.266E-03    0.228E-03
RMM:  21    -0.854882489336E+03    0.70919E-04    0.60834E-04  2877   0.331E-03    0.498E-04
RMM:  22    -0.854882423774E+03    0.65563E-04    0.56187E-04  2817   0.163E-03    0.102E-03
RMM:  23    -0.854882373603E+03    0.50170E-04    0.44169E-04  2739   0.339E-03    0.152E-03
RMM:  24    -0.854882336584E+03    0.37019E-04    0.33655E-04  2708   0.124E-03    0.741E-04
RMM:  25    -0.854882297928E+03    0.38657E-04    0.35574E-04  2409   0.892E-04    0.929E-04
RMM:  26    -0.854882268558E+03    0.29369E-04    0.26986E-04  2279   0.104E-03    0.332E-04
RMM:  27    -0.854882241218E+03    0.27341E-04    0.24835E-04  2213   0.734E-04    0.802E-04
RMM:  28    -0.854882212180E+03    0.29037E-04    0.25725E-04  1991   0.771E-04    0.472E-04
RMM:  29    -0.854882191632E+03    0.20548E-04    0.18734E-04  1892   0.558E-04    0.773E-04
RMM:  30    -0.854882175728E+03    0.15904E-04    0.15093E-04  1831   0.627E-04    0.533E-04
RMM:  31    -0.854882162011E+03    0.13718E-04    0.13235E-04  1572   0.472E-04    0.746E-04
RMM:  32    -0.854882143213E+03    0.18797E-04    0.16971E-04  1700   0.534E-04    0.541E-04
RMM:  33    -0.854882130112E+03    0.13101E-04    0.12149E-04  1344   0.391E-04    0.678E-04
RMM:  34    -0.854882119131E+03    0.10981E-04    0.10560E-04  1344   0.428E-04    0.552E-04
RMM:  35    -0.854882109287E+03    0.98439E-05    0.95558E-05  1123   0.337E-04    0.643E-04
RMM:  36    -0.854882093367E+03    0.15921E-04    0.15029E-04  1079   0.364E-04    0.589E-04
RMM:  37    -0.854882082269E+03    0.11097E-04    0.10168E-04  1068   0.299E-04    0.615E-04
RMM:  38    -0.854882073452E+03    0.88170E-05    0.85483E-05  1132   0.344E-04    0.645E-04
RMM:  39    -0.854882065521E+03    0.79313E-05    0.77209E-05  1050   0.301E-04    0.644E-04
RMM:  40    -0.854882058102E+03    0.74190E-05    0.72700E-05   920   0.294E-04    0.611E-04
RMM:  41    -0.854882051023E+03    0.70791E-05    0.69520E-05   985   0.276E-04    0.610E-04
RMM:  42    -0.854882044250E+03    0.67731E-05    0.66705E-05  1003   0.304E-04    0.653E-04
RMM:  43    -0.854882037794E+03    0.64557E-05    0.64154E-05  2181   0.598E-04    0.106E-03
RMM:  44    -0.854882031495E+03    0.62994E-05    0.62004E-05   824   0.269E-04    0.102E-03
RMM:  45    -0.854882015805E+03    0.15689E-04    0.14312E-04  1686   0.359E-04    0.902E-04
RMM:  46    -0.854882008889E+03    0.69164E-05    0.63740E-05  1706   0.355E-04    0.112E-03
RMM:  47    -0.854882003333E+03    0.55563E-05    0.54945E-05   741   0.220E-04    0.112E-03
RMM:  48    -0.854881998244E+03    0.50891E-05    0.50345E-05   740   0.197E-04    0.113E-03
RMM:  49    -0.854881993325E+03    0.49189E-05    0.48533E-05   714   0.233E-04    0.112E-03
RMM:  50    -0.854881988527E+03    0.47980E-05    0.46657E-05  2039   0.434E-04    0.826E-04
RMM:  51    -0.854881983938E+03    0.45885E-05    0.45322E-05   691   0.170E-04    0.826E-04
RMM:  52    -0.854881979485E+03    0.44535E-05    0.43787E-05   728   0.188E-04    0.770E-04
RMM:  53    -0.854881975133E+03    0.43520E-05    0.42545E-05   926   0.289E-04    0.654E-04
RMM:  54    -0.854881970941E+03    0.41916E-05    0.41157E-05   674   0.267E-04    0.639E-04
RMM:  55    -0.854881966880E+03    0.40609E-05    0.39994E-05   607   0.254E-04    0.651E-04
RMM:  56    -0.854881962964E+03    0.39164E-05    0.38702E-05   603   0.242E-04    0.663E-04
RMM:  57    -0.854881959153E+03    0.38106E-05    0.37590E-05   590   0.259E-04    0.650E-04
RMM:  58    -0.854881955466E+03    0.36872E-05    0.36361E-05  1055   0.282E-04    0.542E-04
RMM:  59    -0.854881951895E+03    0.35710E-05    0.35293E-05   729   0.256E-04    0.590E-04
RMM:  60    -0.854881948441E+03    0.34542E-05    0.34141E-05   633   0.233E-04    0.608E-04
RMM:  61    -0.854881944948E+03    0.34928E-05    0.34507E-05   547   0.221E-04    0.602E-04
RMM:  62    -0.854881941706E+03    0.32417E-05    0.31995E-05   531   0.220E-04    0.614E-04
RMM:  63    -0.854881938577E+03    0.31294E-05    0.30931E-05   504   0.219E-04    0.614E-04
RMM:  64    -0.854881935551E+03    0.30254E-05    0.29864E-05   503   0.219E-04    0.620E-04
RMM:  65    -0.854881932630E+03    0.29211E-05    0.28911E-05   512   0.219E-04    0.628E-04
RMM:  66    -0.854881929812E+03    0.28185E-05    0.27913E-05   498   0.218E-04    0.630E-04
RMM:  67    -0.854881927083E+03    0.27285E-05    0.27004E-05   484   0.218E-04    0.634E-04
RMM:  68    -0.854881924451E+03    0.26323E-05    0.26059E-05   477   0.218E-04    0.637E-04
RMM:  69    -0.854881921908E+03    0.25434E-05    0.25190E-05   470   0.218E-04    0.640E-04
RMM:  70    -0.854881919454E+03    0.24533E-05    0.24297E-05   467   0.218E-04    0.643E-04
RMM:  71    -0.854881917050E+03    0.24045E-05    0.23469E-05   695   0.249E-04    0.560E-04
RMM:  72    -0.854881914617E+03    0.24330E-05    0.24055E-05   570   0.241E-04    0.537E-04
RMM:  73    -0.854881912400E+03    0.22167E-05    0.21888E-05   494   0.235E-04    0.536E-04
RMM:  74    -0.854881910279E+03    0.21211E-05    0.20996E-05   582   0.238E-04    0.513E-04
RMM:  75    -0.854881908239E+03    0.20397E-05    0.20233E-05   462   0.226E-04    0.530E-04
RMM:  76    -0.854881906245E+03    0.19943E-05    0.19485E-05   883   0.250E-04    0.426E-04
RMM:  77    -0.854881904360E+03    0.18853E-05    0.18788E-05   499   0.227E-04    0.467E-04
RMM:  78    -0.854881902535E+03    0.18246E-05    0.18107E-05   476   0.235E-04    0.485E-04
RMM:  79    -0.854881900779E+03    0.17566E-05    0.17446E-05   434   0.230E-04    0.486E-04
RMM:  80    -0.854881899085E+03    0.16935E-05    0.16808E-05   507   0.243E-04    0.506E-04
RMM:  81    -0.854881897380E+03    0.17047E-05    0.16183E-05  1097   0.311E-04    0.646E-04
RMM:  82    -0.854881895763E+03    0.16178E-05    0.15601E-05   670   0.255E-04    0.556E-04
RMM:  83    -0.854881894240E+03    0.15225E-05    0.15011E-05  1083   0.296E-04    0.441E-04
RMM:  84    -0.854881892626E+03    0.16141E-05    0.15984E-05   431   0.198E-04    0.443E-04
RMM:  85    -0.854881891211E+03    0.14156E-05    0.13951E-05   429   0.199E-04    0.433E-04
RMM:  86    -0.854881889849E+03    0.13620E-05    0.13354E-05   798   0.246E-04    0.330E-04
RMM:  87    -0.854881888548E+03    0.13006E-05    0.12838E-05   515   0.219E-04    0.336E-04
RMM:  88    -0.854881887288E+03    0.12605E-05    0.12369E-05   671   0.240E-04    0.249E-04
RMM:  89    -0.854881886075E+03    0.12130E-05    0.11903E-05   449   0.221E-04    0.248E-04
RMM:  90    -0.854881884911E+03    0.11639E-05    0.11477E-05   415   0.221E-04    0.243E-04
RMM:  91    -0.854881883802E+03    0.11085E-05    0.11044E-05   398   0.216E-04    0.243E-04
RMM:  92    -0.854881882730E+03    0.10718E-05    0.10649E-05   395   0.217E-04    0.223E-04
RMM:  93    -0.854881881700E+03    0.10304E-05    0.10250E-05   401   0.224E-04    0.206E-04
RMM:  94    -0.854881880703E+03    0.99697E-06    0.98787E-06   624   0.254E-04
   1 F= -.85488188E+03 E0= -.85488292E+03  d E =-.854882E+03
 curvature:   0.00 expect dE= 0.000E+00 dE for cont linesearch  0.000E+00
 trial: gam= 0.00000 g(F)=  0.678E-06 g(S)=  0.976E+02 ort = 0.000E+00 (trialstep = 0.100E+01)
 search vector abs. value=  0.976E+02
 bond charge predicted
       N       E                     dE             d eps       ncg     rms          rms(c)
DAV:   1    -0.185745159487E+04   -0.10026E+04   -0.25084E+04  4260   0.420E+02    0.235E+02
RMM:   2    -0.852805943349E+03    0.10046E+04   -0.51112E+03  4176   0.234E+02    0.465E+01
RMM:   3    -0.833801669853E+03    0.19004E+02   -0.42321E+02  4461   0.443E+01    0.241E+01
RMM:   4    -0.825134401280E+03    0.86673E+01   -0.65215E+01  4192   0.255E+01    0.106E+01
RMM:   5    -0.830772513116E+03   -0.56381E+01   -0.31265E+01  4363   0.116E+01    0.279E+01
RMM:   6    -0.825975061112E+03    0.47975E+01   -0.11507E+01  4207   0.887E+00    0.459E+00
RMM:   7    -0.826063521861E+03   -0.88461E-01   -0.22365E+00  5497   0.151E+00    0.473E+00
RMM:   8    -0.825860226029E+03    0.20330E+00   -0.43560E-01  4190   0.193E+00    0.292E+00
RMM:   9    -0.825804699494E+03    0.55527E-01   -0.19150E-01  4298   0.955E-01    0.174E+00
RMM:  10    -0.825776280874E+03    0.28419E-01   -0.21794E-01  4186   0.121E+00    0.355E-01
RMM:  11    -0.825778035229E+03   -0.17544E-02   -0.37454E-02  5095   0.212E-01    0.196E-01
RMM:  12    -0.825777860724E+03    0.17451E-03   -0.25692E-03  4269   0.150E-01    0.990E-02
RMM:  13    -0.825777947905E+03   -0.87181E-04   -0.97800E-04  4594   0.627E-02    0.309E-02
RMM:  14    -0.825778023266E+03   -0.75361E-04   -0.19784E-04  5459   0.132E-02    0.832E-03
RMM:  15    -0.825778028389E+03   -0.51237E-05   -0.74211E-06  3717   0.474E-03    0.405E-03
RMM:  16    -0.825778025414E+03    0.29756E-05   -0.11665E-06  2435   0.232E-03    0.546E-04
RMM:  17    -0.825778025768E+03   -0.35451E-06   -0.27575E-07  2358   0.218E-03
   2 F= -.82577803E+03 E0= -.82570502E+03  d E =0.291039E+02
 trial-energy change:   29.103855  1 .order   51.917362  -97.622699  201.457424
 step:   0.4391(harm=  0.3264)  dis= 0.00001  next Energy=  -878.248412 (dE=-0.234E+02)
 bond charge predicted
       N       E                     dE             d eps       ncg     rms          rms(c)
DAV:   1    -0.123279018588E+04   -0.40701E+03   -0.10209E+04  4536   0.343E+02    0.140E+02
RMM:   2    -0.891365445332E+03    0.34142E+03   -0.26951E+03  4210   0.133E+02    0.159E+01
RMM:   3    -0.889619201213E+03    0.17462E+01   -0.19654E+02  4511   0.136E+01    0.142E+01
RMM:   4    -0.882543692624E+03    0.70755E+01   -0.12432E+02  4180   0.340E+01    0.176E+01
RMM:   5    -0.883827620923E+03   -0.12839E+01   -0.13519E+01  4390   0.715E+00    0.232E+01
RMM:   6    -0.879411372036E+03    0.44162E+01   -0.30226E+01  4187   0.148E+01    0.120E+01
RMM:   7    -0.879159339767E+03    0.25203E+00   -0.58827E+00  4828   0.349E+00    0.430E+00
RMM:   8    -0.878970171020E+03    0.18917E+00   -0.52157E-01  4317   0.181E+00    0.374E+00
RMM:   9    -0.878877004416E+03    0.93167E-01   -0.18767E-01  4369   0.947E-01    0.223E+00
RMM:  10    -0.878809562078E+03    0.67442E-01   -0.30178E-01  4218   0.138E+00    0.809E-01
RMM:  11    -0.878808549693E+03    0.10124E-02   -0.18238E-01  4501   0.712E-01    0.742E-02
RMM:  12    -0.878811200563E+03   -0.26509E-02   -0.59405E-02  5736   0.131E-01    0.215E-01
RMM:  13    -0.878810194963E+03    0.10056E-02   -0.28446E-03  4318   0.119E-01    0.981E-02
RMM:  14    -0.878810204584E+03   -0.96211E-05   -0.35267E-03  4824   0.667E-02    0.323E-02
RMM:  15    -0.878810168883E+03    0.35701E-04   -0.28665E-03  5968   0.147E-02    0.327E-02
RMM:  16    -0.878809930786E+03    0.23810E-03   -0.29812E-03  4772   0.119E-02    0.204E-02
RMM:  17    -0.878810235856E+03   -0.30507E-03   -0.30453E-02  4563   0.109E-02    0.106E-02
RMM:  18    -0.878810221651E+03    0.14204E-04   -0.11855E-03  4061   0.692E-03    0.397E-03
RMM:  19    -0.878810134839E+03    0.86812E-04   -0.12434E-05  2789   0.321E-03    0.233E-03
RMM:  20    -0.878810196123E+03   -0.61284E-04   -0.32179E-03  2683   0.224E-03    0.141E-03
RMM:  21    -0.878809757660E+03    0.43846E-03    0.21897E-04  2622   0.229E-03    0.117E-03
RMM:  22    -0.878810227772E+03   -0.47011E-03   -0.29545E-02  2536   0.194E-03    0.913E-04
RMM:  23    -0.878810154415E+03    0.73357E-04   -0.71681E-03  2603   0.230E-03    0.143E-03
RMM:  24    -0.878810362651E+03   -0.20824E-03   -0.13348E-02  2059   0.149E-03    0.160E-03
RMM:  25    -0.878809748195E+03    0.61446E-03   -0.30955E-04  2485   0.166E-03    0.188E-03
RMM:  26    -0.878810291819E+03   -0.54362E-03   -0.34694E-02  2311   0.161E-03    0.183E-03
RMM:  27    -0.878810290983E+03    0.83664E-06   -0.25664E-03  1885   0.158E-03    0.199E-03
RMM:  28    -0.878810177468E+03    0.11351E-03   -0.10123E-03  1689   0.159E-03    0.221E-03
RMM:  29    -0.878810123301E+03    0.54167E-04   -0.16289E-02  1576   0.162E-03    0.285E-03
WARNING in EDDRMM: call to ZHEGV failed, returncode =   6  3     76
RMM:  30    -0.878810261571E+03   -0.13827E-03   -0.15888E-02  2133   0.177E-03    0.192E-03
RMM:  31    -0.878810175451E+03    0.86119E-04    0.10163E-03  2001   0.149E-03    0.110E-03
 num prob RMM:  32    -0.878810158184E+03    0.17268E-04    0.20030E-04  2125   0.139E-03    0.101E-03
RMM:  33    -0.878810146725E+03    0.11459E-04    0.12181E-04  2328   0.118E-03    0.612E-04
 num prob  num prob RMM:  34    -0.878810143335E+03    0.33899E-05    0.37161E-05  2372   0.110E-03    0.748E-04
RMM:  35    -0.878810140945E+03    0.23896E-05    0.23347E-05  1118   0.768E-04    0.841E-04
 num prob  num prob RMM:  36    -0.878810137664E+03    0.32813E-05   -0.19438E-06  1148   0.748E-04    0.762E-04
RMM:  37    -0.878810003956E+03    0.13371E-03    0.10372E-04  1133   0.740E-04    0.601E-04
 num prob WARNING in EDDRMM: call to ZHEGV failed, returncode =   8  4     68
 num prob RMM:  38    -0.878810155298E+03   -0.15134E-03   -0.15050E-02  1117   0.751E-04    0.696E-04
RMM:  39    -0.878810132293E+03    0.23005E-04    0.14395E-04  1156   0.793E-04    0.964E-04
 num prob  num prob  num prob RMM:  40    -0.878810132426E+03   -0.13307E-06    0.43969E-07  1241   0.781E-04
   3 F= -.87881013E+03 E0= -.87879355E+03  d E =-.239283E+02
 curvature:  -0.16 expect dE=-0.594E-01 dE for cont linesearch -0.594E-01
 ZBRENT: interpolating
 opt :   0.4555  next Energy=  -878.859497 (dE=-0.240E+02)
 bond charge predicted
       N       E                     dE             d eps       ncg     rms          rms(c)
DAV:   1    -0.880461718143E+03   -0.16516E+01   -0.80366E+00  4620   0.879E+00    0.492E+00
RMM:   2    -0.880061291069E+03    0.40043E+00   -0.39197E+00  4185   0.529E+00    0.563E-01
RMM:   3    -0.880064812925E+03   -0.35219E-02   -0.32281E-01  4684   0.931E-01    0.496E-01
RMM:   4    -0.880064968144E+03   -0.15522E-03   -0.56231E-02  4185   0.713E-01    0.130E+00
RMM:   5    -0.880057896918E+03    0.70712E-02   -0.28945E-02  4187   0.475E-01    0.464E-01
RMM:   6    -0.880059380545E+03   -0.14836E-02   -0.13177E-02  4231   0.264E-01    0.795E-01
RMM:   7    -0.880055237160E+03    0.41434E-02   -0.16212E-02  4202   0.340E-01    0.892E-02
RMM:   8    -0.880055290495E+03   -0.53335E-04   -0.22194E-03  5487   0.543E-02    0.983E-02
RMM:   9    -0.880055264837E+03    0.25658E-04   -0.14547E-04  5242   0.184E-02    0.887E-02
RMM:  10    -0.880055172431E+03    0.92406E-04   -0.84539E-05  4211   0.253E-02    0.606E-02
RMM:  11    -0.880055066487E+03    0.10594E-03   -0.45744E-04  4205   0.547E-02    0.107E-02
RMM:  12    -0.880055068757E+03   -0.22698E-05   -0.94704E-05  4830   0.103E-02    0.141E-02
RMM:  13    -0.880055074857E+03   -0.61004E-05   -0.96298E-06  4004   0.870E-03    0.468E-03
RMM:  14    -0.880055074674E+03    0.18399E-06   -0.26159E-06  2550   0.282E-03
   4 F= -.88005507E+03 E0= -.88003221E+03  d E =-.251732E+02
 curvature:  -0.13 expect dE=-0.502E-02 dE for cont linesearch -0.502E-02
 ZBRENT: interpolating
 opt :   0.4630  next Energy=  -880.062438 (dE=-0.252E+02)
 bond charge predicted
       N       E                     dE             d eps       ncg     rms          rms(c)
DAV:   1    -0.880129857071E+03   -0.74782E-01   -0.17430E+00  4656   0.409E+00    0.197E+00
RMM:   2    -0.880064269468E+03    0.65588E-01   -0.56989E-01  4185   0.205E+00    0.245E-01
RMM:   3    -0.880064120557E+03    0.14891E-03   -0.45999E-02  4624   0.378E-01    0.191E-01
RMM:   4    -0.880063282803E+03    0.83775E-03   -0.18031E-02  4176   0.433E-01    0.246E-01
RMM:   5    -0.880063552144E+03   -0.26934E-03   -0.20147E-03  4357   0.974E-02    0.340E-01
RMM:   6    -0.880062778603E+03    0.77354E-03   -0.47047E-03  4192   0.181E-01    0.134E-01
RMM:   7    -0.880062752809E+03    0.25794E-04   -0.85045E-04  4871   0.375E-02    0.575E-02
RMM:   8    -0.880062728346E+03    0.24463E-04   -0.51245E-05  4514   0.144E-02    0.523E-02
RMM:   9    -0.880062676773E+03    0.51573E-04   -0.70214E-05  4194   0.225E-02    0.275E-02
RMM:  10    -0.880062650770E+03    0.26003E-04   -0.70427E-05  4258   0.184E-02    0.668E-03
RMM:  11    -0.880062645075E+03    0.56951E-05   -0.22991E-05  4405   0.754E-03    0.326E-03
RMM:  12    -0.880062647022E+03   -0.19472E-05   -0.10577E-06  2247   0.275E-03    0.100E-03
RMM:  13    -0.880062648226E+03   -0.12042E-05   -0.52010E-07  2222   0.109E-03    0.249E-04
RMM:  14    -0.880062647923E+03    0.30295E-06   -0.26883E-07  1971   0.771E-04
   5 F= -.88006265E+03 E0= -.88003914E+03  d E =-.251808E+02
 curvature:  -0.19 expect dE=-0.168E-04 dE for cont linesearch -0.163E-04
 trial: gam= 0.00000 g(F)=  0.267E-05 g(S)=  0.840E-04 ort =-0.906E-01 (trialstep = 0.893E+00)
 search vector abs. value=  0.867E-04
 reached required accuracy - stopping structural energy minimisation
