 vasp.5.4.4.18Apr17-6-g9f103f2a35 (build Aug 17 2017 06:00:38) complex          
  
 executed on             LinuxIFC date 2019.07.12  12:25:02
 running on   24 total cores
 distrk:  each k-point on   24 cores,    1 groups
 distr:  one band on NCORES_PER_BAND=   4 cores,    6 groups


--------------------------------------------------------------------------------------------------------


 INCAR:
 POTCAR:   PAW_PBE Fe 06Sep2000                   
 POTCAR:   PAW_PBE Fe 06Sep2000                   
   VRHFIN =Fe:  d7 s1                                                           
   LEXCH  = PE                                                                  
   EATOM  =   594.4687 eV,   43.6922 Ry                                         
                                                                                
   TITEL  = PAW_PBE Fe 06Sep2000                                                
   LULTRA =        F    use ultrasoft PP ?                                      
   IUNSCR =        1    unscreen: 0-lin 1-nonlin 2-no                           
   RPACOR =    2.000    partial core radius                                     
   POMASS =   55.847; ZVAL   =    8.000    mass and valenz                      
   RCORE  =    2.300    outmost cutoff radius                                   
   RWIGS  =    2.460; RWIGS  =    1.302    wigner-seitz radius (au A)           
   ENMAX  =  267.883; ENMIN  =  200.912 eV                                      
   RCLOC  =    1.701    cutoff for local pot                                    
   LCOR   =        T    correct aug charges                                     
   LPAW   =        T    paw PP                                                  
   EAUG   =  511.368                                                            
   DEXC   =    -.022                                                            
   RMAX   =    2.817    core radius for proj-oper                               
   RAUG   =    1.300    factor for augmentation sphere                          
   RDEP   =    2.442    radius for radial grids                                 
   QCUT   =   -4.437; QGAM   =    8.874    optimization parameters              
                                                                                
   Description                                                                  
     l     E      TYP  RCUT    TYP  RCUT                                        
     2   .000     23  2.300                                                     
     2   .000     23  2.300                                                     
     0   .000     23  2.300                                                     
     0   .000     23  2.300                                                     
     1  -.200     23  2.300                                                     
     1   .000     23  2.300                                                     
     3   .000      7   .000                                                     
  local pseudopotential read in
  partial core-charges read in
  atomic valenz-charges read in
  non local Contribution for L=           2  read in
    real space projection operators read in
  non local Contribution for L=           2  read in
    real space projection operators read in
  non local Contribution for L=           0  read in
    real space projection operators read in
  non local Contribution for L=           0  read in
    real space projection operators read in
  non local Contribution for L=           1  read in
    real space projection operators read in
  non local Contribution for L=           1  read in
    real space projection operators read in
    PAW grid and wavefunctions read in
 
   number of l-projection  operators is LMAX  =           6
   number of lm-projection operators is LMMAX =          18
 
 Optimization of the real space projectors (new method)

 maximal supplied QI-value         = 16.25
 optimisation between [QCUT,QGAM] = [ 10.24, 20.48] = [ 29.35,117.42] Ry 
 Optimized for a Real-space Cutoff    1.51 Angstroem

   l    n(q)    QCUT    max X(q) W(low)/X(q) W(high)/X(q)  e(spline) 
   2      8    10.239     4.378    0.29E-04    0.57E-04    0.52E-07
   2      8    10.239    23.237    0.44E-03    0.68E-03    0.20E-06
   0      9    10.239    17.641    0.18E-04    0.41E-06    0.72E-08
   0      9    10.239    50.908    0.75E-04    0.38E-04    0.65E-07
   1      9    10.239     6.148    0.18E-04    0.27E-04    0.19E-07
   1      9    10.239     8.345    0.39E-04    0.13E-03    0.98E-07
 PAW_PBE Fe 06Sep2000                   :
 energy of atom  1       EATOM= -594.4687
 kinetic energy error for atom=    0.0088 (will be added to EATOM!!)
 
 
 POSCAR: fcc_Fe_CON_333                          
  positions in direct lattice
  No initial velocities read in
 exchange correlation table for  LEXCH =        8
   RHO(1)=    0.500       N(1)  =     2000
   RHO(2)=  100.500       N(2)  =     4000
 


--------------------------------------------------------------------------------------------------------


 ion  position               nearest neighbor table
   1  0.000  0.000  0.000-   2 2.58   3 2.58   4 2.58  11 2.58  12 2.58  26 2.58  28 2.58  74 2.58
                            75 2.58  36 2.58  83 2.58  98 2.58
   2  0.000  0.167  0.167-  49 2.58  15 2.58  37 2.58  40 2.58  13 2.58  48 2.58  23 2.58   3 2.58
                             4 2.58   1 2.58  12 2.58  11 2.58
   3  0.167  0.000  0.167-  41 2.58   6 2.58  37 2.58  40 2.58   5 2.58  30 2.58  64 2.58   2 2.58
                             4 2.58   1 2.58  28 2.58  26 2.58
   4  0.167  0.167  0.000-  17 2.58   6 2.58  13 2.58  15 2.58   5 2.58  78 2.58  87 2.58   2 2.58
                             3 2.58   1 2.58  74 2.58  75 2.58
   5  0.333  0.000  0.000-   3 2.58   4 2.58  28 2.58  75 2.58   8 2.58   6 2.58   7 2.58  32 2.58
                            30 2.58  78 2.58  79 2.58 102 2.58
   6  0.333  0.167  0.167-  15 2.58  40 2.58  53 2.58  17 2.58  19 2.58   4 2.58  41 2.58  44 2.58
                             3 2.58   7 2.58   8 2.58   5 2.58
   7  0.500  0.000  0.167-  41 2.58  44 2.58  45 2.58  68 2.58   6 2.58   8 2.58   5 2.58   9 2.58
                            10 2.58  30 2.58  32 2.58  34 2.58
   8  0.500  0.167  0.000-  17 2.58  19 2.58  21 2.58  91 2.58   6 2.58   7 2.58   5 2.58   9 2.58
                            78 2.58  79 2.58  10 2.58  82 2.58
   9  0.667  0.000  0.000-  11 2.58  12 2.58  36 2.58  83 2.58  10 2.58  34 2.58   8 2.58  82 2.58
                             7 2.58  32 2.58  79 2.58 106 2.58
  10  0.667  0.167  0.167-  23 2.58  48 2.58  57 2.58  12 2.58  11 2.58  21 2.58  45 2.58  44 2.58
                            19 2.58   9 2.58   7 2.58   8 2.58
  11  0.833  0.000  0.167-  45 2.58  10 2.58   9 2.58  34 2.58  48 2.58  37 2.58  72 2.58  12 2.58
                             2 2.58  36 2.58   1 2.58  26 2.58
  12  0.833  0.167  0.000-  21 2.58  10 2.58   9 2.58  82 2.58  23 2.58  13 2.58  95 2.58  11 2.58
                             1 2.58  83 2.58   2 2.58  74 2.58
  13  0.000  0.333  0.000-   2 2.58   4 2.58  12 2.58  74 2.58  15 2.58  16 2.58  14 2.58  24 2.58
                            23 2.58  86 2.58  87 2.58  95 2.58
  14  0.000  0.500  0.167-  49 2.58  52 2.58  60 2.58  61 2.58  15 2.58  16 2.58  13 2.58  23 2.58
                            24 2.58  25 2.58  27 2.58  35 2.58
  15  0.167  0.333  0.167-   6 2.58  40 2.58  53 2.58  17 2.58  18 2.58   4 2.58  49 2.58  52 2.58
                             2 2.58  13 2.58  14 2.58  16 2.58
  16  0.167  0.500  0.000-  17 2.58  18 2.58  29 2.58  90 2.58  14 2.58  15 2.58  13 2.58  25 2.58
                            86 2.58  87 2.58  27 2.58  99 2.58
  17  0.333  0.333  0.000-   4 2.58   6 2.58   8 2.58  15 2.58  16 2.58  78 2.58  87 2.58  20 2.58
                            18 2.58  19 2.58  90 2.58  91 2.58
  18  0.333  0.500  0.167-  52 2.58  16 2.58  15 2.58  53 2.58  56 2.58  27 2.58  65 2.58  20 2.58
                            17 2.58  19 2.58  29 2.58  31 2.58
  19  0.500  0.333  0.167-  44 2.58   8 2.58   6 2.58  53 2.58  56 2.58  10 2.58  57 2.58  18 2.58
                            20 2.58  17 2.58  21 2.58  22 2.58
  20  0.500  0.500  0.000-  17 2.58  18 2.58  19 2.58  21 2.58  22 2.58  29 2.58  31 2.58  90 2.58
                            91 2.58  33 2.58  94 2.58 103 2.58
  21  0.667  0.333  0.000-  12 2.58  23 2.58  24 2.58  95 2.58  10 2.58  82 2.58   8 2.58  22 2.58
                            20 2.58  94 2.58  19 2.58  91 2.58
  22  0.667  0.500  0.167-  60 2.58  24 2.58  23 2.58  35 2.58  57 2.58  56 2.58  69 2.58  21 2.58
                            33 2.58  20 2.58  19 2.58  31 2.58
  23  0.833  0.333  0.167-  10 2.58  57 2.58  48 2.58  21 2.58  22 2.58  12 2.58  60 2.58   2 2.58
                            49 2.58  24 2.58  14 2.58  13 2.58
  24  0.833  0.500  0.000-  21 2.58  22 2.58  33 2.58  94 2.58  23 2.58  14 2.58  35 2.58  13 2.58
                            95 2.58  25 2.58  86 2.58 107 2.58
  25  0.000  0.667  0.000-  26 2.58  28 2.58  36 2.58  98 2.58  27 2.58  35 2.58  16 2.58  14 2.58
                            99 2.58  24 2.58  86 2.58 107 2.58
  26  0.000  0.833  0.167-  61 2.58  27 2.58  25 2.58  35 2.58  64 2.58  37 2.58  72 2.58  28 2.58
                             3 2.58  36 2.58   1 2.58  11 2.58
  27  0.167  0.667  0.167-  30 2.58  64 2.58  65 2.58  28 2.58  26 2.58  29 2.58  61 2.58  52 2.58
                            18 2.58  25 2.58  14 2.58  16 2.58
  28  0.167  0.833  0.000-  29 2.58  27 2.58  25 2.58  99 2.58  30 2.58   5 2.58 102 2.58  26 2.58
                            98 2.58   1 2.58   3 2.58  75 2.58
  29  0.333  0.667  0.000-  28 2.58  30 2.58  32 2.58 102 2.58  27 2.58  99 2.58  16 2.58  31 2.58
                            20 2.58  18 2.58 103 2.58  90 2.58
  30  0.333  0.833  0.167-  27 2.58  65 2.58  64 2.58  29 2.58  31 2.58  28 2.58  68 2.58  41 2.58
                             3 2.58  32 2.58   7 2.58   5 2.58
  31  0.500  0.667  0.167-  68 2.58  32 2.58  30 2.58  34 2.58  65 2.58  56 2.58  69 2.58  29 2.58
                            33 2.58  20 2.58  18 2.58  22 2.58
  32  0.500  0.833  0.000-  29 2.58  31 2.58  33 2.58 103 2.58  30 2.58   7 2.58  34 2.58 102 2.58
                             5 2.58   9 2.58  79 2.58 106 2.58
  33  0.667  0.667  0.000-  36 2.58  35 2.58  34 2.58  32 2.58  24 2.58 106 2.58 107 2.58  22 2.58
                            31 2.58 103 2.58  20 2.58  94 2.58
  34  0.667  0.833  0.167-  35 2.58  69 2.58  72 2.58  33 2.58  36 2.58  31 2.58  11 2.58  45 2.58
                            68 2.58  32 2.58   9 2.58   7 2.58
  35  0.833  0.667  0.167-  34 2.58  69 2.58  72 2.58  33 2.58  36 2.58  26 2.58  22 2.58  60 2.58
                            61 2.58  24 2.58  25 2.58  14 2.58
  36  0.833  0.833  0.000-  33 2.58  34 2.58  35 2.58  25 2.58   9 2.58 106 2.58 107 2.58  26 2.58
                            11 2.58  98 2.58   1 2.58  83 2.58
  37  0.000  0.000  0.333-   2 2.58   3 2.58  11 2.58  26 2.58  38 2.58  39 2.58  40 2.58  47 2.58
                            48 2.58  62 2.58  64 2.58  72 2.58
  38  0.000  0.167  0.500-  49 2.58  51 2.58  59 2.58  85 2.58  39 2.58  40 2.58  37 2.58  47 2.58
                            73 2.58  76 2.58  48 2.58  84 2.58
  39  0.167  0.000  0.500-  41 2.58  42 2.58  66 2.58  77 2.58  38 2.58  40 2.58  37 2.58  62 2.58
                            73 2.58  76 2.58  64 2.58 100 2.58
  40  0.167  0.167  0.333-   6 2.58  15 2.58  53 2.58   3 2.58  41 2.58  42 2.58  49 2.58  51 2.58
                             2 2.58  39 2.58  37 2.58  38 2.58
  41  0.333  0.000  0.333-   3 2.58   6 2.58   7 2.58  39 2.58  40 2.58  30 2.58  64 2.58  43 2.58
                            44 2.58  42 2.58  66 2.58  68 2.58
  42  0.333  0.167  0.500-  51 2.58  40 2.58  39 2.58  53 2.58  55 2.58  76 2.58  89 2.58  44 2.58
                            41 2.58  43 2.58  80 2.58  77 2.58
  43  0.500  0.000  0.500-  41 2.58  42 2.58  44 2.58  45 2.58  46 2.58  66 2.58  68 2.58  77 2.58
                            80 2.58  70 2.58  81 2.58 104 2.58
  44  0.500  0.167  0.333-  19 2.58   7 2.58   6 2.58  53 2.58  55 2.58  10 2.58  57 2.58  41 2.58
                            42 2.58  43 2.58  46 2.58  45 2.58
  45  0.667  0.000  0.333-  11 2.58  47 2.58  48 2.58  72 2.58  10 2.58  34 2.58   7 2.58  46 2.58
                            43 2.58  70 2.58  44 2.58  68 2.58
  46  0.667  0.167  0.500-  59 2.58  48 2.58  47 2.58  84 2.58  57 2.58  55 2.58  93 2.58  45 2.58
                            81 2.58  43 2.58  44 2.58  80 2.58
  47  0.833  0.000  0.500-  45 2.58  46 2.58  70 2.58  81 2.58  48 2.58  38 2.58  72 2.58  37 2.58
                            84 2.58  62 2.58  73 2.58 108 2.58
  48  0.833  0.167  0.333-  10 2.58  57 2.58  23 2.58  46 2.58  45 2.58  11 2.58  59 2.58   2 2.58
                            49 2.58  47 2.58  37 2.58  38 2.58
  49  0.000  0.333  0.333-   2 2.58  14 2.58  15 2.58  38 2.58  40 2.58  23 2.58  48 2.58  50 2.58
                            51 2.58  52 2.58  59 2.58  60 2.58
  50  0.000  0.500  0.500-  49 2.58  51 2.58  52 2.58  59 2.58  60 2.58  61 2.58  63 2.58  85 2.58
                            88 2.58  71 2.58  96 2.58  97 2.58
  51  0.167  0.333  0.500-  42 2.58  40 2.58  38 2.58  53 2.58  54 2.58  76 2.58  89 2.58  50 2.58
                            52 2.58  49 2.58  88 2.58  85 2.58
  52  0.167  0.500  0.333-  18 2.58  15 2.58  14 2.58  53 2.58  54 2.58  27 2.58  65 2.58  49 2.58
                            50 2.58  51 2.58  63 2.58  61 2.58
  53  0.333  0.333  0.333-   6 2.58  15 2.58  40 2.58  19 2.58  18 2.58  42 2.58  44 2.58  51 2.58
                            52 2.58  54 2.58  55 2.58  56 2.58
  54  0.333  0.500  0.500-  51 2.58  52 2.58  63 2.58  88 2.58  56 2.58  53 2.58  55 2.58  67 2.58
                            65 2.58  89 2.58  92 2.58 101 2.58
  55  0.500  0.333  0.500-  42 2.58  44 2.58  46 2.58  80 2.58  54 2.58  56 2.58  53 2.58  58 2.58
                            57 2.58  89 2.58  92 2.58  93 2.58
  56  0.500  0.500  0.333-  18 2.58  19 2.58  22 2.58  31 2.58  53 2.58  54 2.58  55 2.58  57 2.58
                            58 2.58  65 2.58  67 2.58  69 2.58
  57  0.667  0.333  0.333-  23 2.58  48 2.58  10 2.58  59 2.58  60 2.58  46 2.58  22 2.58  19 2.58
                            44 2.58  58 2.58  56 2.58  55 2.58
  58  0.667  0.500  0.500-  59 2.58  60 2.58  71 2.58  96 2.58  57 2.58  69 2.58  56 2.58  93 2.58
                            55 2.58  67 2.58  92 2.58 105 2.58
  59  0.833  0.333  0.500-  46 2.58  57 2.58  58 2.58  93 2.58  48 2.58  84 2.58  38 2.58  60 2.58
                            50 2.58  49 2.58  96 2.58  85 2.58
  60  0.833  0.500  0.333-  22 2.58  57 2.58  58 2.58  69 2.58  23 2.58  35 2.58  14 2.58  59 2.58
                            49 2.58  50 2.58  71 2.58  61 2.58
  61  0.000  0.667  0.333-  26 2.58  62 2.58  64 2.58  72 2.58  27 2.58  35 2.58  14 2.58  63 2.58
                            50 2.58  71 2.58  52 2.58  60 2.58
  62  0.000  0.833  0.500-  61 2.58  63 2.58  71 2.58  97 2.58  64 2.58  39 2.58  72 2.58  37 2.58
                           100 2.58  47 2.58  73 2.58 108 2.58
  63  0.167  0.667  0.500-  66 2.58  64 2.58  62 2.58 100 2.58  65 2.58  54 2.58 101 2.58  61 2.58
                            97 2.58  50 2.58  52 2.58  88 2.58
  64  0.167  0.833  0.333-  27 2.58  65 2.58  30 2.58  63 2.58  61 2.58  26 2.58  66 2.58   3 2.58
                            41 2.58  62 2.58  37 2.58  39 2.58
  65  0.333  0.667  0.333-  30 2.58  64 2.58  27 2.58  66 2.58  68 2.58  63 2.58  31 2.58  18 2.58
                            52 2.58  67 2.58  56 2.58  54 2.58
  66  0.333  0.833  0.500-  63 2.58  65 2.58  67 2.58 101 2.58  64 2.58 100 2.58  39 2.58  68 2.58
                            43 2.58  41 2.58 104 2.58  77 2.58
  67  0.500  0.667  0.500-  66 2.58  68 2.58  70 2.58 104 2.58  65 2.58  69 2.58  56 2.58 101 2.58
                            54 2.58  58 2.58  92 2.58 105 2.58
  68  0.500  0.833  0.333-  31 2.58  65 2.58  67 2.58  69 2.58  30 2.58  34 2.58   7 2.58  66 2.58
                            41 2.58  43 2.58  70 2.58  45 2.58
  69  0.667  0.667  0.333-  72 2.58  35 2.58  34 2.58  71 2.58  70 2.58  68 2.58  60 2.58  31 2.58
                            22 2.58  58 2.58  67 2.58  56 2.58
  70  0.667  0.833  0.500-  71 2.58  69 2.58  72 2.58  67 2.58  47 2.58 105 2.58 108 2.58  68 2.58
                            45 2.58 104 2.58  43 2.58  81 2.58
  71  0.833  0.667  0.500-  70 2.58  69 2.58  72 2.58  62 2.58  58 2.58 105 2.58 108 2.58  60 2.58
                            61 2.58  97 2.58  50 2.58  96 2.58
  72  0.833  0.833  0.333-  69 2.58  35 2.58  34 2.58  70 2.58  71 2.58  61 2.58  45 2.58  26 2.58
                            11 2.58  62 2.58  47 2.58  37 2.58
  73  0.000  0.000  0.667-  74 2.58  75 2.58  83 2.58  98 2.58  76 2.58  39 2.58  84 2.58  38 2.58
                           100 2.58  62 2.58  47 2.58 108 2.58
  74  0.000  0.167  0.833-  85 2.58  76 2.58  73 2.58  84 2.58  87 2.58  13 2.58  95 2.58  75 2.58
                             4 2.58  83 2.58   1 2.58  12 2.58
  75  0.167  0.000  0.833-  77 2.58  76 2.58  73 2.58 100 2.58  78 2.58   5 2.58 102 2.58  74 2.58
                            98 2.58   1 2.58   4 2.58  28 2.58
  76  0.167  0.167  0.667-  78 2.58  87 2.58  89 2.58  75 2.58  74 2.58  77 2.58  85 2.58  51 2.58
                            42 2.58  73 2.58  38 2.58  39 2.58
  77  0.333  0.000  0.667-  75 2.58  78 2.58  79 2.58 102 2.58  76 2.58 100 2.58  39 2.58  80 2.58
                            43 2.58  42 2.58 104 2.58  66 2.58
  78  0.333  0.167  0.833-  76 2.58  89 2.58  87 2.58  77 2.58  80 2.58  75 2.58  91 2.58  17 2.58
                             4 2.58  79 2.58   8 2.58   5 2.58
  79  0.500  0.000  0.833-  77 2.58  80 2.58  81 2.58 104 2.58  78 2.58   8 2.58  82 2.58 102 2.58
                             5 2.58  32 2.58   9 2.58 106 2.58
  80  0.500  0.167  0.667-  91 2.58  79 2.58  78 2.58  82 2.58  89 2.58  55 2.58  93 2.58  77 2.58
                            43 2.58  81 2.58  42 2.58  46 2.58
  81  0.667  0.000  0.667-  83 2.58  82 2.58  84 2.58  79 2.58  47 2.58 106 2.58 108 2.58  80 2.58
                            46 2.58 104 2.58  70 2.58  43 2.58
  82  0.667  0.167  0.833-  84 2.58  93 2.58  95 2.58  83 2.58  81 2.58  80 2.58  12 2.58  21 2.58
                            91 2.58  79 2.58   9 2.58   8 2.58
  83  0.833  0.000  0.833-  81 2.58  82 2.58  84 2.58  73 2.58   9 2.58 106 2.58 108 2.58  74 2.58
                            12 2.58  98 2.58  36 2.58   1 2.58
  84  0.833  0.167  0.667-  82 2.58  93 2.58  95 2.58  81 2.58  83 2.58  74 2.58  46 2.58  59 2.58
                            85 2.58  73 2.58  47 2.58  38 2.58
  85  0.000  0.333  0.667-  74 2.58  86 2.58  87 2.58  95 2.58  76 2.58  84 2.58  38 2.58  88 2.58
                            51 2.58  50 2.58  96 2.58  59 2.58
  86  0.000  0.500  0.833-  85 2.58  88 2.58  96 2.58  97 2.58  87 2.58  95 2.58  16 2.58  13 2.58
                            99 2.58  25 2.58  24 2.58 107 2.58
  87  0.167  0.333  0.833-  76 2.58  89 2.58  78 2.58  88 2.58  85 2.58  74 2.58  90 2.58  17 2.58
                             4 2.58  86 2.58  16 2.58  13 2.58
  88  0.167  0.500  0.667-  90 2.58  87 2.58  86 2.58  99 2.58  89 2.58  54 2.58 101 2.58  85 2.58
                            97 2.58  50 2.58  51 2.58  63 2.58
  89  0.333  0.333  0.667-  78 2.58  87 2.58  76 2.58  90 2.58  91 2.58  80 2.58  88 2.58  51 2.58
                            42 2.58  92 2.58  54 2.58  55 2.58
  90  0.333  0.500  0.833-  88 2.58  89 2.58  92 2.58 101 2.58  87 2.58  99 2.58  16 2.58  91 2.58
                            20 2.58  17 2.58 103 2.58  29 2.58
  91  0.500  0.333  0.833-  80 2.58  89 2.58  92 2.58  93 2.58  78 2.58  82 2.58   8 2.58  90 2.58
                            20 2.58  17 2.58  94 2.58  21 2.58
  92  0.500  0.500  0.667-  90 2.58  91 2.58  94 2.58 103 2.58  89 2.58  93 2.58  55 2.58 101 2.58
                            54 2.58  67 2.58  58 2.58 105 2.58
  93  0.667  0.333  0.667-  95 2.58  84 2.58  82 2.58  94 2.58  96 2.58  91 2.58  59 2.58  46 2.58
                            80 2.58  92 2.58  58 2.58  55 2.58
  94  0.667  0.500  0.833-  96 2.58  95 2.58  93 2.58  92 2.58  24 2.58 105 2.58 107 2.58  21 2.58
                            91 2.58 103 2.58  33 2.58  20 2.58
  95  0.833  0.333  0.833-  93 2.58  84 2.58  82 2.58  94 2.58  96 2.58  85 2.58  21 2.58  12 2.58
                            74 2.58  86 2.58  24 2.58  13 2.58
  96  0.833  0.500  0.667-  94 2.58  93 2.58  95 2.58  86 2.58  58 2.58 105 2.58 107 2.58  59 2.58
                            85 2.58  97 2.58  71 2.58  50 2.58
  97  0.000  0.667  0.667-  98 2.58  99 2.58 100 2.58  86 2.58  62 2.58 107 2.58 108 2.58  88 2.58
                            63 2.58  96 2.58  50 2.58  71 2.58
  98  0.000  0.833  0.833-  97 2.58  99 2.58 100 2.58  73 2.58  25 2.58 107 2.58 108 2.58  75 2.58
                            28 2.58  83 2.58   1 2.58  36 2.58
  99  0.167  0.667  0.833- 100 2.58 101 2.58 102 2.58  98 2.58  97 2.58  88 2.58  28 2.58  90 2.58
                            29 2.58  86 2.58  25 2.58  16 2.58
 100  0.167  0.833  0.667-  99 2.58 101 2.58 102 2.58  98 2.58  97 2.58  75 2.58  63 2.58  77 2.58
                            66 2.58  73 2.58  62 2.58  39 2.58
 101  0.333  0.667  0.667- 102 2.58 100 2.58  99 2.58 103 2.58 104 2.58  90 2.58  66 2.58  63 2.58
                            88 2.58  92 2.58  67 2.58  54 2.58
 102  0.333  0.833  0.833- 101 2.58 100 2.58  99 2.58 103 2.58 104 2.58  77 2.58  29 2.58  28 2.58
                            75 2.58  79 2.58  32 2.58   5 2.58
 103  0.500  0.667  0.833- 104 2.58 102 2.58 101 2.58  92 2.58  32 2.58 105 2.58 106 2.58  29 2.58
                            90 2.58  94 2.58  20 2.58  33 2.58
 104  0.500  0.833  0.667- 103 2.58 102 2.58 101 2.58  79 2.58  67 2.58 105 2.58 106 2.58  66 2.58
                            77 2.58  81 2.58  43 2.58  70 2.58
 105  0.667  0.667  0.667- 106 2.58 107 2.58 108 2.58  96 2.58 103 2.58 104 2.58  70 2.58  71 2.58
                            94 2.58  67 2.58  92 2.58  58 2.58
 106  0.667  0.833  0.833- 105 2.58 107 2.58 108 2.58  83 2.58 103 2.58 104 2.58  33 2.58  36 2.58
                            81 2.58  32 2.58  79 2.58   9 2.58
 107  0.833  0.667  0.833- 105 2.58 106 2.58 108 2.58  96 2.58  97 2.58  98 2.58  33 2.58  36 2.58
                            94 2.58  25 2.58  86 2.58  24 2.58
 108  0.833  0.833  0.667- 105 2.58 106 2.58 107 2.58  83 2.58  97 2.58  98 2.58  70 2.58  71 2.58
                            81 2.58  62 2.58  73 2.58  47 2.58
 
  LATTYP: Found a simple cubic cell.
 ALAT       =    10.9504003525
  
  Lattice vectors:
  
 A1 = (  10.9504003525,   0.0000000000,   0.0000000000)
 A2 = (   0.0000000000,  10.9504003525,   0.0000000000)
 A3 = (   0.0000000000,   0.0000000000,  10.9504003525)


Analysis of symmetry for initial positions (statically):
=====================================================================
 Subroutine PRICEL returns following result:
 
  LATTYP: Found a face centered cubic cell.
 ALAT       =    10.9504003525
  
  Lattice vectors:
  
 A1 = (   5.4752001763,   5.4752001763,  -0.0000006351)
 A2 = (   5.4752001763,   0.0000000000,  -5.4752004938)
 A3 = (   0.0000000000,   5.4752001763,  -5.4752004938)
 
   4 primitive cells build up your supercell.
 

 Routine SETGRP: Setting up the symmetry group for a 
 simple cubic supercell.


 Subroutine GETGRP returns: Found 48 space group operations
 (whereof 48 operations were pure point group operations)
 out of a pool of 48 trial point group operations.


The static configuration has the point symmetry O_h .


Analysis of symmetry for dynamics (positions and initial velocities):
=====================================================================
 Subroutine PRICEL returns following result:
 
  LATTYP: Found a face centered cubic cell.
 ALAT       =    10.9504003525
  
  Lattice vectors:
  
 A1 = (   5.4752001763,   5.4752001763,  -0.0000006351)
 A2 = (   5.4752001763,   0.0000000000,  -5.4752004938)
 A3 = (   0.0000000000,   5.4752001763,  -5.4752004938)
 
   4 primitive cells build up your supercell.
 

 Routine SETGRP: Setting up the symmetry group for a 
 simple cubic supercell.


 Subroutine GETGRP returns: Found 48 space group operations
 (whereof 48 operations were pure point group operations)
 out of a pool of 48 trial point group operations.


The dynamic configuration has the point symmetry O_h .


 Subroutine INISYM returns: Found 48 space group operations
 (whereof 48 operations are pure point group operations),
 and found     4 'primitive' translations

 
 
 KPOINTS: pymatgen generated KPOINTS with grid den

Automatic generation of k-mesh.
Space group operators:
 irot       det(A)        alpha          n_x          n_y          n_z        tau_x        tau_y        tau_z
    1     1.000000     0.000000     1.000000     0.000000     0.000000     0.000000     0.000000     0.000000
    2    -1.000000     0.000000     1.000000     0.000000     0.000000     0.000000     0.000000     0.000000
    3     1.000000   120.000000    -0.577350    -0.577350    -0.577350     0.000000     0.000000     0.000000
    4    -1.000000   120.000000    -0.577350    -0.577350    -0.577350     0.000000     0.000000     0.000000
    5     1.000000   120.000000     0.577350     0.577350     0.577350     0.000000     0.000000     0.000000
    6    -1.000000   120.000000     0.577350     0.577350     0.577350     0.000000     0.000000     0.000000
    7     1.000000    90.000000     0.000000     0.000000    -1.000000     0.000000     0.000000     0.000000
    8    -1.000000    90.000000     0.000000     0.000000    -1.000000     0.000000     0.000000     0.000000
    9     1.000000   180.000000     0.000000     0.707107     0.707107     0.000000     0.000000     0.000000
   10    -1.000000   180.000000     0.000000     0.707107     0.707107     0.000000     0.000000     0.000000
   11     1.000000    90.000000     0.000000     1.000000     0.000000     0.000000     0.000000     0.000000
   12    -1.000000    90.000000     0.000000     1.000000     0.000000     0.000000     0.000000     0.000000
   13     1.000000   180.000000     0.000000     0.000000     1.000000     0.000000     0.000000     0.000000
   14    -1.000000   180.000000     0.000000     0.000000     1.000000     0.000000     0.000000     0.000000
   15     1.000000   120.000000    -0.577350     0.577350     0.577350     0.000000     0.000000     0.000000
   16    -1.000000   120.000000    -0.577350     0.577350     0.577350     0.000000     0.000000     0.000000
   17     1.000000   120.000000    -0.577350     0.577350    -0.577350     0.000000     0.000000     0.000000
   18    -1.000000   120.000000    -0.577350     0.577350    -0.577350     0.000000     0.000000     0.000000
   19     1.000000    90.000000     0.000000     0.000000     1.000000     0.000000     0.000000     0.000000
   20    -1.000000    90.000000     0.000000     0.000000     1.000000     0.000000     0.000000     0.000000
   21     1.000000    90.000000    -1.000000     0.000000     0.000000     0.000000     0.000000     0.000000
   22    -1.000000    90.000000    -1.000000     0.000000     0.000000     0.000000     0.000000     0.000000
   23     1.000000   180.000000     0.707107     0.000000     0.707107     0.000000     0.000000     0.000000
   24    -1.000000   180.000000     0.707107     0.000000     0.707107     0.000000     0.000000     0.000000
   25     1.000000   120.000000     0.577350    -0.577350     0.577350     0.000000     0.000000     0.000000
   26    -1.000000   120.000000     0.577350    -0.577350     0.577350     0.000000     0.000000     0.000000
   27     1.000000   120.000000    -0.577350    -0.577350     0.577350     0.000000     0.000000     0.000000
   28    -1.000000   120.000000    -0.577350    -0.577350     0.577350     0.000000     0.000000     0.000000
   29     1.000000   180.000000     1.000000     0.000000     0.000000     0.000000     0.000000     0.000000
   30    -1.000000   180.000000     1.000000     0.000000     0.000000     0.000000     0.000000     0.000000
   31     1.000000    90.000000     0.000000    -1.000000     0.000000     0.000000     0.000000     0.000000
   32    -1.000000    90.000000     0.000000    -1.000000     0.000000     0.000000     0.000000     0.000000
   33     1.000000   180.000000     0.707107     0.707107     0.000000     0.000000     0.000000     0.000000
   34    -1.000000   180.000000     0.707107     0.707107     0.000000     0.000000     0.000000     0.000000
   35     1.000000    90.000000     1.000000     0.000000     0.000000     0.000000     0.000000     0.000000
   36    -1.000000    90.000000     1.000000     0.000000     0.000000     0.000000     0.000000     0.000000
   37     1.000000   120.000000     0.577350    -0.577350    -0.577350     0.000000     0.000000     0.000000
   38    -1.000000   120.000000     0.577350    -0.577350    -0.577350     0.000000     0.000000     0.000000
   39     1.000000   180.000000     0.000000     1.000000     0.000000     0.000000     0.000000     0.000000
   40    -1.000000   180.000000     0.000000     1.000000     0.000000     0.000000     0.000000     0.000000
   41     1.000000   120.000000     0.577350     0.577350    -0.577350     0.000000     0.000000     0.000000
   42    -1.000000   120.000000     0.577350     0.577350    -0.577350     0.000000     0.000000     0.000000
   43     1.000000   180.000000     0.000000    -0.707107     0.707107     0.000000     0.000000     0.000000
   44    -1.000000   180.000000     0.000000    -0.707107     0.707107     0.000000     0.000000     0.000000
   45     1.000000   180.000000     0.707107    -0.707107     0.000000     0.000000     0.000000     0.000000
   46    -1.000000   180.000000     0.707107    -0.707107     0.000000     0.000000     0.000000     0.000000
   47     1.000000   180.000000     0.707107     0.000000    -0.707107     0.000000     0.000000     0.000000
   48    -1.000000   180.000000     0.707107     0.000000    -0.707107     0.000000     0.000000     0.000000
 
 Subroutine IBZKPT returns following result:
 ===========================================
 
 Found      4 irreducible k-points:
 
 Following reciprocal coordinates:
            Coordinates               Weight
  0.125000  0.125000  0.125000      8.000000
  0.375000  0.125000  0.125000     24.000000
  0.375000  0.375000  0.125000     24.000000
  0.375000  0.375000  0.375000      8.000000
 
 Following cartesian coordinates:
            Coordinates               Weight
  0.011415  0.011415  0.011415      8.000000
  0.034245  0.011415  0.011415     24.000000
  0.034245  0.034245  0.011415     24.000000
  0.034245  0.034245  0.034245      8.000000
 


--------------------------------------------------------------------------------------------------------




 Dimension of arrays:
   k-points           NKPTS =      4   k-points in BZ     NKDIM =      4   number of bands    NBANDS=    522
   number of dos      NEDOS =    301   number of ions     NIONS =    108
   non local maximal  LDIM  =      6   non local SUM 2l+1 LMDIM =     18
   total plane-waves  NPLWV = 373248
   max r-space proj   IRMAX =   4137   max aug-charges    IRDMAX=  10324
   dimension x,y,z NGX =    72 NGY =   72 NGZ =   72
   dimension x,y,z NGXF=   144 NGYF=  144 NGZF=  144
   support grid    NGXF=   144 NGYF=  144 NGZF=  144
   ions per type =             108
   NGX,Y,Z   is equivalent  to a cutoff of  10.93, 10.93, 10.93 a.u.
   NGXF,Y,Z  is equivalent  to a cutoff of  21.86, 21.86, 21.86 a.u.

 Based on PREC, I would recommend the following setting:
   dimension x,y,z NGX =    54 NGY =   54 NGZ =   54

 SYSTEM =  Opt                                     
 POSCAR =  fcc_Fe_CON_333                          

 Startparameter for this run:
   NWRITE =      2    write-flag & timer
   PREC   = normal    normal or accurate (medium, high low for compatibility)
   ISTART =      0    job   : 0-new  1-cont  2-samecut
   ICHARG =      2    charge: 1-file 2-atom 10-const
   ISPIN  =      1    spin polarized calculation?
   LNONCOLLINEAR =      F non collinear calculations
   LSORBIT =      F    spin-orbit coupling
   INIWAV =      1    electr: 0-lowe 1-rand  2-diag
   LASPH  =      F    aspherical Exc in radial PAW
   METAGGA=      F    non-selfconsistent MetaGGA calc.

 Electronic Relaxation 1
   ENCUT  =  400.0 eV  29.40 Ry    5.42 a.u.  17.86 17.86 17.86*2*pi/ulx,y,z
   ENINI  =  400.0     initial cutoff
   ENAUG  =  511.4 eV  augmentation charge cutoff
   NELM   =    400;   NELMIN=  2; NELMDL= -5     # of ELM steps 
   EDIFF  = 0.1E-05   stopping-criterion for ELM
   LREAL  =      T    real-space projection
   NLSPLINE    = F    spline interpolate recip. space projectors
   LCOMPAT=      F    compatible to vasp.4.4
   GGA_COMPAT  = T    GGA compatible to vasp.4.4-vasp.4.6
   LMAXPAW     = -100 max onsite density
   LMAXMIX     =    2 max onsite mixed and CHGCAR
   VOSKOWN=      0    Vosko Wilk Nusair interpolation
   ROPT   =   -0.00050
 Ionic relaxation
   EDIFFG = -.1E-01   stopping-criterion for IOM
   NSW    =    100    number of steps for IOM
   NBLOCK =      1;   KBLOCK =    100    inner block; outer block 
   IBRION =      2    ionic relax: 0-MD 1-quasi-New 2-CG
   NFREE  =      1    steps in history (QN), initial steepest desc. (CG)
   ISIF   =      3    stress and relaxation
   IWAVPR =     11    prediction:  0-non 1-charg 2-wave 3-comb
   ISYM   =      2    0-nonsym 1-usesym 2-fastsym
   LCORR  =      T    Harris-Foulkes like correction to forces

   POTIM  = 0.5000    time-step for ionic-motion
   TEIN   =    0.0    initial temperature
   TEBEG  =    0.0;   TEEND  =   0.0 temperature during run
   SMASS  =  -3.00    Nose mass-parameter (am)
   estimated Nose-frequenzy (Omega)   =  0.10E-29 period in steps =****** mass=  -0.274E-26a.u.
   SCALEE = 1.0000    scale energy and forces
   NPACO  =    256;   APACO  = 16.0  distance and # of slots for P.C.
   PSTRESS=    0.0 pullay stress

  Mass of Ions in am
   POMASS =  55.85
  Ionic Valenz
   ZVAL   =   8.00
  Atomic Wigner-Seitz radii
   RWIGS  =  -1.00
  virtual crystal weights 
   VCA    =   1.00
   NELECT =     864.0000    total number of electrons
   NUPDOWN=      -1.0000    fix difference up-down

 DOS related values:
   EMIN   =  10.00;   EMAX   =-10.00  energy-range for DOS
   EFERMI =   0.00
   ISMEAR =     1;   SIGMA  =   0.20  broadening in eV -4-tet -1-fermi 0-gaus

 Electronic relaxation 2 (details)
   IALGO  =     68    algorithm
   LDIAG  =      T    sub-space diagonalisation (order eigenvalues)
   LSUBROT=      F    optimize rotation matrix (better conditioning)
   TURBO    =      0    0=normal 1=particle mesh
   IRESTART =      0    0=no restart 2=restart with 2 vectors
   NREBOOT  =      0    no. of reboots
   NMIN     =      0    reboot dimension
   EREF     =   0.00    reference energy to select bands
   IMIX   =      4    mixing-type and parameters
     AMIX     =   0.40;   BMIX     =  1.00
     AMIX_MAG =   1.60;   BMIX_MAG =  1.00
     AMIN     =   0.10
     WC   =   100.;   INIMIX=   1;  MIXPRE=   1;  MAXMIX= -45

 Intra band minimization:
   WEIMIN = 0.0010     energy-eigenvalue tresh-hold
   EBREAK =  0.48E-09  absolut break condition
   DEPER  =   0.30     relativ break condition  

   TIME   =   0.40     timestep for ELM

  volume/ion in A,a.u.               =      12.16        82.05
  Fermi-wavevector in a.u.,A,eV,Ry     =   1.423911  2.690801 27.586106  2.027522
  Thomas-Fermi vector in A             =   2.544458
 
 Write flags
   LWAVE        =      F    write WAVECAR
   LDOWNSAMPLE  =      F    k-point downsampling of WAVECAR
   LCHARG       =      F    write CHGCAR
   LVTOT        =      F    write LOCPOT, total local potential
   LVHAR        =      F    write LOCPOT, Hartree potential only
   LELF         =      F    write electronic localiz. function (ELF)
   LORBIT       =      0    0 simple, 1 ext, 2 COOP (PROOUT), +10 PAW based schemes


 Dipole corrections
   LMONO  =      F    monopole corrections only (constant potential shift)
   LDIPOL =      F    correct potential (dipole corrections)
   IDIPOL =      0    1-x, 2-y, 3-z, 4-all directions 
   EPSILON=  1.0000000 bulk dielectric constant

 Exchange correlation treatment:
   GGA     =    --    GGA type
   LEXCH   =     8    internal setting for exchange type
   VOSKOWN=      0    Vosko Wilk Nusair interpolation
   LHFCALC =     F    Hartree Fock is set to
   LHFONE  =     F    Hartree Fock one center treatment
   AEXX    =    0.0000 exact exchange contribution

 Linear response parameters
   LEPSILON=     F    determine dielectric tensor
   LRPA    =     F    only Hartree local field effects (RPA)
   LNABLA  =     F    use nabla operator in PAW spheres
   LVEL    =     F    velocity operator in full k-point grid
   LINTERFAST=   F  fast interpolation
   KINTER  =     0    interpolate to denser k-point grid
   CSHIFT  =0.1000    complex shift for real part using Kramers Kronig
   OMEGAMAX=  -1.0    maximum frequency
   DEG_THRESHOLD= 0.2000000E-02 threshold for treating states as degnerate
   RTIME   =   -0.100 relaxation time in fs
  (WPLASMAI=    0.000 imaginary part of plasma frequency in eV, 0.658/RTIME)
   DFIELD  = 0.0000000 0.0000000 0.0000000 field for delta impulse in time
 
 Orbital magnetization related:
   ORBITALMAG=     F  switch on orbital magnetization
   LCHIMAG   =     F  perturbation theory with respect to B field
   DQ        =  0.001000  dq finite difference perturbation B field
   LLRAUG    =     F  two centre corrections for induced B field



--------------------------------------------------------------------------------------------------------


 conjugate gradient relaxation of ions
 charge density and potential will be updated during run
 non-spin polarized calculation
 RMM-DIIS sequential band-by-band and
  variant of blocked Davidson during initial phase
 perform sub-space diagonalisation
    before iterative eigenvector-optimisation
 modified Broyden-mixing scheme, WC =      100.0
 initial mixing is a Kerker type mixing with AMIX =  0.4000 and BMIX =      1.0000
 Hartree-type preconditioning will be used
 using additional bands           90
 real space projection scheme for non local part
 use partial core corrections
 calculate Harris-corrections to forces 
   (improved forces if not selfconsistent)
 use gradient corrections 
 use of overlap-Matrix (Vanderbilt PP)
 Methfessel and Paxton  Order N= 1 SIGMA  =   0.20


--------------------------------------------------------------------------------------------------------


  energy-cutoff  :      400.00
  volume of cell :     1313.08
      direct lattice vectors                 reciprocal lattice vectors
    10.950400353  0.000000000  0.000000000     0.091320862  0.000000000  0.000000000
     0.000000000 10.950400353  0.000000000     0.000000000  0.091320862  0.000000000
     0.000000000  0.000000000 10.950400353     0.000000000  0.000000000  0.091320862

  length of vectors
    10.950400353 10.950400353 10.950400353     0.091320862  0.091320862  0.091320862


 
 k-points in units of 2pi/SCALE and weight: pymatgen generated KPOINTS with grid den
   0.01141511  0.01141511  0.01141511       0.125
   0.03424532  0.01141511  0.01141511       0.375
   0.03424532  0.03424532  0.01141511       0.375
   0.03424532  0.03424532  0.03424532       0.125
 
 k-points in reciprocal lattice and weights: pymatgen generated KPOINTS with grid den
   0.12500000  0.12500000  0.12500000       0.125
   0.37500000  0.12500000  0.12500000       0.375
   0.37500000  0.37500000  0.12500000       0.375
   0.37500000  0.37500000  0.37500000       0.125
 
 position of ions in fractional coordinates (direct lattice) 
   0.00000000  0.00000000  0.00000000
   0.00000000  0.16666999  0.16666999
   0.16666999  0.00000000  0.16666999
   0.16666999  0.16666999  0.00000000
   0.33333001  0.00000000  0.00000000
   0.33333001  0.16666999  0.16666999
   0.50000000  0.00000000  0.16666999
   0.50000000  0.16666999  0.00000000
   0.66667002  0.00000000  0.00000000
   0.66667002  0.16666999  0.16666999
   0.83332998  0.00000000  0.16666999
   0.83332998  0.16666999  0.00000000
   0.00000000  0.33333001  0.00000000
   0.00000000  0.50000000  0.16666999
   0.16666999  0.33333001  0.16666999
   0.16666999  0.50000000  0.00000000
   0.33333001  0.33333001  0.00000000
   0.33333001  0.50000000  0.16666999
   0.50000000  0.33333001  0.16666999
   0.50000000  0.50000000  0.00000000
   0.66667002  0.33333001  0.00000000
   0.66667002  0.50000000  0.16666999
   0.83332998  0.33333001  0.16666999
   0.83332998  0.50000000  0.00000000
   0.00000000  0.66667002  0.00000000
   0.00000000  0.83332998  0.16666999
   0.16666999  0.66667002  0.16666999
   0.16666999  0.83332998  0.00000000
   0.33333001  0.66667002  0.00000000
   0.33333001  0.83332998  0.16666999
   0.50000000  0.66667002  0.16666999
   0.50000000  0.83332998  0.00000000
   0.66667002  0.66667002  0.00000000
   0.66667002  0.83332998  0.16666999
   0.83332998  0.66667002  0.16666999
   0.83332998  0.83332998  0.00000000
   0.00000000  0.00000000  0.33333001
   0.00000000  0.16666999  0.50000000
   0.16666999  0.00000000  0.50000000
   0.16666999  0.16666999  0.33333001
   0.33333001  0.00000000  0.33333001
   0.33333001  0.16666999  0.50000000
   0.50000000  0.00000000  0.50000000
   0.50000000  0.16666999  0.33333001
   0.66667002  0.00000000  0.33333001
   0.66667002  0.16666999  0.50000000
   0.83332998  0.00000000  0.50000000
   0.83332998  0.16666999  0.33333001
   0.00000000  0.33333001  0.33333001
   0.00000000  0.50000000  0.50000000
   0.16666999  0.33333001  0.50000000
   0.16666999  0.50000000  0.33333001
   0.33333001  0.33333001  0.33333001
   0.33333001  0.50000000  0.50000000
   0.50000000  0.33333001  0.50000000
   0.50000000  0.50000000  0.33333001
   0.66667002  0.33333001  0.33333001
   0.66667002  0.50000000  0.50000000
   0.83332998  0.33333001  0.50000000
   0.83332998  0.50000000  0.33333001
   0.00000000  0.66667002  0.33333001
   0.00000000  0.83332998  0.50000000
   0.16666999  0.66667002  0.50000000
   0.16666999  0.83332998  0.33333001
   0.33333001  0.66667002  0.33333001
   0.33333001  0.83332998  0.50000000
   0.50000000  0.66667002  0.50000000
   0.50000000  0.83332998  0.33333001
   0.66667002  0.66667002  0.33333001
   0.66667002  0.83332998  0.50000000
   0.83332998  0.66667002  0.50000000
   0.83332998  0.83332998  0.33333001
   0.00000000  0.00000000  0.66667002
   0.00000000  0.16666999  0.83332998
   0.16666999  0.00000000  0.83332998
   0.16666999  0.16666999  0.66667002
   0.33333001  0.00000000  0.66667002
   0.33333001  0.16666999  0.83332998
   0.50000000  0.00000000  0.83332998
   0.50000000  0.16666999  0.66667002
   0.66667002  0.00000000  0.66667002
   0.66667002  0.16666999  0.83332998
   0.83332998  0.00000000  0.83332998
   0.83332998  0.16666999  0.66667002
   0.00000000  0.33333001  0.66667002
   0.00000000  0.50000000  0.83332998
   0.16666999  0.33333001  0.83332998
   0.16666999  0.50000000  0.66667002
   0.33333001  0.33333001  0.66667002
   0.33333001  0.50000000  0.83332998
   0.50000000  0.33333001  0.83332998
   0.50000000  0.50000000  0.66667002
   0.66667002  0.33333001  0.66667002
   0.66667002  0.50000000  0.83332998
   0.83332998  0.33333001  0.83332998
   0.83332998  0.50000000  0.66667002
   0.00000000  0.66667002  0.66667002
   0.00000000  0.83332998  0.83332998
   0.16666999  0.66667002  0.83332998
   0.16666999  0.83332998  0.66667002
   0.33333001  0.66667002  0.66667002
   0.33333001  0.83332998  0.83332998
   0.50000000  0.66667002  0.83332998
   0.50000000  0.83332998  0.66667002
   0.66667002  0.66667002  0.66667002
   0.66667002  0.83332998  0.83332998
   0.83332998  0.66667002  0.83332998
   0.83332998  0.83332998  0.66667002
 
 position of ions in cartesian coordinates  (Angst):
   0.00000000  0.00000000  0.00000000
   0.00000000  1.82510317  1.82510317
   1.82510317  0.00000000  1.82510317
   1.82510317  1.82510317  0.00000000
   3.65009700  0.00000000  0.00000000
   3.65009700  1.82510317  1.82510317
   5.47520018  0.00000000  1.82510317
   5.47520018  1.82510317  0.00000000
   7.30030367  0.00000000  0.00000000
   7.30030367  1.82510317  1.82510317
   9.12529686  0.00000000  1.82510317
   9.12529686  1.82510317  0.00000000
   0.00000000  3.65009700  0.00000000
   0.00000000  5.47520018  1.82510317
   1.82510317  3.65009700  1.82510317
   1.82510317  5.47520018  0.00000000
   3.65009700  3.65009700  0.00000000
   3.65009700  5.47520018  1.82510317
   5.47520018  3.65009700  1.82510317
   5.47520018  5.47520018  0.00000000
   7.30030367  3.65009700  0.00000000
   7.30030367  5.47520018  1.82510317
   9.12529686  3.65009700  1.82510317
   9.12529686  5.47520018  0.00000000
   0.00000000  7.30030367  0.00000000
   0.00000000  9.12529686  1.82510317
   1.82510317  7.30030367  1.82510317
   1.82510317  9.12529686  0.00000000
   3.65009700  7.30030367  0.00000000
   3.65009700  9.12529686  1.82510317
   5.47520018  7.30030367  1.82510317
   5.47520018  9.12529686  0.00000000
   7.30030367  7.30030367  0.00000000
   7.30030367  9.12529686  1.82510317
   9.12529686  7.30030367  1.82510317
   9.12529686  9.12529686  0.00000000
   0.00000000  0.00000000  3.65009700
   0.00000000  1.82510317  5.47520018
   1.82510317  0.00000000  5.47520018
   1.82510317  1.82510317  3.65009700
   3.65009700  0.00000000  3.65009700
   3.65009700  1.82510317  5.47520018
   5.47520018  0.00000000  5.47520018
   5.47520018  1.82510317  3.65009700
   7.30030367  0.00000000  3.65009700
   7.30030367  1.82510317  5.47520018
   9.12529686  0.00000000  5.47520018
   9.12529686  1.82510317  3.65009700
   0.00000000  3.65009700  3.65009700
   0.00000000  5.47520018  5.47520018
   1.82510317  3.65009700  5.47520018
   1.82510317  5.47520018  3.65009700
   3.65009700  3.65009700  3.65009700
   3.65009700  5.47520018  5.47520018
   5.47520018  3.65009700  5.47520018
   5.47520018  5.47520018  3.65009700
   7.30030367  3.65009700  3.65009700
   7.30030367  5.47520018  5.47520018
   9.12529686  3.65009700  5.47520018
   9.12529686  5.47520018  3.65009700
   0.00000000  7.30030367  3.65009700
   0.00000000  9.12529686  5.47520018
   1.82510317  7.30030367  5.47520018
   1.82510317  9.12529686  3.65009700
   3.65009700  7.30030367  3.65009700
   3.65009700  9.12529686  5.47520018
   5.47520018  7.30030367  5.47520018
   5.47520018  9.12529686  3.65009700
   7.30030367  7.30030367  3.65009700
   7.30030367  9.12529686  5.47520018
   9.12529686  7.30030367  5.47520018
   9.12529686  9.12529686  3.65009700
   0.00000000  0.00000000  7.30030367
   0.00000000  1.82510317  9.12529686
   1.82510317  0.00000000  9.12529686
   1.82510317  1.82510317  7.30030367
   3.65009700  0.00000000  7.30030367
   3.65009700  1.82510317  9.12529686
   5.47520018  0.00000000  9.12529686
   5.47520018  1.82510317  7.30030367
   7.30030367  0.00000000  7.30030367
   7.30030367  1.82510317  9.12529686
   9.12529686  0.00000000  9.12529686
   9.12529686  1.82510317  7.30030367
   0.00000000  3.65009700  7.30030367
   0.00000000  5.47520018  9.12529686
   1.82510317  3.65009700  9.12529686
   1.82510317  5.47520018  7.30030367
   3.65009700  3.65009700  7.30030367
   3.65009700  5.47520018  9.12529686
   5.47520018  3.65009700  9.12529686
   5.47520018  5.47520018  7.30030367
   7.30030367  3.65009700  7.30030367
   7.30030367  5.47520018  9.12529686
   9.12529686  3.65009700  9.12529686
   9.12529686  5.47520018  7.30030367
   0.00000000  7.30030367  7.30030367
   0.00000000  9.12529686  9.12529686
   1.82510317  7.30030367  9.12529686
   1.82510317  9.12529686  7.30030367
   3.65009700  7.30030367  7.30030367
   3.65009700  9.12529686  9.12529686
   5.47520018  7.30030367  9.12529686
   5.47520018  9.12529686  7.30030367
   7.30030367  7.30030367  7.30030367
   7.30030367  9.12529686  9.12529686
   9.12529686  7.30030367  9.12529686
   9.12529686  9.12529686  7.30030367
 


--------------------------------------------------------------------------------------------------------


 k-point  1 :   0.1250 0.1250 0.1250  plane waves:   23826
 k-point  2 :   0.3750 0.1250 0.1250  plane waves:   23813
 k-point  3 :   0.3750 0.3750 0.1250  plane waves:   23857
 k-point  4 :   0.3750 0.3750 0.3750  plane waves:   23831

 maximum and minimum number of plane-waves per node :      5980     5930

 maximum number of plane-waves:     23857
 maximum index in each direction: 
   IXMAX=   17   IYMAX=   17   IZMAX=   17
   IXMIN=  -18   IYMIN=  -18   IZMIN=  -18


 real space projection operators:
  total allocation   :      59398.31 KBytes
  max/ min on nodes  :      15081.19      14519.25


 parallel 3D FFT for wavefunctions:
    minimum data exchange during FFTs selected (reduces bandwidth)
 parallel 3D FFT for charge:
    minimum data exchange during FFTs selected (reduces bandwidth)


 total amount of memory used by VASP MPI-rank0   109077. kBytes
=======================================================================

   base      :      30000. kBytes
   nonlr-proj:      25964. kBytes
   fftplans  :       7001. kBytes
   grid      :       9780. kBytes
   one-center:        419. kBytes
   wavefun   :      35913. kBytes
 
     INWAV:  cpu time    0.0000: real time    0.0001
 Broyden mixing: mesh for mixing (old mesh)
   NGX = 35   NGY = 35   NGZ = 35
  (NGX  =144   NGY  =144   NGZ  =144)
  gives a total of  42875 points

 initial charge density was supplied:
 charge density of overlapping atoms calculated
 number of electron     864.0000000 magnetization 
 keeping initial charge density in first step


--------------------------------------------------------------------------------------------------------


 Maximum index for non-local projection operator          993
 Maximum index for augmentation-charges          553 (set IRDMAX)


--------------------------------------------------------------------------------------------------------


 First call to EWALD:  gamma=   0.162
 Maximum number of real-space cells 3x 3x 3
 Maximum number of reciprocal cells 3x 3x 3

    FEWALD:  cpu time    0.0057: real time    0.0057


--------------------------------------- Iteration      1(   1)  ---------------------------------------


    POTLOK:  cpu time    0.0967: real time    0.0979
    SETDIJ:  cpu time    0.0195: real time    0.0196
     EDDAV:  cpu time   16.2068: real time   16.2096
       DOS:  cpu time    0.0018: real time    0.0018
    --------------------------------------------
      LOOP:  cpu time   16.3248: real time   16.3288

 eigenvalue-minimisations  :  4176
 total energy-change (2. order) : 0.7058764E+04  (-0.2918183E+05)
 number of electron     864.0000000 magnetization 
 augmentation part      864.0000000 magnetization 

 Free energy of the ion-electron system (eV)
  ---------------------------------------------------
  alpha Z        PSCENC =      6137.11160893
  Ewald energy   TEWEN  =    -62509.70265403
  -Hartree energ DENC   =    -12624.36346638
  -exchange      EXHF   =         0.00000000
  -V(xc)+E(xc)   XCENC  =       391.07142281
  PAW double counting   =     51723.88885462   -52548.28121372
  entropy T*S    EENTRO =        -0.01336147
  eigenvalues    EBANDS =     12287.38175815
  atomic energy  EATOM  =     64201.67088057
  Solvation  Ediel_sol  =         0.00000000
  ---------------------------------------------------
  free energy    TOTEN  =      7058.76382949 eV

  energy without entropy =     7058.77719095  energy(sigma->0) =     7058.76828331


--------------------------------------------------------------------------------------------------------




--------------------------------------- Iteration      1(   2)  ---------------------------------------


     EDDAV:  cpu time   16.2279: real time   16.2310
       DOS:  cpu time    0.0024: real time    0.0024
    --------------------------------------------
      LOOP:  cpu time   16.2303: real time   16.2334

 eigenvalue-minimisations  :  4176
 total energy-change (2. order) :-0.7191087E+04  (-0.7036546E+04)
 number of electron     864.0000000 magnetization 
 augmentation part      864.0000000 magnetization 

 Free energy of the ion-electron system (eV)
  ---------------------------------------------------
  alpha Z        PSCENC =      6137.11160893
  Ewald energy   TEWEN  =    -62509.70265403
  -Hartree energ DENC   =    -12624.36346638
  -exchange      EXHF   =         0.00000000
  -V(xc)+E(xc)   XCENC  =       391.07142281
  PAW double counting   =     51723.88885462   -52548.28121372
  entropy T*S    EENTRO =         0.00672128
  eigenvalues    EBANDS =      5096.27473504
  atomic energy  EATOM  =     64201.67088057
  Solvation  Ediel_sol  =         0.00000000
  ---------------------------------------------------
  free energy    TOTEN  =      -132.32311088 eV

  energy without entropy =     -132.32983216  energy(sigma->0) =     -132.32535130


--------------------------------------------------------------------------------------------------------




--------------------------------------- Iteration      1(   3)  ---------------------------------------


     EDDAV:  cpu time   16.3206: real time   16.3267
       DOS:  cpu time    0.0029: real time    0.0029
    --------------------------------------------
      LOOP:  cpu time   16.3235: real time   16.3296

 eigenvalue-minimisations  :  4224
 total energy-change (2. order) :-0.7113537E+03  (-0.6042420E+03)
 number of electron     864.0000000 magnetization 
 augmentation part      864.0000000 magnetization 

 Free energy of the ion-electron system (eV)
  ---------------------------------------------------
  alpha Z        PSCENC =      6137.11160893
  Ewald energy   TEWEN  =    -62509.70265403
  -Hartree energ DENC   =    -12624.36346638
  -exchange      EXHF   =         0.00000000
  -V(xc)+E(xc)   XCENC  =       391.07142281
  PAW double counting   =     51723.88885462   -52548.28121372
  entropy T*S    EENTRO =         0.00992198
  eigenvalues    EBANDS =      4384.91787484
  atomic energy  EATOM  =     64201.67088057
  Solvation  Ediel_sol  =         0.00000000
  ---------------------------------------------------
  free energy    TOTEN  =      -843.67677037 eV

  energy without entropy =     -843.68669235  energy(sigma->0) =     -843.68007770


--------------------------------------------------------------------------------------------------------




--------------------------------------- Iteration      1(   4)  ---------------------------------------


     EDDAV:  cpu time   27.0281: real time   27.0321
       DOS:  cpu time    0.0032: real time    0.0032
    --------------------------------------------
      LOOP:  cpu time   27.0313: real time   27.0353

 eigenvalue-minimisations  :  7836
 total energy-change (2. order) :-0.1710479E+03  (-0.1596847E+03)
 number of electron     864.0000000 magnetization 
 augmentation part      864.0000000 magnetization 

 Free energy of the ion-electron system (eV)
  ---------------------------------------------------
  alpha Z        PSCENC =      6137.11160893
  Ewald energy   TEWEN  =    -62509.70265403
  -Hartree energ DENC   =    -12624.36346638
  -exchange      EXHF   =         0.00000000
  -V(xc)+E(xc)   XCENC  =       391.07142281
  PAW double counting   =     51723.88885462   -52548.28121372
  entropy T*S    EENTRO =         0.08145497
  eigenvalues    EBANDS =      4213.79844147
  atomic energy  EATOM  =     64201.67088057
  Solvation  Ediel_sol  =         0.00000000
  ---------------------------------------------------
  free energy    TOTEN  =     -1014.72467076 eV

  energy without entropy =    -1014.80612573  energy(sigma->0) =    -1014.75182242


--------------------------------------------------------------------------------------------------------




--------------------------------------- Iteration      1(   5)  ---------------------------------------


     EDDAV:  cpu time   23.7068: real time   23.7142
       DOS:  cpu time    0.0030: real time    0.0030
    CHARGE:  cpu time    0.6952: real time    0.6953
    MIXING:  cpu time    0.0030: real time    0.0030
    --------------------------------------------
      LOOP:  cpu time   24.4079: real time   24.4155

 eigenvalue-minimisations  :  6720
 total energy-change (2. order) :-0.1731854E+02  (-0.1630605E+02)
 number of electron     864.0001347 magnetization 
 augmentation part      377.2975457 magnetization 

 Broyden mixing:
  rms(total) = 0.96934E+01    rms(broyden)= 0.96921E+01
  rms(prec ) = 0.12027E+02
  weight for this iteration     100.00

 Free energy of the ion-electron system (eV)
  ---------------------------------------------------
  alpha Z        PSCENC =      6137.11160893
  Ewald energy   TEWEN  =    -62509.70265403
  -Hartree energ DENC   =    -12624.36346638
  -exchange      EXHF   =         0.00000000
  -V(xc)+E(xc)   XCENC  =       391.07142281
  PAW double counting   =     51723.88885462   -52548.28121372
  entropy T*S    EENTRO =         0.05034169
  eigenvalues    EBANDS =      4196.51101611
  atomic energy  EATOM  =     64201.67088057
  Solvation  Ediel_sol  =         0.00000000
  ---------------------------------------------------
  free energy    TOTEN  =     -1032.04320940 eV

  energy without entropy =    -1032.09355108  energy(sigma->0) =    -1032.05998996


--------------------------------------------------------------------------------------------------------




--------------------------------------- Iteration      1(   6)  ---------------------------------------


    POTLOK:  cpu time    0.0928: real time    0.0931
    SETDIJ:  cpu time    0.0196: real time    0.0196
    EDDIAG:  cpu time    2.3763: real time    2.3766
  RMM-DIIS:  cpu time    8.5368: real time    8.5400
    ORTHCH:  cpu time    0.4907: real time    0.4907
       DOS:  cpu time    0.0034: real time    0.0034
    CHARGE:  cpu time    0.7007: real time    0.7008
    MIXING:  cpu time    0.0029: real time    0.0030
    --------------------------------------------
      LOOP:  cpu time   12.2233: real time   12.2272

 eigenvalue-minimisations  :  4178
 total energy-change (2. order) : 0.1750927E+03  (-0.1885039E+03)
 number of electron     864.0001575 magnetization 
 augmentation part      459.9896909 magnetization 

 Broyden mixing:
  rms(total) = 0.20938E+01    rms(broyden)= 0.20928E+01
  rms(prec ) = 0.24007E+01
  weight for this iteration     100.00

 eigenvalues of (default mixing * dielectric matrix)
  average eigenvalue GAMMA=   0.8335
  0.8335

 Free energy of the ion-electron system (eV)
  ---------------------------------------------------
  alpha Z        PSCENC =      6137.11160893
  Ewald energy   TEWEN  =    -62509.70265403
  -Hartree energ DENC   =    -10507.26243027
  -exchange      EXHF   =         0.00000000
  -V(xc)+E(xc)   XCENC  =       288.26802906
  PAW double counting   =     50250.69650233   -50760.57076263
  entropy T*S    EENTRO =        -0.04945656
  eigenvalues    EBANDS =      2042.88779694
  atomic energy  EATOM  =     64201.67088057
  Solvation  Ediel_sol  =         0.00000000
  ---------------------------------------------------
  free energy    TOTEN  =      -856.95048566 eV

  energy without entropy =     -856.90102910  energy(sigma->0) =     -856.93400014


--------------------------------------------------------------------------------------------------------




--------------------------------------- Iteration      1(   7)  ---------------------------------------


    POTLOK:  cpu time    0.0919: real time    0.0940
    SETDIJ:  cpu time    0.0196: real time    0.0196
    EDDIAG:  cpu time    2.3734: real time    2.3736
  RMM-DIIS:  cpu time    8.8880: real time    8.8891
    ORTHCH:  cpu time    0.4915: real time    0.4916
       DOS:  cpu time    0.0036: real time    0.0036
    CHARGE:  cpu time    0.6928: real time    0.6928
    MIXING:  cpu time    0.0030: real time    0.0029
    --------------------------------------------
      LOOP:  cpu time   12.5638: real time   12.5673

 eigenvalue-minimisations  :  4256
 total energy-change (2. order) : 0.3713575E+01  (-0.1612867E+02)
 number of electron     864.0001453 magnetization 
 augmentation part      447.1064080 magnetization 

 Broyden mixing:
  rms(total) = 0.49880E+00    rms(broyden)= 0.49673E+00
  rms(prec ) = 0.64889E+00
  weight for this iteration     100.00

 eigenvalues of (default mixing * dielectric matrix)
  average eigenvalue GAMMA=   0.9207
  0.9524  0.8889

 Free energy of the ion-electron system (eV)
  ---------------------------------------------------
  alpha Z        PSCENC =      6137.11160893
  Ewald energy   TEWEN  =    -62509.70265403
  -Hartree energ DENC   =    -10776.81297158
  -exchange      EXHF   =         0.00000000
  -V(xc)+E(xc)   XCENC  =       304.23434846
  PAW double counting   =     51650.37884419   -52378.20619083
  entropy T*S    EENTRO =        -0.04497370
  eigenvalues    EBANDS =      2518.13419740
  atomic energy  EATOM  =     64201.67088057
  Solvation  Ediel_sol  =         0.00000000
  ---------------------------------------------------
  free energy    TOTEN  =      -853.23691058 eV

  energy without entropy =     -853.19193688  energy(sigma->0) =     -853.22191935


--------------------------------------------------------------------------------------------------------




--------------------------------------- Iteration      1(   8)  ---------------------------------------


    POTLOK:  cpu time    0.0918: real time    0.0930
    SETDIJ:  cpu time    0.0196: real time    0.0196
    EDDIAG:  cpu time    2.3676: real time    2.3679
  RMM-DIIS:  cpu time   11.2488: real time   11.2503
    ORTHCH:  cpu time    0.4934: real time    0.4937
       DOS:  cpu time    0.0034: real time    0.0034
    CHARGE:  cpu time    0.6949: real time    0.6950
    MIXING:  cpu time    0.0031: real time    0.0031
    --------------------------------------------
      LOOP:  cpu time   14.9226: real time   14.9259

 eigenvalue-minimisations  :  5541
 total energy-change (2. order) :-0.6525936E+01  (-0.4469714E+01)
 number of electron     864.0001439 magnetization 
 augmentation part      449.6445965 magnetization 

 Broyden mixing:
  rms(total) = 0.30787E+01    rms(broyden)= 0.30779E+01
  rms(prec ) = 0.43913E+01
  weight for this iteration     100.00

 eigenvalues of (default mixing * dielectric matrix)
  average eigenvalue GAMMA=   0.7707
  1.3623  0.8568  0.0930

 Free energy of the ion-electron system (eV)
  ---------------------------------------------------
  alpha Z        PSCENC =      6137.11160893
  Ewald energy   TEWEN  =    -62509.70265403
  -Hartree energ DENC   =    -10768.08500194
  -exchange      EXHF   =         0.00000000
  -V(xc)+E(xc)   XCENC  =       304.74362379
  PAW double counting   =     52415.69609631   -53205.85977637
  entropy T*S    EENTRO =        -0.05995830
  eigenvalues    EBANDS =      2564.72233408
  atomic energy  EATOM  =     64201.67088057
  Solvation  Ediel_sol  =         0.00000000
  ---------------------------------------------------
  free energy    TOTEN  =      -859.76284696 eV

  energy without entropy =     -859.70288866  energy(sigma->0) =     -859.74286086


--------------------------------------------------------------------------------------------------------




--------------------------------------- Iteration      1(   9)  ---------------------------------------


    POTLOK:  cpu time    0.0916: real time    0.0932
    SETDIJ:  cpu time    0.0196: real time    0.0196
    EDDIAG:  cpu time    2.3691: real time    2.3697
  RMM-DIIS:  cpu time    9.0931: real time    9.1041
    ORTHCH:  cpu time    0.4901: real time    0.4901
       DOS:  cpu time    0.0034: real time    0.0034
    CHARGE:  cpu time    0.6980: real time    0.6981
    MIXING:  cpu time    0.0032: real time    0.0032
    --------------------------------------------
      LOOP:  cpu time   12.7681: real time   12.7814

 eigenvalue-minimisations  :  4463
 total energy-change (2. order) : 0.4986098E+01  (-0.7730621E+00)
 number of electron     864.0001451 magnetization 
 augmentation part      447.9281091 magnetization 

 Broyden mixing:
  rms(total) = 0.86240E+00    rms(broyden)= 0.86017E+00
  rms(prec ) = 0.12520E+01
  weight for this iteration     100.00

 eigenvalues of (default mixing * dielectric matrix)
  average eigenvalue GAMMA=   0.6042
  1.3733  0.8574  0.0930  0.0930

 Free energy of the ion-electron system (eV)
  ---------------------------------------------------
  alpha Z        PSCENC =      6137.11160893
  Ewald energy   TEWEN  =    -62509.70265403
  -Hartree energ DENC   =    -10768.83583160
  -exchange      EXHF   =         0.00000000
  -V(xc)+E(xc)   XCENC  =       305.43458020
  PAW double counting   =     52997.63539611   -53832.42932874
  entropy T*S    EENTRO =        -0.02488075
  eigenvalues    EBANDS =      2614.36348015
  atomic energy  EATOM  =     64201.67088057
  Solvation  Ediel_sol  =         0.00000000
  ---------------------------------------------------
  free energy    TOTEN  =      -854.77674915 eV

  energy without entropy =     -854.75186840  energy(sigma->0) =     -854.76845557


--------------------------------------------------------------------------------------------------------




--------------------------------------- Iteration      1(  10)  ---------------------------------------


    POTLOK:  cpu time    0.0922: real time    0.0937
    SETDIJ:  cpu time    0.0196: real time    0.0196
    EDDIAG:  cpu time    2.3706: real time    2.3713
  RMM-DIIS:  cpu time   12.8395: real time   12.8412
    ORTHCH:  cpu time    0.4932: real time    0.4932
       DOS:  cpu time    0.0033: real time    0.0033
    CHARGE:  cpu time    0.6954: real time    0.6955
    MIXING:  cpu time    0.0037: real time    0.0037
    --------------------------------------------
      LOOP:  cpu time   16.5175: real time   16.5214

 eigenvalue-minimisations  :  6343
 total energy-change (2. order) :-0.1129116E+00  (-0.4976841E+00)
 number of electron     864.0001450 magnetization 
 augmentation part      447.8776715 magnetization 

 Broyden mixing:
  rms(total) = 0.19549E+00    rms(broyden)= 0.19446E+00
  rms(prec ) = 0.26635E+00
  weight for this iteration     100.00

 eigenvalues of (default mixing * dielectric matrix)
  average eigenvalue GAMMA=   0.7696
  1.4216  1.4216  0.8362  0.0842  0.0842

 Free energy of the ion-electron system (eV)
  ---------------------------------------------------
  alpha Z        PSCENC =      6137.11160893
  Ewald energy   TEWEN  =    -62509.70265403
  -Hartree energ DENC   =    -10769.47312186
  -exchange      EXHF   =         0.00000000
  -V(xc)+E(xc)   XCENC  =       305.49784453
  PAW double counting   =     53057.94999970   -53895.71894670
  entropy T*S    EENTRO =        -0.02524143
  eigenvalues    EBANDS =      2617.79996955
  atomic energy  EATOM  =     64201.67088057
  Solvation  Ediel_sol  =         0.00000000
  ---------------------------------------------------
  free energy    TOTEN  =      -854.88966074 eV

  energy without entropy =     -854.86441931  energy(sigma->0) =     -854.88124693


--------------------------------------------------------------------------------------------------------




--------------------------------------- Iteration      1(  11)  ---------------------------------------


    POTLOK:  cpu time    0.0922: real time    0.0936
    SETDIJ:  cpu time    0.0196: real time    0.0196
    EDDIAG:  cpu time    2.3736: real time    2.3739
  RMM-DIIS:  cpu time    9.5971: real time    9.6008
    ORTHCH:  cpu time    0.4950: real time    0.4951
       DOS:  cpu time    0.0032: real time    0.0032
    CHARGE:  cpu time    0.7019: real time    0.7020
    MIXING:  cpu time    0.0034: real time    0.0034
    --------------------------------------------
      LOOP:  cpu time   13.2861: real time   13.2917

 eigenvalue-minimisations  :  4704
 total energy-change (2. order) :-0.1408442E-01  (-0.1047664E+00)
 number of electron     864.0001446 magnetization 
 augmentation part      446.6869341 magnetization 

 Broyden mixing:
  rms(total) = 0.38081E+00    rms(broyden)= 0.38065E+00
  rms(prec ) = 0.54145E+00
  weight for this iteration     100.00

 eigenvalues of (default mixing * dielectric matrix)
  average eigenvalue GAMMA=   0.6932
  1.6548  1.3820  0.8414  0.0816  0.0899  0.1095

 Free energy of the ion-electron system (eV)
  ---------------------------------------------------
  alpha Z        PSCENC =      6137.11160893
  Ewald energy   TEWEN  =    -62509.70265403
  -Hartree energ DENC   =    -10781.07963206
  -exchange      EXHF   =         0.00000000
  -V(xc)+E(xc)   XCENC  =       306.39094211
  PAW double counting   =     53693.61283698   -54554.10920172
  entropy T*S    EENTRO =        -0.01606501
  eigenvalues    EBANDS =      2651.21753908
  atomic energy  EATOM  =     64201.67088057
  Solvation  Ediel_sol  =         0.00000000
  ---------------------------------------------------
  free energy    TOTEN  =      -854.90374516 eV

  energy without entropy =     -854.88768014  energy(sigma->0) =     -854.89839015


--------------------------------------------------------------------------------------------------------




--------------------------------------- Iteration      1(  12)  ---------------------------------------


    POTLOK:  cpu time    0.0916: real time    0.0917
    SETDIJ:  cpu time    0.0197: real time    0.0197
    EDDIAG:  cpu time    2.3759: real time    2.3763
  RMM-DIIS:  cpu time   12.0530: real time   12.0581
    ORTHCH:  cpu time    0.4925: real time    0.4925
       DOS:  cpu time    0.0036: real time    0.0036
    CHARGE:  cpu time    0.6979: real time    0.6980
    MIXING:  cpu time    0.0036: real time    0.0036
    --------------------------------------------
      LOOP:  cpu time   15.7377: real time   15.7434

 eigenvalue-minimisations  :  5917
 total energy-change (2. order) :-0.1503569E-01  (-0.7754623E-01)
 number of electron     864.0001445 magnetization 
 augmentation part      446.3205520 magnetization 

 Broyden mixing:
  rms(total) = 0.23837E+00    rms(broyden)= 0.23809E+00
  rms(prec ) = 0.33291E+00
  weight for this iteration     100.00

 eigenvalues of (default mixing * dielectric matrix)
  average eigenvalue GAMMA=   0.8367
  2.4832  1.1925  1.1526  0.7736  0.0923  0.0814  0.0814

 Free energy of the ion-electron system (eV)
  ---------------------------------------------------
  alpha Z        PSCENC =      6137.11160893
  Ewald energy   TEWEN  =    -62509.70265403
  -Hartree energ DENC   =    -10781.35105502
  -exchange      EXHF   =         0.00000000
  -V(xc)+E(xc)   XCENC  =       306.45864294
  PAW double counting   =     53810.51719057   -54674.56663281
  entropy T*S    EENTRO =        -0.01125625
  eigenvalues    EBANDS =      2654.95449425
  atomic energy  EATOM  =     64201.67088057
  Solvation  Ediel_sol  =         0.00000000
  ---------------------------------------------------
  free energy    TOTEN  =      -854.91878085 eV

  energy without entropy =     -854.90752460  energy(sigma->0) =     -854.91502877


--------------------------------------------------------------------------------------------------------




--------------------------------------- Iteration      1(  13)  ---------------------------------------


    POTLOK:  cpu time    0.0917: real time    0.0933
    SETDIJ:  cpu time    0.0196: real time    0.0196
    EDDIAG:  cpu time    2.3763: real time    2.3767
  RMM-DIIS:  cpu time    9.8185: real time    9.8198
    ORTHCH:  cpu time    0.4923: real time    0.4924
       DOS:  cpu time    0.0033: real time    0.0034
    CHARGE:  cpu time    0.7030: real time    0.7031
    MIXING:  cpu time    0.0037: real time    0.0037
    --------------------------------------------
      LOOP:  cpu time   13.5086: real time   13.5120

 eigenvalue-minimisations  :  4791
 total energy-change (2. order) : 0.4198461E-01  (-0.1566788E-01)
 number of electron     864.0001447 magnetization 
 augmentation part      446.8737050 magnetization 

 Broyden mixing:
  rms(total) = 0.53065E-01    rms(broyden)= 0.52666E-01
  rms(prec ) = 0.72096E-01
  weight for this iteration     100.00

 eigenvalues of (default mixing * dielectric matrix)
  average eigenvalue GAMMA=   0.8791
  2.5351  1.2368  1.2368  0.9777  0.7916  0.0923  0.0812  0.0812

 Free energy of the ion-electron system (eV)
  ---------------------------------------------------
  alpha Z        PSCENC =      6137.11160893
  Ewald energy   TEWEN  =    -62509.70265403
  -Hartree energ DENC   =    -10758.48303839
  -exchange      EXHF   =         0.00000000
  -V(xc)+E(xc)   XCENC  =       305.54520456
  PAW double counting   =     54187.00981230   -55056.73833178
  entropy T*S    EENTRO =        -0.01354259
  eigenvalues    EBANDS =      2638.72326419
  atomic energy  EATOM  =     64201.67088057
  Solvation  Ediel_sol  =         0.00000000
  ---------------------------------------------------
  free energy    TOTEN  =      -854.87679623 eV

  energy without entropy =     -854.86325364  energy(sigma->0) =     -854.87228204


--------------------------------------------------------------------------------------------------------




--------------------------------------- Iteration      1(  14)  ---------------------------------------


    POTLOK:  cpu time    0.0919: real time    0.0942
    SETDIJ:  cpu time    0.0196: real time    0.0196
    EDDIAG:  cpu time    2.3716: real time    2.3725
  RMM-DIIS:  cpu time   11.7048: real time   11.7063
    ORTHCH:  cpu time    0.4916: real time    0.4917
       DOS:  cpu time    0.0034: real time    0.0034
    CHARGE:  cpu time    0.6983: real time    0.6983
    MIXING:  cpu time    0.0042: real time    0.0042
    --------------------------------------------
      LOOP:  cpu time   15.3854: real time   15.3903

 eigenvalue-minimisations  :  5734
 total energy-change (2. order) :-0.6650437E-02  (-0.1003830E-01)
 number of electron     864.0001447 magnetization 
 augmentation part      447.2624739 magnetization 

 Broyden mixing:
  rms(total) = 0.27762E-01    rms(broyden)= 0.27741E-01
  rms(prec ) = 0.34972E-01
  weight for this iteration     100.00

 eigenvalues of (default mixing * dielectric matrix)
  average eigenvalue GAMMA=   0.9213
  2.6038  1.7249  1.0590  1.0590  0.7952  0.7952  0.0923  0.0812  0.0812

 Free energy of the ion-electron system (eV)
  ---------------------------------------------------
  alpha Z        PSCENC =      6137.11160893
  Ewald energy   TEWEN  =    -62509.70265403
  -Hartree energ DENC   =    -10753.61348097
  -exchange      EXHF   =         0.00000000
  -V(xc)+E(xc)   XCENC  =       305.32471597
  PAW double counting   =     54211.44352635   -55079.92319252
  entropy T*S    EENTRO =        -0.01256348
  eigenvalues    EBANDS =      2632.81771249
  atomic energy  EATOM  =     64201.67088057
  Solvation  Ediel_sol  =         0.00000000
  ---------------------------------------------------
  free energy    TOTEN  =      -854.88344667 eV

  energy without entropy =     -854.87088319  energy(sigma->0) =     -854.87925884


--------------------------------------------------------------------------------------------------------




--------------------------------------- Iteration      1(  15)  ---------------------------------------


    POTLOK:  cpu time    0.0923: real time    0.0926
    SETDIJ:  cpu time    0.0196: real time    0.0196
    EDDIAG:  cpu time    2.3707: real time    2.3709
  RMM-DIIS:  cpu time   10.6601: real time   10.6615
    ORTHCH:  cpu time    0.4937: real time    0.4937
       DOS:  cpu time    0.0035: real time    0.0035
    CHARGE:  cpu time    0.7107: real time    0.7126
    MIXING:  cpu time    0.0040: real time    0.0040
    --------------------------------------------
      LOOP:  cpu time   14.3545: real time   14.3585

 eigenvalue-minimisations  :  5241
 total energy-change (2. order) : 0.6307111E-03  (-0.1170018E-02)
 number of electron     864.0001447 magnetization 
 augmentation part      447.1616318 magnetization 

 Broyden mixing:
  rms(total) = 0.10327E-01    rms(broyden)= 0.10324E-01
  rms(prec ) = 0.13020E-01
  weight for this iteration     100.00

 eigenvalues of (default mixing * dielectric matrix)
  average eigenvalue GAMMA=   1.0135
  2.4803  2.4803  1.1812  1.1812  0.9782  0.7894  0.7894  0.0923  0.0812  0.0812

 Free energy of the ion-electron system (eV)
  ---------------------------------------------------
  alpha Z        PSCENC =      6137.11160893
  Ewald energy   TEWEN  =    -62509.70265403
  -Hartree energ DENC   =    -10757.85333303
  -exchange      EXHF   =         0.00000000
  -V(xc)+E(xc)   XCENC  =       305.51997521
  PAW double counting   =     54230.29074811   -55098.24837324
  entropy T*S    EENTRO =        -0.01004553
  eigenvalues    EBANDS =      2636.33837703
  atomic energy  EATOM  =     64201.67088057
  Solvation  Ediel_sol  =         0.00000000
  ---------------------------------------------------
  free energy    TOTEN  =      -854.88281596 eV

  energy without entropy =     -854.87277043  energy(sigma->0) =     -854.87946745


--------------------------------------------------------------------------------------------------------




--------------------------------------- Iteration      1(  16)  ---------------------------------------


    POTLOK:  cpu time    0.0916: real time    0.0926
    SETDIJ:  cpu time    0.0196: real time    0.0196
    EDDIAG:  cpu time    2.3635: real time    2.3638
  RMM-DIIS:  cpu time   10.8769: real time   10.8784
    ORTHCH:  cpu time    0.4941: real time    0.4942
       DOS:  cpu time    0.0039: real time    0.0039
    CHARGE:  cpu time    0.7007: real time    0.7007
    MIXING:  cpu time    0.0041: real time    0.0041
    --------------------------------------------
      LOOP:  cpu time   14.5545: real time   14.5574

 eigenvalue-minimisations  :  5312
 total energy-change (2. order) : 0.3242060E-04  (-0.4718776E-03)
 number of electron     864.0001447 magnetization 
 augmentation part      447.0645672 magnetization 

 Broyden mixing:
  rms(total) = 0.60645E-02    rms(broyden)= 0.60630E-02
  rms(prec ) = 0.79083E-02
  weight for this iteration     100.00

 eigenvalues of (default mixing * dielectric matrix)
  average eigenvalue GAMMA=   1.0398
  2.5927  2.2943  1.5612  1.0833  1.0833  0.8881  0.8881  0.7915  0.0812  0.0812
  0.0923

 Free energy of the ion-electron system (eV)
  ---------------------------------------------------
  alpha Z        PSCENC =      6137.11160893
  Ewald energy   TEWEN  =    -62509.70265403
  -Hartree energ DENC   =    -10761.11046401
  -exchange      EXHF   =         0.00000000
  -V(xc)+E(xc)   XCENC  =       305.66178295
  PAW double counting   =     54232.67532087   -55099.84122055
  entropy T*S    EENTRO =        -0.00811750
  eigenvalues    EBANDS =      2638.66007923
  atomic energy  EATOM  =     64201.67088057
  Solvation  Ediel_sol  =         0.00000000
  ---------------------------------------------------
  free energy    TOTEN  =      -854.88278354 eV

  energy without entropy =     -854.87466604  energy(sigma->0) =     -854.88007771


--------------------------------------------------------------------------------------------------------




--------------------------------------- Iteration      1(  17)  ---------------------------------------


    POTLOK:  cpu time    0.0920: real time    0.0936
    SETDIJ:  cpu time    0.0197: real time    0.0197
    EDDIAG:  cpu time    2.3636: real time    2.3640
  RMM-DIIS:  cpu time   12.0221: real time   12.0236
    ORTHCH:  cpu time    0.4953: real time    0.4954
       DOS:  cpu time    0.0036: real time    0.0036
    CHARGE:  cpu time    0.7079: real time    0.7079
    MIXING:  cpu time    0.0044: real time    0.0044
    --------------------------------------------
      LOOP:  cpu time   15.7085: real time   15.7122

 eigenvalue-minimisations  :  5941
[...]
   0.253E-01 0.252E-01 0.143E-04   -.261E-01 -.258E-01 -.277E-04   0.215E-03 0.215E-03 -.461E-20   -.208E-04 -.208E-04 -.109E-08
   -.255E-01 -.143E-04 0.143E-04   0.261E-01 0.277E-04 -.277E-04   -.241E-03 -.463E-22 0.794E-21   0.264E-03 0.109E-08 -.109E-08
   -.254E-01 0.253E-01 -.253E-01   0.261E-01 -.258E-01 0.258E-01   -.231E-03 0.231E-03 -.231E-03   0.161E-03 -.161E-03 0.161E-03
   -.143E-04 -.252E-01 -.252E-01   0.277E-04 0.258E-01 0.258E-01   -.291E-20 -.215E-03 -.215E-03   0.109E-08 0.208E-04 0.208E-04
   -.143E-04 0.143E-04 0.143E-04   0.277E-04 -.277E-04 -.277E-04   0.624E-26 0.132E-22 0.132E-22   0.109E-08 -.109E-08 -.109E-08
   0.252E-01 -.252E-01 0.143E-04   -.258E-01 0.258E-01 -.277E-04   0.215E-03 -.215E-03 -.860E-21   -.208E-04 0.208E-04 -.109E-08
   0.252E-01 0.143E-04 -.252E-01   -.258E-01 -.277E-04 0.258E-01   0.215E-03 0.124E-20 -.215E-03   -.208E-04 -.109E-08 0.208E-04
   -.253E-01 -.253E-01 -.253E-01   0.258E-01 0.258E-01 0.258E-01   -.231E-03 -.231E-03 -.231E-03   0.161E-03 0.161E-03 0.161E-03
   -.254E-01 0.143E-04 0.143E-04   0.258E-01 -.277E-04 -.277E-04   -.241E-03 0.111E-20 0.371E-21   0.264E-03 -.109E-08 -.109E-08
   0.143E-04 -.254E-01 0.143E-04   -.277E-04 0.258E-01 -.277E-04   -.237E-20 -.241E-03 0.146E-20   -.109E-08 0.264E-03 -.109E-08
   0.143E-04 0.143E-04 -.254E-01   -.277E-04 -.277E-04 0.258E-01   -.662E-21 -.241E-20 -.241E-03   -.109E-08 -.109E-08 0.264E-03
   0.254E-01 -.253E-01 -.253E-01   -.261E-01 0.258E-01 0.258E-01   0.231E-03 -.231E-03 -.231E-03   -.161E-03 0.161E-03 0.161E-03
   0.255E-01 0.143E-04 0.143E-04   -.261E-01 -.277E-04 -.277E-04   0.241E-03 -.144E-20 -.123E-20   -.264E-03 -.109E-08 -.109E-08
   -.253E-01 -.252E-01 0.142E-04   0.261E-01 0.258E-01 -.277E-04   -.215E-03 -.215E-03 0.429E-20   0.208E-04 0.208E-04 -.109E-08
   -.253E-01 0.143E-04 -.252E-01   0.261E-01 -.277E-04 0.258E-01   -.215E-03 -.752E-20 -.215E-03   0.208E-04 -.109E-08 0.208E-04
   -.143E-04 0.253E-01 -.252E-01   0.277E-04 -.261E-01 0.258E-01   -.167E-20 0.215E-03 -.215E-03   0.109E-08 -.208E-04 0.208E-04
   -.143E-04 -.255E-01 0.143E-04   0.277E-04 0.261E-01 -.277E-04   -.320E-20 -.241E-03 0.609E-21   0.109E-08 0.264E-03 -.109E-08
   0.252E-01 0.253E-01 0.143E-04   -.258E-01 -.261E-01 -.277E-04   0.215E-03 0.215E-03 -.408E-20   -.208E-04 -.208E-04 -.109E-08
   0.253E-01 -.254E-01 -.253E-01   -.258E-01 0.261E-01 0.258E-01   0.231E-03 -.231E-03 -.231E-03   -.161E-03 0.161E-03 0.161E-03
   -.253E-01 0.254E-01 -.253E-01   0.258E-01 -.261E-01 0.258E-01   -.231E-03 0.231E-03 -.231E-03   0.161E-03 -.161E-03 0.161E-03
   -.252E-01 -.253E-01 0.142E-04   0.258E-01 0.261E-01 -.277E-04   -.215E-03 -.215E-03 0.376E-20   0.208E-04 0.208E-04 -.109E-08
   0.143E-04 0.255E-01 0.143E-04   -.277E-04 -.261E-01 -.277E-04   0.172E-20 0.241E-03 0.139E-21   -.109E-08 -.264E-03 -.109E-08
   0.143E-04 -.253E-01 -.252E-01   -.277E-04 0.261E-01 0.258E-01   -.299E-20 -.215E-03 -.215E-03   -.109E-08 0.208E-04 0.208E-04
   0.254E-01 0.254E-01 -.253E-01   -.261E-01 -.261E-01 0.258E-01   0.231E-03 0.231E-03 -.231E-03   -.161E-03 -.161E-03 0.161E-03
   0.253E-01 -.253E-01 0.143E-04   -.261E-01 0.261E-01 -.277E-04   0.215E-03 -.215E-03 -.834E-21   -.208E-04 0.208E-04 -.109E-08
   -.253E-01 0.253E-01 0.143E-04   0.261E-01 -.261E-01 -.277E-04   -.215E-03 0.215E-03 0.874E-21   0.208E-04 -.208E-04 -.109E-08
   -.254E-01 -.254E-01 -.253E-01   0.261E-01 0.261E-01 0.258E-01   -.231E-03 -.231E-03 -.231E-03   0.161E-03 0.161E-03 0.161E-03
   -.143E-04 -.143E-04 0.255E-01   0.277E-04 0.277E-04 -.261E-01   0.163E-20 0.257E-20 0.241E-03   0.109E-08 0.109E-08 -.264E-03
   -.143E-04 0.252E-01 -.253E-01   0.277E-04 -.258E-01 0.261E-01   -.185E-20 0.215E-03 -.215E-03   0.109E-08 -.208E-04 0.208E-04
   0.252E-01 -.143E-04 -.253E-01   -.258E-01 0.277E-04 0.261E-01   0.215E-03 0.164E-20 -.215E-03   -.208E-04 0.109E-08 0.208E-04
   0.253E-01 0.253E-01 0.254E-01   -.258E-01 -.258E-01 -.261E-01   0.231E-03 0.231E-03 0.231E-03   -.161E-03 -.161E-03 -.161E-03
   -.252E-01 -.143E-04 0.253E-01   0.258E-01 0.277E-04 -.261E-01   -.215E-03 -.291E-21 0.215E-03   0.208E-04 0.109E-08 -.208E-04
   -.253E-01 0.253E-01 -.254E-01   0.258E-01 -.258E-01 0.261E-01   -.231E-03 0.231E-03 -.231E-03   0.161E-03 -.161E-03 0.161E-03
   0.143E-04 -.143E-04 -.255E-01   -.277E-04 0.277E-04 0.261E-01   -.147E-20 -.230E-20 -.241E-03   -.109E-08 0.109E-08 0.264E-03
   0.143E-04 0.252E-01 0.253E-01   -.277E-04 -.258E-01 -.261E-01   0.101E-20 0.215E-03 0.215E-03   -.109E-08 -.208E-04 -.208E-04
   0.253E-01 -.143E-04 0.253E-01   -.261E-01 0.277E-04 -.261E-01   0.215E-03 0.699E-20 0.215E-03   -.208E-04 0.109E-08 -.208E-04
   0.254E-01 0.253E-01 -.254E-01   -.261E-01 -.258E-01 0.261E-01   0.231E-03 0.231E-03 -.231E-03   -.161E-03 -.161E-03 0.161E-03
   -.253E-01 -.143E-04 -.253E-01   0.261E-01 0.277E-04 0.261E-01   -.215E-03 -.712E-20 -.215E-03   0.208E-04 0.109E-08 0.208E-04
   -.254E-01 0.253E-01 0.254E-01   0.261E-01 -.258E-01 -.261E-01   -.231E-03 0.231E-03 0.231E-03   0.161E-03 -.161E-03 -.161E-03
   -.143E-04 -.252E-01 0.253E-01   0.277E-04 0.258E-01 -.261E-01   0.107E-20 -.215E-03 0.215E-03   0.109E-08 0.208E-04 -.208E-04
   -.143E-04 0.143E-04 -.255E-01   0.277E-04 -.277E-04 0.261E-01   -.318E-21 -.130E-20 -.241E-03   0.109E-08 -.109E-08 0.264E-03
   0.253E-01 -.253E-01 -.254E-01   -.258E-01 0.258E-01 0.261E-01   0.231E-03 -.231E-03 -.231E-03   -.161E-03 0.161E-03 0.161E-03
   0.252E-01 0.143E-04 0.253E-01   -.258E-01 -.277E-04 -.261E-01   0.215E-03 0.656E-20 0.215E-03   -.208E-04 -.109E-08 -.208E-04
   -.253E-01 -.253E-01 0.254E-01   0.258E-01 0.258E-01 -.261E-01   -.231E-03 -.231E-03 0.231E-03   0.161E-03 0.161E-03 -.161E-03
   -.252E-01 0.143E-04 -.253E-01   0.258E-01 -.277E-04 0.261E-01   -.215E-03 -.672E-20 -.215E-03   0.208E-04 -.109E-08 0.208E-04
   0.143E-04 -.252E-01 -.253E-01   -.277E-04 0.258E-01 0.261E-01   -.296E-20 -.215E-03 -.215E-03   -.109E-08 0.208E-04 0.208E-04
   0.143E-04 0.143E-04 0.255E-01   -.277E-04 -.277E-04 -.261E-01   0.926E-21 0.252E-20 0.241E-03   -.109E-08 -.109E-08 -.264E-03
   0.254E-01 -.253E-01 0.254E-01   -.261E-01 0.258E-01 -.261E-01   0.231E-03 -.231E-03 0.231E-03   -.161E-03 0.161E-03 -.161E-03
   0.253E-01 0.143E-04 -.253E-01   -.261E-01 -.277E-04 0.261E-01   0.215E-03 0.105E-20 -.215E-03   -.208E-04 -.109E-08 0.208E-04
   -.254E-01 -.253E-01 -.254E-01   0.261E-01 0.258E-01 0.261E-01   -.231E-03 -.231E-03 -.231E-03   0.161E-03 0.161E-03 0.161E-03
   -.253E-01 0.143E-04 0.253E-01   0.261E-01 -.277E-04 -.261E-01   -.215E-03 -.156E-20 0.215E-03   0.208E-04 -.109E-08 -.208E-04
   -.143E-04 0.253E-01 0.253E-01   0.277E-04 -.261E-01 -.261E-01   0.278E-20 0.215E-03 0.215E-03   0.109E-08 -.208E-04 -.208E-04
   -.143E-04 -.253E-01 -.253E-01   0.277E-04 0.261E-01 0.261E-01   -.355E-20 -.215E-03 -.215E-03   0.109E-08 0.208E-04 0.208E-04
   0.253E-01 0.254E-01 -.254E-01   -.258E-01 -.261E-01 0.261E-01   0.231E-03 0.231E-03 -.231E-03   -.161E-03 -.161E-03 0.161E-03
   0.253E-01 -.254E-01 0.254E-01   -.258E-01 0.261E-01 -.261E-01   0.231E-03 -.231E-03 0.231E-03   -.161E-03 0.161E-03 -.161E-03
   -.253E-01 0.254E-01 0.254E-01   0.258E-01 -.261E-01 -.261E-01   -.231E-03 0.231E-03 0.231E-03   0.161E-03 -.161E-03 -.161E-03
   -.253E-01 -.254E-01 -.254E-01   0.258E-01 0.261E-01 0.261E-01   -.231E-03 -.231E-03 -.231E-03   0.161E-03 0.161E-03 0.161E-03
   0.143E-04 0.253E-01 -.253E-01   -.277E-04 -.261E-01 0.261E-01   -.177E-20 0.215E-03 -.215E-03   -.109E-08 -.208E-04 0.208E-04
   0.143E-04 -.253E-01 0.253E-01   -.277E-04 0.261E-01 -.261E-01   0.236E-20 -.215E-03 0.215E-03   -.109E-08 0.208E-04 -.208E-04
   0.254E-01 0.254E-01 0.254E-01   -.261E-01 -.261E-01 -.261E-01   0.231E-03 0.231E-03 0.231E-03   -.161E-03 -.161E-03 -.161E-03
   0.254E-01 -.254E-01 -.254E-01   -.261E-01 0.261E-01 0.261E-01   0.231E-03 -.231E-03 -.231E-03   -.161E-03 0.161E-03 0.161E-03
   -.254E-01 0.254E-01 -.254E-01   0.261E-01 -.261E-01 0.261E-01   -.231E-03 0.231E-03 -.231E-03   0.161E-03 -.161E-03 0.161E-03
   -.254E-01 -.254E-01 0.254E-01   0.261E-01 0.261E-01 -.261E-01   -.231E-03 -.231E-03 0.231E-03   0.161E-03 0.161E-03 -.161E-03
 -----------------------------------------------------------------------------------------------
   0.431E-10 0.102E-09 0.668E-10   -.171E-12 -.206E-12 0.349E-12   0.000E+00 0.000E+00 0.108E-18   -.341E-12 -.109E-12 -.209E-11
 
 
 POSITION                                       TOTAL-FORCE (eV/Angst)
 -----------------------------------------------------------------------------------
      0.00000     -0.00000      0.00000        -0.000000      0.000000     -0.000000
     -0.00000      1.72321      1.72321        -0.000000     -0.000511     -0.000511
      1.72321     -0.00000      1.72321        -0.000511      0.000000     -0.000511
      1.72321      1.72321      0.00000        -0.000511     -0.000511     -0.000000
      3.44633      0.00000      0.00000         0.000497      0.000000     -0.000000
      3.44633      1.72321      1.72321         0.000503     -0.000503     -0.000503
      5.16954      0.00000      1.72321        -0.000000      0.000000     -0.000497
      5.16954      1.72321      0.00000        -0.000000     -0.000497     -0.000000
      6.89275      0.00000      0.00000        -0.000497      0.000000     -0.000000
      6.89275      1.72321      1.72321        -0.000503     -0.000503     -0.000503
      8.61587      0.00000      1.72321         0.000511      0.000000     -0.000511
      8.61587      1.72321      0.00000         0.000511     -0.000511     -0.000000
     -0.00000      3.44633      0.00000        -0.000000      0.000497     -0.000000
     -0.00000      5.16954      1.72321        -0.000000      0.000000     -0.000497
      1.72321      3.44633      1.72321        -0.000503      0.000503     -0.000503
      1.72321      5.16954      0.00000        -0.000497      0.000000     -0.000000
      3.44633      3.44633      0.00000         0.000511      0.000511     -0.000000
      3.44633      5.16954      1.72321         0.000511      0.000000     -0.000511
      5.16954      3.44633      1.72321        -0.000000      0.000511     -0.000511
      5.16954      5.16954      0.00000        -0.000000      0.000000     -0.000000
      6.89275      3.44633      0.00000        -0.000511      0.000511     -0.000000
      6.89275      5.16954      1.72321        -0.000511      0.000000     -0.000511
      8.61587      3.44633      1.72321         0.000503      0.000503     -0.000503
      8.61587      5.16954      0.00000         0.000497      0.000000     -0.000000
     -0.00000      6.89275      0.00000        -0.000000     -0.000497     -0.000000
     -0.00000      8.61587      1.72321        -0.000000      0.000511     -0.000511
      1.72321      6.89275      1.72321        -0.000503     -0.000503     -0.000503
      1.72321      8.61587      0.00000        -0.000511      0.000511     -0.000000
      3.44633      6.89275      0.00000         0.000511     -0.000511     -0.000000
      3.44633      8.61587      1.72321         0.000503      0.000503     -0.000503
      5.16954      6.89275      1.72321        -0.000000     -0.000511     -0.000511
      5.16954      8.61587      0.00000        -0.000000      0.000497     -0.000000
      6.89275      6.89275      0.00000        -0.000511     -0.000511     -0.000000
      6.89275      8.61587      1.72321        -0.000503      0.000503     -0.000503
      8.61587      6.89275      1.72321         0.000503     -0.000503     -0.000503
      8.61587      8.61587      0.00000         0.000511      0.000511     -0.000000
     -0.00000     -0.00000      3.44633        -0.000000      0.000000      0.000497
     -0.00000      1.72321      5.16954        -0.000000     -0.000497     -0.000000
      1.72321     -0.00000      5.16954        -0.000497      0.000000     -0.000000
      1.72321      1.72321      3.44633        -0.000503     -0.000503      0.000503
      3.44633     -0.00000      3.44633         0.000511      0.000000      0.000511
      3.44633      1.72321      5.16954         0.000511     -0.000511     -0.000000
      5.16954     -0.00000      5.16954        -0.000000      0.000000     -0.000000
      5.16954      1.72321      3.44633        -0.000000     -0.000511      0.000511
      6.89275      0.00000      3.44633        -0.000511      0.000000      0.000511
      6.89275      1.72321      5.16954        -0.000511     -0.000511     -0.000000
      8.61587      0.00000      5.16954         0.000497      0.000000     -0.000000
      8.61587      1.72321      3.44633         0.000503     -0.000503      0.000503
     -0.00000      3.44633      3.44633        -0.000000      0.000511      0.000511
     -0.00000      5.16954      5.16954        -0.000000      0.000000     -0.000000
      1.72321      3.44633      5.16954        -0.000511      0.000511     -0.000000
      1.72321      5.16954      3.44633        -0.000511      0.000000      0.000511
      3.44633      3.44633      3.44633         0.000503      0.000503      0.000503
      3.44633      5.16954      5.16954         0.000497      0.000000     -0.000000
      5.16954      3.44633      5.16954        -0.000000      0.000497     -0.000000
      5.16954      5.16954      3.44633        -0.000000      0.000000      0.000497
      6.89275      3.44633      3.44633        -0.000503      0.000503      0.000503
      6.89275      5.16954      5.16954        -0.000497      0.000000     -0.000000
      8.61587      3.44633      5.16954         0.000511      0.000511     -0.000000
      8.61587      5.16954      3.44633         0.000511      0.000000      0.000511
     -0.00000      6.89275      3.44633        -0.000000     -0.000511      0.000511
     -0.00000      8.61587      5.16954        -0.000000      0.000497     -0.000000
      1.72321      6.89275      5.16954        -0.000511     -0.000511     -0.000000
      1.72321      8.61587      3.44633        -0.000503      0.000503      0.000503
      3.44633      6.89275      3.44633         0.000503     -0.000503      0.000503
      3.44633      8.61587      5.16954         0.000511      0.000511     -0.000000
      5.16954      6.89275      5.16954        -0.000000     -0.000497     -0.000000
      5.16954      8.61587      3.44633        -0.000000      0.000511      0.000511
      6.89275      6.89275      3.44633        -0.000503     -0.000503      0.000503
      6.89275      8.61587      5.16954        -0.000511      0.000511     -0.000000
      8.61587      6.89275      5.16954         0.000511     -0.000511     -0.000000
      8.61587      8.61587      3.44633         0.000503      0.000503      0.000503
     -0.00000     -0.00000      6.89275        -0.000000      0.000000     -0.000497
     -0.00000      1.72321      8.61587        -0.000000     -0.000511      0.000511
      1.72321     -0.00000      8.61587        -0.000511      0.000000      0.000511
      1.72321      1.72321      6.89275        -0.000503     -0.000503     -0.000503
      3.44633     -0.00000      6.89275         0.000511      0.000000     -0.000511
      3.44633      1.72321      8.61587         0.000503     -0.000503      0.000503
      5.16954     -0.00000      8.61587        -0.000000      0.000000      0.000497
      5.16954      1.72321      6.89275        -0.000000     -0.000511     -0.000511
      6.89275     -0.00000      6.89275        -0.000511      0.000000     -0.000511
      6.89275      1.72321      8.61587        -0.000503     -0.000503      0.000503
      8.61587     -0.00000      8.61587         0.000511      0.000000      0.000511
      8.61587      1.72321      6.89275         0.000503     -0.000503     -0.000503
     -0.00000      3.44633      6.89275        -0.000000      0.000511     -0.000511
     -0.00000      5.16954      8.61587        -0.000000      0.000000      0.000497
      1.72321      3.44633      8.61587        -0.000503      0.000503      0.000503
      1.72321      5.16954      6.89275        -0.000511      0.000000     -0.000511
      3.44633      3.44633      6.89275         0.000503      0.000503     -0.000503
      3.44633      5.16954      8.61587         0.000511      0.000000      0.000511
      5.16954      3.44633      8.61587        -0.000000      0.000511      0.000511
      5.16954      5.16954      6.89275        -0.000000      0.000000     -0.000497
      6.89275      3.44633      6.89275        -0.000503      0.000503     -0.000503
      6.89275      5.16954      8.61587        -0.000511      0.000000      0.000511
      8.61587      3.44633      8.61587         0.000503      0.000503      0.000503
      8.61587      5.16954      6.89275         0.000511      0.000000     -0.000511
     -0.00000      6.89275      6.89275        -0.000000     -0.000511     -0.000511
     -0.00000      8.61587      8.61587        -0.000000      0.000511      0.000511
      1.72321      6.89275      8.61587        -0.000503     -0.000503      0.000503
      1.72321      8.61587      6.89275        -0.000503      0.000503     -0.000503
      3.44633      6.89275      6.89275         0.000503     -0.000503     -0.000503
      3.44633      8.61587      8.61587         0.000503      0.000503      0.000503
      5.16954      6.89275      8.61587        -0.000000     -0.000511      0.000511
      5.16954      8.61587      6.89275        -0.000000      0.000511     -0.000511
      6.89275      6.89275      6.89275        -0.000503     -0.000503     -0.000503
      6.89275      8.61587      8.61587        -0.000503      0.000503      0.000503
      8.61587      6.89275      8.61587         0.000503     -0.000503      0.000503
      8.61587      8.61587      6.89275         0.000503      0.000503     -0.000503
 -----------------------------------------------------------------------------------
    total drift:                                0.000000      0.000000      0.000000


--------------------------------------------------------------------------------------------------------



  FREE ENERGIE OF THE ION-ELECTRON SYSTEM (eV)
  ---------------------------------------------------
  free  energy   TOTEN  =      -880.06264792 eV

  energy  without entropy=     -879.99213629  energy(sigma->0) =     -880.03914404
 
 d Force = 0.1018015E-07[ 0.102E-07, 0.102E-07]  d Energy = 0.7573250E-02-0.757E-02
 d Force = 0.5220049E-06[ 0.522E-06, 0.522E-06]  d Ewald  = 0.6395107E+02-0.640E+02


--------------------------------------------------------------------------------------------------------


    POTLOK:  cpu time    0.1130: real time    0.1130


--------------------------------------------------------------------------------------------------------




--------------------------------------------------------------------------------------------------------


  
 reached required accuracy - stopping structural energy minimisation
     LOOP+:  cpu time  198.4318: real time  198.5012
    4ORBIT:  cpu time    0.0000: real time    0.0000

 total amount of memory used by VASP MPI-rank0   120845. kBytes
=======================================================================

   base      :      30000. kBytes
   nonlr-proj:      37732. kBytes
   fftplans  :       7001. kBytes
   grid      :       9780. kBytes
   one-center:        419. kBytes
   wavefun   :      35913. kBytes
 
  
  
 General timing and accounting informations for this job:
 ========================================================
  
                  Total CPU time used (sec):     2079.646
                            User time (sec):     2075.529
                          System time (sec):        4.116
                         Elapsed time (sec):     2080.362
  
                   Maximum memory used (kb):      179084.
                   Average memory used (kb):           0.
  
                          Minor page faults:       354404
                          Major page faults:            2
                 Voluntary context switches:         1724
