<?xml version="1.0" encoding="ISO-8859-1"?>
<modeling>
 <generator>
  <i name="program" type="string">vasp </i>
  <i name="version" type="string">5.4.4.18Apr17-6-g9f103f2a35  </i>
  <i name="subversion" type="string">(build Aug 17 2017 06:00:38) complex            parallel </i>
  <i name="platform" type="string">LinuxIFC </i>
  <i name="date" type="string">2019 07 12 </i>
  <i name="time" type="string">12:25:02 </i>
 </generator>
 <incar>
  <i type="string" name="SYSTEM">Opt</i>
  <i type="int" name="ISTART">     0</i>
  <i type="string" name="PREC">normal</i>
  <i type="string" name="ALGO"> Fast</i>
  <i type="int" name="ISPIN">     1</i>
  <i type="int" name="ICHARG">     2</i>
  <i type="int" name="NELM">   400</i>
  <i type="int" name="IBRION">     2</i>
  <i name="EDIFF">      0.00000100</i>
  <i name="EDIFFG">     -0.01000000</i>
  <i type="int" name="NSW">   100</i>
  <i type="int" name="ISIF">     3</i>
  <i name="ENCUT">    400.00000000</i>
  <i type="int" name="NGX">    72</i>
  <i type="int" name="NGY">    72</i>
  <i type="int" name="NGZ">    72</i>
  <i name="POTIM">      0.50000000</i>
  <i type="string" name="LREAL">Auto</i>
  <i type="logical" name="LWAVE"> F  </i>
  <i type="logical" name="LCHARG"> F  </i>
  <v type="int" name="KPOINT_BSE">    -1     0     0     0</v>
  <i type="int" name="NELM">   400</i>
 </incar>
 <structure name="primitive_cell" >
  <crystal>
   <varray name="basis" >
    <v>       5.47520018       5.47520018      -0.00000064 </v>
    <v>       5.47520018       0.00000000      -5.47520049 </v>
    <v>       0.00000000       5.47520018      -5.47520049 </v>
   </varray>
   <i name="volume">    328.26909752 </i>
   <varray name="rec_basis" >
    <v>       0.09132087       0.09132087       0.09132086 </v>
    <v>       0.09132086      -0.09132087      -0.09132086 </v>
    <v>      -0.09132087       0.09132086      -0.09132086 </v>
   </varray>
  </crystal>
  <varray name="positions" >
   <v>       0.00000000       0.00000000       0.00000000 </v>
   <v>       0.33334000      -0.33334000      -0.00000001 </v>
   <v>       0.33334000      -0.00000001      -0.33334000 </v>
   <v>       0.33334001      -0.00000002      -0.00000002 </v>
   <v>      -0.00000004      -0.33334001       0.00000004 </v>
   <v>      -0.00000003      -0.33334002       0.33334002 </v>
   <v>      -0.00000004       0.00000004      -0.33334001 </v>
   <v>      -0.00000003       0.33334002      -0.33334002 </v>
   <v>      -0.00000002       0.00000002       0.33334001 </v>
   <v>      -0.00000002       0.33334001       0.00000002 </v>
   <v>      -0.33334007       0.00000002       0.00000002 </v>
   <v>      -0.33334006       0.00000001       0.33334006 </v>
   <v>      -0.33334006       0.33334006       0.00000001 </v>
   <v>      -0.33333000      -0.33332996       0.33333000 </v>
   <v>      -0.33333000       0.33333000      -0.33332996 </v>
   <v>      -0.33332998       0.33332998       0.33332998 </v>
   <v>       0.33333002       0.33332999      -0.33333002 </v>
   <v>       0.33333002      -0.33333002       0.33332999 </v>
   <v>       0.33333000      -0.33333000      -0.33333000 </v>
   <v>       0.00001003       0.33332996       0.33332996 </v>
   <v>      -0.33333000      -0.00001004      -0.33333000 </v>
   <v>      -0.33333000      -0.33333000      -0.00001004 </v>
   <v>      -0.33333001      -0.33332994      -0.33333000 </v>
   <v>       0.33332995       0.00001010       0.33333000 </v>
   <v>       0.33332995       0.33333000       0.00001010 </v>
   <v>       0.33332996       0.33333000       0.33333000 </v>
   <v>      -0.00001006      -0.33332999      -0.33332999 </v>
  </varray>
 </structure>
 <varray name="primitive_index" >
  <v type="int" >        1 </v>
  <v type="int" >        2 </v>
  <v type="int" >        3 </v>
  <v type="int" >        4 </v>
  <v type="int" >       11 </v>
  <v type="int" >       12 </v>
  <v type="int" >       26 </v>
  <v type="int" >       28 </v>
  <v type="int" >       74 </v>
  <v type="int" >       75 </v>
  <v type="int" >       36 </v>
  <v type="int" >       83 </v>
  <v type="int" >       98 </v>
  <v type="int" >        9 </v>
  <v type="int" >       25 </v>
  <v type="int" >       73 </v>
  <v type="int" >        5 </v>
  <v type="int" >       13 </v>
  <v type="int" >       37 </v>
  <v type="int" >       76 </v>
  <v type="int" >       84 </v>
  <v type="int" >      100 </v>
  <v type="int" >       82 </v>
  <v type="int" >      106 </v>
  <v type="int" >      107 </v>
  <v type="int" >      108 </v>
  <v type="int" >       72 </v>
 </varray>
 <kpoints>
  <generation param="Monkhorst-Pack">
   <v type="int" name="divisions">       4        4        4 </v>
   <v name="usershift">      0.00000000       0.00000000       0.00000000 </v>
   <v name="genvec1">      0.25000000       0.00000000       0.00000000 </v>
   <v name="genvec2">      0.00000000       0.25000000       0.00000000 </v>
   <v name="genvec3">      0.00000000       0.00000000       0.25000000 </v>
   <v name="shift">      0.50000000       0.50000000       0.50000000 </v>
  </generation>
  <varray name="kpointlist" >
   <v>       0.12500000       0.12500000       0.12500000 </v>
   <v>       0.37500000       0.12500000       0.12500000 </v>
   <v>       0.37500000       0.37500000       0.12500000 </v>
   <v>       0.37500000       0.37500000       0.37500000 </v>
  </varray>
  <varray name="weights" >
   <v>       0.12500000 </v>
   <v>       0.37500000 </v>
   <v>       0.37500000 </v>
   <v>       0.12500000 </v>
  </varray>
 </kpoints>
 <parameters>
  <separator name="general" >
   <i type="string" name="SYSTEM">Opt</i>
   <i type="logical" name="LCOMPAT"> F  </i>
  </separator>
  <separator name="electronic" >
   <i type="string" name="PREC">normal</i>
   <i name="ENMAX">    400.00000000</i>
   <i name="ENAUG">    511.36800000</i>
   <i name="EDIFF">      0.00000100</i>
   <i type="int" name="IALGO">    68</i>
   <i type="int" name="IWAVPR">    11</i>
   <i type="int" name="NBANDS">   522</i>
   <i name="NELECT">    864.00000000</i>
   <i type="int" name="TURBO">     0</i>
   <i type="int" name="IRESTART">     0</i>
   <i type="int" name="NREBOOT">     0</i>
   <i type="int" name="NMIN">     0</i>
   <i name="EREF">      0.00000000</i>
   <separator name="electronic smearing" >
    <i type="int" name="ISMEAR">     1</i>
    <i name="SIGMA">      0.20000000</i>
    <i name="KSPACING">      0.50000000</i>
    <i type="logical" name="KGAMMA"> T  </i>
   </separator>
   <separator name="electronic projectors" >
    <i type="logical" name="LREAL"> T  </i>
    <v name="ROPT">     -0.00050000</v>
    <i type="int" name="LMAXPAW">  -100</i>
    <i type="int" name="LMAXMIX">     2</i>
    <i type="logical" name="NLSPLINE"> F  </i>
   </separator>
   <separator name="electronic startup" >
    <i type="int" name="ISTART">     0</i>
    <i type="int" name="ICHARG">     2</i>
    <i type="int" name="INIWAV">     1</i>
   </separator>
   <separator name="electronic spin" >
    <i type="int" name="ISPIN">     1</i>
    <i type="logical" name="LNONCOLLINEAR"> F  </i>
    <v name="MAGMOM">      1.00000000      1.00000000      1.00000000      1.00000000      1.00000000      1.00000000      1.00000000      1.00000000      1.00000000      1.00000000      1.00000000      1.00000000      1.00000000      1.00000000      1.00000000      1.00000000      1.00000000      1.00000000      1.00000000      1.00000000
      1.00000000      1.00000000      1.00000000      1.00000000      1.00000000      1.00000000      1.00000000      1.00000000      1.00000000      1.00000000      1.00000000      1.00000000      1.00000000      1.00000000      1.00000000      1.00000000      1.00000000      1.00000000      1.00000000      1.00000000
      1.00000000      1.00000000      1.00000000      1.00000000      1.00000000      1.00000000      1.00000000      1.00000000      1.00000000      1.00000000      1.00000000      1.00000000      1.00000000      1.00000000      1.00000000      1.00000000      1.00000000      1.00000000      1.00000000      1.00000000
      1.00000000      1.00000000      1.00000000      1.00000000      1.00000000      1.00000000      1.00000000      1.00000000      1.00000000      1.00000000      1.00000000      1.00000000      1.00000000      1.00000000      1.00000000      1.00000000      1.00000000      1.00000000      1.00000000      1.00000000
      1.00000000      1.00000000      1.00000000      1.00000000      1.00000000      1.00000000      1.00000000      1.00000000      1.00000000      1.00000000      1.00000000      1.00000000      1.00000000      1.00000000      1.00000000      1.00000000      1.00000000      1.00000000      1.00000000      1.00000000
      1.00000000      1.00000000      1.00000000      1.00000000      1.00000000      1.00000000      1.00000000      1.00000000</v>
    <i name="NUPDOWN">     -1.00000000</i>
    <i type="logical" name="LSORBIT"> F  </i>
    <v name="SAXIS">      0.00000000      0.00000000      1.00000000</v>
    <i type="logical" name="LSPIRAL"> F  </i>
    <v name="QSPIRAL">      0.00000000      0.00000000      0.00000000</v>
    <i type="logical" name="LZEROZ"> F  </i>
   </separator>
   <separator name="electronic exchange-correlation" >
    <i type="logical" name="LASPH"> F  </i>
    <i type="logical" name="LMETAGGA"> F  </i>
   </separator>
   <separator name="electronic convergence" >
    <i type="int" name="NELM">   400</i>
    <i type="int" name="NELMDL">    -5</i>
    <i type="int" name="NELMIN">     2</i>
    <i name="ENINI">    400.00000000</i>
    <separator name="electronic convergence detail" >
     <i type="logical" name="LDIAG"> T  </i>
     <i type="logical" name="LSUBROT"> F  </i>
     <i name="WEIMIN">      0.00100000</i>
     <i name="EBREAK">      0.00000000</i>
     <i name="DEPER">      0.30000000</i>
     <i type="int" name="NRMM">     4</i>
     <i name="TIME">      0.40000000</i>
    </separator>
   </separator>
   <separator name="electronic mixer" >
    <i name="AMIX">      0.40000000</i>
    <i name="BMIX">      1.00000000</i>
    <i name="AMIN">      0.10000000</i>
    <i name="AMIX_MAG">      1.60000000</i>
    <i name="BMIX_MAG">      1.00000000</i>
    <separator name="electronic mixer details" >
     <i type="int" name="IMIX">     4</i>
     <i type="logical" name="MIXFIRST"> F  </i>
     <i type="int" name="MAXMIX">   -45</i>
     <i name="WC">    100.00000000</i>
     <i type="int" name="INIMIX">     1</i>
     <i type="int" name="MIXPRE">     1</i>
     <i type="int" name="MREMOVE">     5</i>
    </separator>
   </separator>
   <separator name="electronic dipolcorrection" >
    <i type="logical" name="LDIPOL"> F  </i>
    <i type="logical" name="LMONO"> F  </i>
    <i type="int" name="IDIPOL">     0</i>
    <i name="EPSILON">      1.00000000</i>
    <v name="DIPOL">   -100.00000000   -100.00000000   -100.00000000</v>
    <i name="EFIELD">      0.00000000</i>
   </separator>
  </separator>
  <separator name="grids" >
   <i type="int" name="NGX">    72</i>
   <i type="int" name="NGY">    72</i>
   <i type="int" name="NGZ">    72</i>
   <i type="int" name="NGXF">   144</i>
   <i type="int" name="NGYF">   144</i>
   <i type="int" name="NGZF">   144</i>
   <i type="logical" name="ADDGRID"> F  </i>
  </separator>
  <separator name="ionic" >
   <i type="int" name="NSW">   100</i>
   <i type="int" name="IBRION">     2</i>
   <i type="int" name="MDALGO">     0</i>
   <i type="int" name="ISIF">     3</i>
   <i name="PSTRESS">      0.00000000</i>
   <i name="EDIFFG">     -0.01000000</i>
   <i type="int" name="NFREE">     1</i>
   <i name="POTIM">      0.50000000</i>
   <i name="SMASS">     -3.00000000</i>
   <i name="SCALEE">      1.00000000</i>
  </separator>
  <separator name="ionic md" >
   <i name="TEBEG">      0.00010000</i>
   <i name="TEEND">      0.00010000</i>
   <i type="int" name="NBLOCK">     1</i>
   <i type="int" name="KBLOCK">   100</i>
   <i type="int" name="NPACO">   256</i>
   <i name="APACO">     16.00000000</i>
  </separator>
  <separator name="symmetry" >
   <i type="int" name="ISYM">     2</i>
   <i name="SYMPREC">      0.00001000</i>
  </separator>
  <separator name="dos" >
   <i type="int" name="LORBIT">     0</i>
   <v name="RWIGS">     -1.00000000</v>
   <i type="int" name="NEDOS">   301</i>
   <i name="EMIN">     10.00000000</i>
   <i name="EMAX">    -10.00000000</i>
   <i name="EFERMI">      0.00000000</i>
  </separator>
  <separator name="writing" >
   <i type="int" name="NWRITE">     2</i>
   <i type="logical" name="LWAVE"> F  </i>
   <i type="logical" name="LDOWNSAMPLE"> F  </i>
   <i type="logical" name="LCHARG"> F  </i>
   <i type="logical" name="LPARD"> F  </i>
   <i type="logical" name="LVTOT"> F  </i>
   <i type="logical" name="LVHAR"> F  </i>
   <i type="logical" name="LELF"> F  </i>
   <i type="logical" name="LOPTICS"> F  </i>
   <v name="STM">      0.00000000      0.00000000      0.00000000      0.00000000      0.00000000      0.00000000      0.00000000</v>
  </separator>
  <separator name="performance" >
   <i type="int" name="NPAR">     6</i>
   <i type="int" name="NSIM">     4</i>
   <i type="int" name="NBLK">    -1</i>
   <i type="logical" name="LPLANE"> T  </i>
   <i type="logical" name="LSCALAPACK"> T  </i>
   <i type="logical" name="LSCAAWARE"> F  </i>
   <i type="logical" name="LSCALU"> F  </i>
   <i type="logical" name="LASYNC"> F  </i>
   <i type="logical" name="LORBITALREAL"> F  </i>
  </separator>
  <separator name="miscellaneous" >
   <i type="int" name="IDIOT">     3</i>
   <i type="int" name="ISPECIAL">     0</i>
   <i type="logical" name="LMUSIC"> F  </i>
   <v name="POMASS">     55.84700000</v>
   <v name="DARWINR">      0.00000000</v>
   <v name="DARWINV">      1.00000000</v>
   <i type="logical" name="LCORR"> T  </i>
  </separator>
  <i type="logical" name="GGA_COMPAT"> T  </i>
  <i type="logical" name="LBERRY"> F  </i>
  <i type="int" name="ICORELEVEL">     0</i>
  <i type="logical" name="LDAU"> F  </i>
  <i type="int" name="I_CONSTRAINED_M">     0</i>
  <separator name="electronic exchange-correlation" >
   <i type="string" name="GGA">--</i>
   <i type="int" name="VOSKOWN">     0</i>
   <i type="logical" name="LHFCALC"> F  </i>
   <i type="string" name="PRECFOCK"></i>
   <i type="logical" name="LSYMGRAD"> F  </i>
   <i type="logical" name="LHFONE"> F  </i>
   <i type="logical" name="LRHFCALC"> F  </i>
   <i type="logical" name="LTHOMAS"> F  </i>
   <i type="logical" name="LMODELHF"> F  </i>
   <i name="ENCUT4O">     -1.00000000</i>
   <i type="int" name="EXXOEP">     0</i>
   <i type="int" name="FOURORBIT">     0</i>
   <i name="AEXX">      0.00000000</i>
   <i name="HFALPHA">      0.00000000</i>
   <i name="MCALPHA">      0.00000000</i>
   <i name="ALDAX">      1.00000000</i>
   <i name="AGGAX">      1.00000000</i>
   <i name="ALDAC">      1.00000000</i>
   <i name="AGGAC">      1.00000000</i>
   <i type="int" name="NKREDX">     1</i>
   <i type="int" name="NKREDY">     1</i>
   <i type="int" name="NKREDZ">     1</i>
   <i type="logical" name="SHIFTRED"> F  </i>
   <i type="logical" name="ODDONLY"> F  </i>
   <i type="logical" name="EVENONLY"> F  </i>
   <i type="int" name="LMAXFOCK">     0</i>
   <i type="int" name="NMAXFOCKAE">     0</i>
   <i type="logical" name="LFOCKAEDFT"> F  </i>
   <i name="HFSCREEN">      0.00000000</i>
   <i name="HFSCREENC">      0.00000000</i>
   <i type="int" name="NBANDSGWLOW">     0</i>
  </separator>
  <separator name="vdW DFT" >
   <i type="logical" name="LUSE_VDW"> F  </i>
   <i name="Zab_VDW">     -0.84910000</i>
   <i name="PARAM1">      0.12340000</i>
   <i name="PARAM2">      1.00000000</i>
   <i name="PARAM3">      0.00000000</i>
  </separator>
  <separator name="model GW" >
   <i type="int" name="MODEL_GW">     0</i>
   <i name="MODEL_EPS0">      7.29486883</i>
   <i name="MODEL_ALPHA">      1.00000000</i>
  </separator>
  <separator name="linear response parameters" >
   <i type="logical" name="LEPSILON"> F  </i>
   <i type="logical" name="LRPA"> F  </i>
   <i type="logical" name="LNABLA"> F  </i>
   <i type="logical" name="LVEL"> F  </i>
   <i type="int" name="KINTER">     0</i>
   <i name="CSHIFT">      0.10000000</i>
   <i name="OMEGAMAX">     -1.00000000</i>
   <i name="DEG_THRESHOLD">      0.00200000</i>
   <i name="RTIME">     -0.10000000</i>
   <i name="WPLASMAI">      0.00000000</i>
   <v name="DFIELD">      0.00000000      0.00000000      0.00000000</v>
   <v name="WPLASMA">      0.00000000      0.00000000      0.00000000      0.00000000      0.00000000      0.00000000      0.00000000      0.00000000      0.00000000</v>
  </separator>
  <separator name="orbital magnetization" >
   <i type="logical" name="NUCIND"> F  </i>
   <v name="MAGPOS">      0.00000000      0.00000000      0.00000000</v>
   <i type="logical" name="LNICSALL"> T  </i>
   <i type="logical" name="ORBITALMAG"> F  </i>
   <i type="logical" name="LMAGBLOCH"> F  </i>
   <i type="logical" name="LCHIMAG"> F  </i>
   <i type="logical" name="LGAUGE"> T  </i>
   <i type="int" name="MAGATOM">     0</i>
   <v name="MAGDIPOL">      0.00000000      0.00000000      0.00000000</v>
   <v name="AVECCONST">      0.00000000      0.00000000      0.00000000</v>
  </separator>
  <separator name="response functions" >
   <i type="logical" name="LADDER"> F  </i>
   <i type="logical" name="LRPAFORCE"> F  </i>
   <i type="logical" name="LFXC"> F  </i>
   <i type="logical" name="LHARTREE"> T  </i>
   <i type="int" name="IBSE">     0</i>
   <v type="int" name="KPOINT">    -1     0     0     0</v>
   <i type="logical" name="LTCTE"> F  </i>
   <i type="logical" name="LTETE"> F  </i>
   <i type="logical" name="LTRIPLET"> F  </i>
   <i type="logical" name="LFXCEPS"> F  </i>
   <i type="logical" name="LFXHEG"> F  </i>
   <i type="int" name="NATURALO">     2</i>
   <i type="logical" name="L2ORDER"> F  </i>
   <i type="logical" name="LMP2LT"> F  </i>
   <i type="logical" name="LUSEW"> F  </i>
   <i name="ENCUTGW">     -2.00000000</i>
   <i name="ENCUTGWSOFT">     -2.00000000</i>
   <i name="ENCUTLF">     -1.00000000</i>
   <i type="int" name="LMAXMP2">    -1</i>
   <i name="SCISSOR">      0.00000000</i>
   <i type="int" name="NOMEGA">     0</i>
   <i type="int" name="NOMEGAR">     0</i>
   <i type="int" name="NBANDSGW">    -1</i>
   <i type="int" name="NBANDSO">    -1</i>
   <i type="int" name="NBANDSV">    -1</i>
   <i type="int" name="NELM">   400</i>
   <i type="int" name="NELMHF">     1</i>
   <i type="int" name="DIM">     3</i>
   <i type="int" name="ANTIRES">     0</i>
   <i name="OMEGAMAX">    -30.00000000</i>
   <i name="OMEGAMIN">    -30.00000000</i>
   <i name="OMEGATL">   -200.00000000</i>
   <i type="int" name="OMEGAGRID">   140</i>
   <i name="CSHIFT">     -0.10000000</i>
   <i type="logical" name="SELFENERGY"> F  </i>
   <i type="logical" name="LSPECTRAL"> F  </i>
   <i type="logical" name="LSPECTRALGW"> F  </i>
   <i type="logical" name="LSINGLES"> F  </i>
   <i type="logical" name="LFERMIGW"> F  </i>
   <i type="logical" name="ODDONLYGW"> F  </i>
   <i type="logical" name="EVENONLYGW"> F  </i>
   <i type="int" name="NKREDLFX">     1</i>
   <i type="int" name="NKREDLFY">     1</i>
   <i type="int" name="NKREDLFZ">     1</i>
   <i type="int" name="MAXMEM">  2800</i>
   <i type="int" name="TELESCOPE">     0</i>
   <i type="int" name="TAUPAR">     1</i>
   <i type="int" name="OMEGAPAR">    -1</i>
   <i name="LAMBDA">      1.00000000</i>
  </separator>
  <separator name="External order field" >
   <i name="OFIELD_KAPPA">      0.00000000</i>
   <v name="OFIELD_K">      0.00000000      0.00000000      0.00000000</v>
   <i name="OFIELD_Q6_NEAR">      0.00000000</i>
   <i name="OFIELD_Q6_FAR">      0.00000000</i>
   <i name="OFIELD_A">      0.00000000</i>
  </separator>
 </parameters>
 <atominfo>
  <atoms>     108 </atoms>
  <types>       1 </types>
  <array name="atoms" >
   <dimension dim="1">ion</dimension>
   <field type="string">element</field>
   <field type="int">atomtype</field>
   <set>
    <rc><c>Fe</c><c>   1</c></rc>
    <rc><c>Fe</c><c>   1</c></rc>
    <rc><c>Fe</c><c>   1</c></rc>
    <rc><c>Fe</c><c>   1</c></rc>
    <rc><c>Fe</c><c>   1</c></rc>
    <rc><c>Fe</c><c>   1</c></rc>
    <rc><c>Fe</c><c>   1</c></rc>
    <rc><c>Fe</c><c>   1</c></rc>
    <rc><c>Fe</c><c>   1</c></rc>
    <rc><c>Fe</c><c>   1</c></rc>
    <rc><c>Fe</c><c>   1</c></rc>
    <rc><c>Fe</c><c>   1</c></rc>
    <rc><c>Fe</c><c>   1</c></rc>
    <rc><c>Fe</c><c>   1</c></rc>
    <rc><c>Fe</c><c>   1</c></rc>
    <rc><c>Fe</c><c>   1</c></rc>
    <rc><c>Fe</c><c>   1</c></rc>
    <rc><c>Fe</c><c>   1</c></rc>
    <rc><c>Fe</c><c>   1</c></rc>
    <rc><c>Fe</c><c>   1</c></rc>
    <rc><c>Fe</c><c>   1</c></rc>
    <rc><c>Fe</c><c>   1</c></rc>
    <rc><c>Fe</c><c>   1</c></rc>
    <rc><c>Fe</c><c>   1</c></rc>
    <rc><c>Fe</c><c>   1</c></rc>
    <rc><c>Fe</c><c>   1</c></rc>
    <rc><c>Fe</c><c>   1</c></rc>
    <rc><c>Fe</c><c>   1</c></rc>
    <rc><c>Fe</c><c>   1</c></rc>
    <rc><c>Fe</c><c>   1</c></rc>
    <rc><c>Fe</c><c>   1</c></rc>
    <rc><c>Fe</c><c>   1</c></rc>
    <rc><c>Fe</c><c>   1</c></rc>
    <rc><c>Fe</c><c>   1</c></rc>
    <rc><c>Fe</c><c>   1</c></rc>
    <rc><c>Fe</c><c>   1</c></rc>
    <rc><c>Fe</c><c>   1</c></rc>
    <rc><c>Fe</c><c>   1</c></rc>
    <rc><c>Fe</c><c>   1</c></rc>
    <rc><c>Fe</c><c>   1</c></rc>
    <rc><c>Fe</c><c>   1</c></rc>
    <rc><c>Fe</c><c>   1</c></rc>
    <rc><c>Fe</c><c>   1</c></rc>
    <rc><c>Fe</c><c>   1</c></rc>
    <rc><c>Fe</c><c>   1</c></rc>
    <rc><c>Fe</c><c>   1</c></rc>
    <rc><c>Fe</c><c>   1</c></rc>
    <rc><c>Fe</c><c>   1</c></rc>
    <rc><c>Fe</c><c>   1</c></rc>
    <rc><c>Fe</c><c>   1</c></rc>
    <rc><c>Fe</c><c>   1</c></rc>
    <rc><c>Fe</c><c>   1</c></rc>
    <rc><c>Fe</c><c>   1</c></rc>
    <rc><c>Fe</c><c>   1</c></rc>
    <rc><c>Fe</c><c>   1</c></rc>
    <rc><c>Fe</c><c>   1</c></rc>
    <rc><c>Fe</c><c>   1</c></rc>
    <rc><c>Fe</c><c>   1</c></rc>
    <rc><c>Fe</c><c>   1</c></rc>
    <rc><c>Fe</c><c>   1</c></rc>
    <rc><c>Fe</c><c>   1</c></rc>
    <rc><c>Fe</c><c>   1</c></rc>
    <rc><c>Fe</c><c>   1</c></rc>
    <rc><c>Fe</c><c>   1</c></rc>
    <rc><c>Fe</c><c>   1</c></rc>
    <rc><c>Fe</c><c>   1</c></rc>
    <rc><c>Fe</c><c>   1</c></rc>
    <rc><c>Fe</c><c>   1</c></rc>
    <rc><c>Fe</c><c>   1</c></rc>
    <rc><c>Fe</c><c>   1</c></rc>
    <rc><c>Fe</c><c>   1</c></rc>
    <rc><c>Fe</c><c>   1</c></rc>
    <rc><c>Fe</c><c>   1</c></rc>
    <rc><c>Fe</c><c>   1</c></rc>
    <rc><c>Fe</c><c>   1</c></rc>
    <rc><c>Fe</c><c>   1</c></rc>
    <rc><c>Fe</c><c>   1</c></rc>
    <rc><c>Fe</c><c>   1</c></rc>
    <rc><c>Fe</c><c>   1</c></rc>
    <rc><c>Fe</c><c>   1</c></rc>
    <rc><c>Fe</c><c>   1</c></rc>
    <rc><c>Fe</c><c>   1</c></rc>
    <rc><c>Fe</c><c>   1</c></rc>
    <rc><c>Fe</c><c>   1</c></rc>
    <rc><c>Fe</c><c>   1</c></rc>
    <rc><c>Fe</c><c>   1</c></rc>
    <rc><c>Fe</c><c>   1</c></rc>
    <rc><c>Fe</c><c>   1</c></rc>
    <rc><c>Fe</c><c>   1</c></rc>
    <rc><c>Fe</c><c>   1</c></rc>
    <rc><c>Fe</c><c>   1</c></rc>
    <rc><c>Fe</c><c>   1</c></rc>
    <rc><c>Fe</c><c>   1</c></rc>
    <rc><c>Fe</c><c>   1</c></rc>
    <rc><c>Fe</c><c>   1</c></rc>
    <rc><c>Fe</c><c>   1</c></rc>
    <rc><c>Fe</c><c>   1</c></rc>
    <rc><c>Fe</c><c>   1</c></rc>
    <rc><c>Fe</c><c>   1</c></rc>
    <rc><c>Fe</c><c>   1</c></rc>
    <rc><c>Fe</c><c>   1</c></rc>
    <rc><c>Fe</c><c>   1</c></rc>
    <rc><c>Fe</c><c>   1</c></rc>
    <rc><c>Fe</c><c>   1</c></rc>
    <rc><c>Fe</c><c>   1</c></rc>
    <rc><c>Fe</c><c>   1</c></rc>
    <rc><c>Fe</c><c>   1</c></rc>
    <rc><c>Fe</c><c>   1</c></rc>
   </set>
  </array>
  <array name="atomtypes" >
   <dimension dim="1">type</dimension>
   <field type="int">atomspertype</field>
   <field type="string">element</field>
   <field>mass</field>
   <field>valence</field>
   <field type="string">pseudopotential</field>
   <set>
    <rc><c> 108</c><c>Fe</c><c>     55.84700000</c><c>      8.00000000</c><c> PAW_PBE Fe 06Sep2000                   </c></rc>
   </set>
  </array>
 </atominfo>
 <structure name="initialpos" >
  <crystal>
   <varray name="basis" >
    <v>      10.95040035       0.00000000       0.00000000 </v>
    <v>       0.00000000      10.95040035       0.00000000 </v>
    <v>       0.00000000       0.00000000      10.95040035 </v>
   </varray>
   <i name="volume">   1313.07639006 </i>
   <varray name="rec_basis" >
    <v>       0.09132086       0.00000000       0.00000000 </v>
    <v>       0.00000000       0.09132086       0.00000000 </v>
    <v>       0.00000000       0.00000000       0.09132086 </v>
   </varray>
  </crystal>
  <varray name="positions" >
   <v>       0.00000000       0.00000000       0.00000000 </v>
   <v>       0.00000000       0.16666999       0.16666999 </v>
   <v>       0.16666999       0.00000000       0.16666999 </v>
   <v>       0.16666999       0.16666999       0.00000000 </v>
   <v>       0.33333001       0.00000000       0.00000000 </v>
   <v>       0.33333001       0.16666999       0.16666999 </v>
   <v>       0.50000000       0.00000000       0.16666999 </v>
   <v>       0.50000000       0.16666999       0.00000000 </v>
   <v>       0.66667002       0.00000000       0.00000000 </v>
   <v>       0.66667002       0.16666999       0.16666999 </v>
   <v>       0.83332998       0.00000000       0.16666999 </v>
   <v>       0.83332998       0.16666999       0.00000000 </v>
   <v>       0.00000000       0.33333001       0.00000000 </v>
   <v>       0.00000000       0.50000000       0.16666999 </v>
   <v>       0.16666999       0.33333001       0.16666999 </v>
   <v>       0.16666999       0.50000000       0.00000000 </v>
   <v>       0.33333001       0.33333001       0.00000000 </v>
   <v>       0.33333001       0.50000000       0.16666999 </v>
   <v>       0.50000000       0.33333001       0.16666999 </v>
   <v>       0.50000000       0.50000000       0.00000000 </v>
   <v>       0.66667002       0.33333001       0.00000000 </v>
   <v>       0.66667002       0.50000000       0.16666999 </v>
   <v>       0.83332998       0.33333001       0.16666999 </v>
   <v>       0.83332998       0.50000000       0.00000000 </v>
   <v>       0.00000000       0.66667002       0.00000000 </v>
   <v>       0.00000000       0.83332998       0.16666999 </v>
   <v>       0.16666999       0.66667002       0.16666999 </v>
   <v>       0.16666999       0.83332998       0.00000000 </v>
   <v>       0.33333001       0.66667002       0.00000000 </v>
   <v>       0.33333001       0.83332998       0.16666999 </v>
   <v>       0.50000000       0.66667002       0.16666999 </v>
   <v>       0.50000000       0.83332998       0.00000000 </v>
   <v>       0.66667002       0.66667002       0.00000000 </v>
   <v>       0.66667002       0.83332998       0.16666999 </v>
   <v>       0.83332998       0.66667002       0.16666999 </v>
   <v>       0.83332998       0.83332998       0.00000000 </v>
   <v>       0.00000000       0.00000000       0.33333001 </v>
   <v>       0.00000000       0.16666999       0.50000000 </v>
   <v>       0.16666999       0.00000000       0.50000000 </v>
   <v>       0.16666999       0.16666999       0.33333001 </v>
   <v>       0.33333001       0.00000000       0.33333001 </v>
   <v>       0.33333001       0.16666999       0.50000000 </v>
   <v>       0.50000000       0.00000000       0.50000000 </v>
   <v>       0.50000000       0.16666999       0.33333001 </v>
   <v>       0.66667002       0.00000000       0.33333001 </v>
   <v>       0.66667002       0.16666999       0.50000000 </v>
   <v>       0.83332998       0.00000000       0.50000000 </v>
   <v>       0.83332998       0.16666999       0.33333001 </v>
   <v>       0.00000000       0.33333001       0.33333001 </v>
   <v>       0.00000000       0.50000000       0.50000000 </v>
   <v>       0.16666999       0.33333001       0.50000000 </v>
   <v>       0.16666999       0.50000000       0.33333001 </v>
   <v>       0.33333001       0.33333001       0.33333001 </v>
   <v>       0.33333001       0.50000000       0.50000000 </v>
   <v>       0.50000000       0.33333001       0.50000000 </v>
   <v>       0.50000000       0.50000000       0.33333001 </v>
   <v>       0.66667002       0.33333001       0.33333001 </v>
   <v>       0.66667002       0.50000000       0.50000000 </v>
   <v>       0.83332998       0.33333001       0.50000000 </v>
   <v>       0.83332998       0.50000000       0.33333001 </v>
   <v>       0.00000000       0.66667002       0.33333001 </v>
   <v>       0.00000000       0.83332998       0.50000000 </v>
   <v>       0.16666999       0.66667002       0.50000000 </v>
   <v>       0.16666999       0.83332998       0.33333001 </v>
   <v>       0.33333001       0.66667002       0.33333001 </v>
   <v>       0.33333001       0.83332998       0.50000000 </v>
   <v>       0.50000000       0.66667002       0.50000000 </v>
   <v>       0.50000000       0.83332998       0.33333001 </v>
   <v>       0.66667002       0.66667002       0.33333001 </v>
   <v>       0.66667002       0.83332998       0.50000000 </v>
   <v>       0.83332998       0.66667002       0.50000000 </v>
   <v>       0.83332998       0.83332998       0.33333001 </v>
   <v>       0.00000000       0.00000000       0.66667002 </v>
   <v>       0.00000000       0.16666999       0.83332998 </v>
   <v>       0.16666999       0.00000000       0.83332998 </v>
   <v>       0.16666999       0.16666999       0.66667002 </v>
   <v>       0.33333001       0.00000000       0.66667002 </v>
   <v>       0.33333001       0.16666999       0.83332998 </v>
   <v>       0.50000000       0.00000000       0.83332998 </v>
   <v>       0.50000000       0.16666999       0.66667002 </v>
   <v>       0.66667002       0.00000000       0.66667002 </v>
   <v>       0.66667002       0.16666999       0.83332998 </v>
   <v>       0.83332998       0.00000000       0.83332998 </v>
   <v>       0.83332998       0.16666999       0.66667002 </v>
   <v>       0.00000000       0.33333001       0.66667002 </v>
   <v>       0.00000000       0.50000000       0.83332998 </v>
   <v>       0.16666999       0.33333001       0.83332998 </v>
   <v>       0.16666999       0.50000000       0.66667002 </v>
   <v>       0.33333001       0.33333001       0.66667002 </v>
   <v>       0.33333001       0.50000000       0.83332998 </v>
   <v>       0.50000000       0.33333001       0.83332998 </v>
   <v>       0.50000000       0.50000000       0.66667002 </v>
   <v>       0.66667002       0.33333001       0.66667002 </v>
   <v>       0.66667002       0.50000000       0.83332998 </v>
   <v>       0.83332998       0.33333001       0.83332998 </v>
   <v>       0.83332998       0.50000000       0.66667002 </v>
   <v>       0.00000000       0.66667002       0.66667002 </v>
   <v>       0.00000000       0.83332998       0.83332998 </v>
   <v>       0.16666999       0.66667002       0.83332998 </v>
   <v>       0.16666999       0.83332998       0.66667002 </v>
   <v>       0.33333001       0.66667002       0.66667002 </v>
   <v>       0.33333001       0.83332998       0.83332998 </v>
   <v>       0.50000000       0.66667002       0.83332998 </v>
   <v>       0.50000000       0.83332998       0.66667002 </v>
   <v>       0.66667002       0.66667002       0.66667002 </v>
   <v>       0.66667002       0.83332998       0.83332998 </v>
   <v>       0.83332998       0.66667002       0.83332998 </v>
   <v>       0.83332998       0.83332998       0.66667002 </v>
  </varray>
 </structure>
 <calculation>
  <scstep>
   <time name="dav">   16.21   16.21</time>
   <time name="total">   16.32   16.33</time>
   <energy>
    <i name="alphaZ">   6137.11160893 </i>
    <i name="ewald"> -62509.70265403 </i>
    <i name="hartreedc"> -12624.36346638 </i>
    <i name="XCdc">    391.07142281 </i>
    <i name="pawpsdc">  51723.88885462 </i>
    <i name="pawaedc"> -52548.28121372 </i>
    <i name="eentropy">     -0.01336147 </i>
    <i name="bandstr">  12287.38175815 </i>
    <i name="atom">  64201.67088057 </i>
    <i name="e_fr_energy">   7058.76382949 </i>
    <i name="e_wo_entrp">   7058.77719095 </i>
    <i name="e_0_energy">   7058.76828331 </i>
   </energy>
  </scstep>
  <scstep>
   <time name="dav">   16.23   16.23</time>
   <time name="total">   16.23   16.23</time>
   <energy>
    <i name="e_fr_energy">   -132.32311088 </i>
    <i name="e_wo_entrp">   -132.32983216 </i>
    <i name="e_0_energy">   -132.32535130 </i>
   </energy>
  </scstep>
  <scstep>
   <time name="dav">   16.32   16.33</time>
   <time name="total">   16.32   16.33</time>
   <energy>
    <i name="e_fr_energy">   -843.67677037 </i>
    <i name="e_wo_entrp">   -843.68669235 </i>
    <i name="e_0_energy">   -843.68007770 </i>
   </energy>
  </scstep>
  <scstep>
   <time name="dav">   27.03   27.03</time>
   <time name="total">   27.03   27.04</time>
   <energy>
    <i name="e_fr_energy">  -1014.72467076 </i>
    <i name="e_wo_entrp">  -1014.80612573 </i>
    <i name="e_0_energy">  -1014.75182242 </i>
   </energy>
  </scstep>
  <scstep>
   <time name="dav">   23.71   23.71</time>
   <time name="total">   24.41   24.42</time>
   <energy>
    <i name="e_fr_energy">  -1032.04320940 </i>
    <i name="e_wo_entrp">  -1032.09355108 </i>
    <i name="e_0_energy">  -1032.05998996 </i>
   </energy>
  </scstep>
  <scstep>
   <time name="diag">    2.38    2.38</time>
   <time name="diis">    8.54    8.54</time>
   <time name="orth">    0.49    0.49</time>
   <time name="total">   12.22   12.23</time>
   <energy>
    <i name="e_fr_energy">   -856.95048566 </i>
    <i name="e_wo_entrp">   -856.90102910 </i>
    <i name="e_0_energy">   -856.93400014 </i>
   </energy>
  </scstep>
  <scstep>
   <time name="diag">    2.37    2.37</time>
   <time name="diis">    8.89    8.89</time>
   <time name="orth">    0.49    0.49</time>
   <time name="total">   12.56   12.57</time>
   <energy>
    <i name="e_fr_energy">   -853.23691058 </i>
    <i name="e_wo_entrp">   -853.19193688 </i>
    <i name="e_0_energy">   -853.22191935 </i>
   </energy>
  </scstep>
  <scstep>
   <time name="diag">    2.37    2.37</time>
   <time name="diis">   11.25   11.25</time>
   <time name="orth">    0.49    0.49</time>
   <time name="total">   14.92   14.93</time>
   <energy>
    <i name="e_fr_energy">   -859.76284696 </i>
    <i name="e_wo_entrp">   -859.70288866 </i>
    <i name="e_0_energy">   -859.74286086 </i>
   </energy>
  </scstep>
  <scstep>
   <time name="diag">    2.37    2.37</time>
   <time name="diis">    9.09    9.10</time>
   <time name="orth">    0.49    0.49</time>
   <time name="total">   12.77   12.78</time>
   <energy>
    <i name="e_fr_energy">   -854.77674915 </i>
    <i name="e_wo_entrp">   -854.75186840 </i>
    <i name="e_0_energy">   -854.76845557 </i>
   </energy>
  </scstep>
  <scstep>
   <time name="diag">    2.37    2.37</time>
   <time name="diis">   12.84   12.84</time>
   <time name="orth">    0.49    0.49</time>
   <time name="total">   16.52   16.52</time>
   <energy>
    <i name="e_fr_energy">   -854.88966074 </i>
    <i name="e_wo_entrp">   -854.86441931 </i>
    <i name="e_0_energy">   -854.88124693 </i>
   </energy>
  </scstep>
  <scstep>
   <time name="diag">    2.37    2.37</time>
   <time name="diis">    9.60    9.60</time>
   <time name="orth">    0.50    0.50</time>
   <time name="total">   13.29   13.29</time>
   <energy>
    <i name="e_fr_energy">   -854.90374516 </i>
    <i name="e_wo_entrp">   -854.88768014 </i>
    <i name="e_0_energy">   -854.89839015 </i>
   </energy>
  </scstep>
  <scstep>
   <time name="diag">    2.38    2.38</time>
   <time name="diis">   12.05   12.06</time>
   <time name="orth">    0.49    0.49</time>
   <time name="total">   15.74   15.74</time>
   <energy>
    <i name="e_fr_energy">   -854.91878085 </i>
    <i name="e_wo_entrp">   -854.90752460 </i>
    <i name="e_0_energy">   -854.91502877 </i>
   </energy>
  </scstep>
  <scstep>
   <time name="diag">    2.38    2.38</time>
   <time name="diis">    9.82    9.82</time>
   <time name="orth">    0.49    0.49</time>
   <time name="total">   13.51   13.51</time>
   <energy>
    <i name="e_fr_energy">   -854.87679623 </i>
    <i name="e_wo_entrp">   -854.86325364 </i>
    <i name="e_0_energy">   -854.87228204 </i>
   </energy>
  </scstep>
  <scstep>
   <time name="diag">    2.37    2.37</time>
   <time name="diis">   11.70   11.71</time>
   <time name="orth">    0.49    0.49</time>
   <time name="total">   15.39   15.39</time>
   <energy>
    <i name="e_fr_energy">   -854.88344667 </i>
    <i name="e_wo_entrp">   -854.87088319 </i>
    <i name="e_0_energy">   -854.87925884 </i>
   </energy>
  </scstep>
  <scstep>
   <time name="diag">    2.37    2.37</time>
   <time name="diis">   10.66   10.66</time>
   <time name="orth">    0.49    0.49</time>
   <time name="total">   14.35   14.36</time>
   <energy>
    <i name="e_fr_energy">   -854.88281596 </i>
    <i name="e_wo_entrp">   -854.87277043 </i>
    <i name="e_0_energy">   -854.87946745 </i>
   </energy>
  </scstep>
  <scstep>
   <time name="diag">    2.36    2.36</time>
   <time name="diis">   10.88   10.88</time>
   <time name="orth">    0.49    0.49</time>
   <time name="total">   14.55   14.56</time>
   <energy>
    <i name="e_fr_energy">   -854.88278354 </i>
    <i name="e_wo_entrp">   -854.87466604 </i>
    <i name="e_0_energy">   -854.88007771 </i>
   </energy>
  </scstep>
  <scstep>
   <time name="diag">    2.36    2.36</time>
   <time name="diis">   12.02   12.02</time>
   <time name="orth">    0.50    0.50</time>
   <time name="total">   15.71   15.71</time>
   <energy>
    <i name="e_fr_energy">   -854.88278678 </i>
    <i name="e_wo_entrp">   -854.87558730 </i>
    <i name="e_0_energy">   -854.88038695 </i>
   </energy>
  </scstep>
  <scstep>
   <time name="diag">    2.37    2.37</time>
   <time name="diis">   12.40   12.41</time>
   <time name="orth">    0.50    0.50</time>
   <time name="total">   16.09   16.10</time>
   <energy>
    <i name="e_fr_energy">   -854.88269592 </i>
    <i name="e_wo_entrp">   -854.87636584 </i>
    <i name="e_0_energy">   -854.88058589 </i>
   </energy>
  </scstep>
  <scstep>
   <time name="diag">    2.36    2.36</time>
   <time name="diis">   10.97   10.98</time>
   <time name="orth">    0.49    0.49</time>
   <time name="total">   14.63   14.64</time>
   <energy>
    <i name="e_fr_energy">   -854.88262605 </i>
    <i name="e_wo_entrp">   -854.87692063 </i>
    <i name="e_0_energy">   -854.88072425 </i>
   </energy>
  </scstep>
  <scstep>
   <time name="diag">    2.36    2.36</time>
   <time name="diis">    7.07    7.07</time>
   <time name="orth">    0.49    0.49</time>
   <time name="total">   10.74   10.75</time>
   <energy>
    <i name="e_fr_energy">   -854.88256026 </i>
    <i name="e_wo_entrp">   -854.87748318 </i>
    <i name="e_0_energy">   -854.88086790 </i>
   </energy>
  </scstep>
  <scstep>
   <time name="diag">    2.36    2.36</time>
   <time name="diis">    6.23    6.23</time>
   <time name="orth">    0.49    0.49</time>
   <time name="total">    9.92    9.93</time>
   <energy>
    <i name="e_fr_energy">   -854.88248934 </i>
    <i name="e_wo_entrp">   -854.87812687 </i>
    <i name="e_0_energy">   -854.88103518 </i>
   </energy>
  </scstep>
  <scstep>
   <time name="diag">    2.35    2.35</time>
   <time name="diis">    6.21    6.22</time>
   <time name="orth">    0.49    0.49</time>
   <time name="total">    9.88    9.88</time>
   <energy>
    <i name="e_fr_energy">   -854.88242377 </i>
    <i name="e_wo_entrp">   -854.87873050 </i>
    <i name="e_0_energy">   -854.88119268 </i>
   </energy>
  </scstep>
  <scstep>
   <time name="diag">    2.36    2.36</time>
   <time name="diis">    5.95    5.95</time>
   <time name="orth">    0.50    0.50</time>
   <time name="total">    9.64    9.64</time>
   <energy>
    <i name="e_fr_energy">   -854.88237360 </i>
    <i name="e_wo_entrp">   -854.87921652 </i>
    <i name="e_0_energy">   -854.88132124 </i>
   </energy>
  </scstep>
  <scstep>
   <time name="diag">    2.36    2.36</time>
   <time name="diis">    5.96    5.96</time>
   <time name="orth">    0.49    0.49</time>
   <time name="total">    9.64    9.64</time>
   <energy>
    <i name="e_fr_energy">   -854.88233658 </i>
    <i name="e_wo_entrp">   -854.87957482 </i>
    <i name="e_0_energy">   -854.88141600 </i>
   </energy>
  </scstep>
  <scstep>
   <time name="diag">    2.37    2.37</time>
   <time name="diis">    5.66    5.66</time>
   <time name="orth">    0.49    0.49</time>
   <time name="total">    9.33    9.34</time>
   <energy>
    <i name="e_fr_energy">   -854.88229793 </i>
    <i name="e_wo_entrp">   -854.87997193 </i>
    <i name="e_0_energy">   -854.88152260 </i>
   </energy>
  </scstep>
  <scstep>
   <time name="diag">    2.37    2.37</time>
   <time name="diis">    5.47    5.47</time>
   <time name="orth">    0.50    0.50</time>
   <time name="total">    9.17    9.17</time>
   <energy>
    <i name="e_fr_energy">   -854.88226856 </i>
    <i name="e_wo_entrp">   -854.88027288 </i>
    <i name="e_0_energy">   -854.88160333 </i>
   </energy>
  </scstep>
  <scstep>
   <time name="diag">    2.37    2.37</time>
   <time name="diis">    5.48    5.48</time>
   <time name="orth">    0.50    0.50</time>
   <time name="total">    9.18    9.18</time>
   <energy>
    <i name="e_fr_energy">   -854.88224122 </i>
    <i name="e_wo_entrp">   -854.88056242 </i>
    <i name="e_0_energy">   -854.88168162 </i>
   </energy>
  </scstep>
  <scstep>
   <time name="diag">    2.37    2.37</time>
   <time name="diis">    5.25    5.25</time>
   <time name="orth">    0.49    0.49</time>
   <time name="total">    8.95    8.95</time>
   <energy>
    <i name="e_fr_energy">   -854.88221218 </i>
    <i name="e_wo_entrp">   -854.88086724 </i>
    <i name="e_0_energy">   -854.88176387 </i>
   </energy>
  </scstep>
  <scstep>
   <time name="diag">    2.37    2.37</time>
   <time name="diis">    5.14    5.14</time>
   <time name="orth">    0.49    0.49</time>
   <time name="total">    8.84    8.84</time>
   <energy>
    <i name="e_fr_energy">   -854.88219163 </i>
    <i name="e_wo_entrp">   -854.88108759 </i>
    <i name="e_0_energy">   -854.88182362 </i>
   </energy>
  </scstep>
  <scstep>
   <time name="diag">    2.37    2.37</time>
   <time name="diis">    5.05    5.05</time>
   <time name="orth">    0.49    0.49</time>
   <time name="total">    8.75    8.75</time>
   <energy>
    <i name="e_fr_energy">   -854.88217573 </i>
    <i name="e_wo_entrp">   -854.88126675 </i>
    <i name="e_0_energy">   -854.88187273 </i>
   </energy>
  </scstep>
  <scstep>
   <time name="diag">    2.38    2.38</time>
   <time name="diis">    4.84    4.84</time>
   <time name="orth">    0.50    0.50</time>
   <time name="total">    8.54    8.54</time>
   <energy>
    <i name="e_fr_energy">   -854.88216201 </i>
    <i name="e_wo_entrp">   -854.88142628 </i>
    <i name="e_0_energy">   -854.88191677 </i>
   </energy>
  </scstep>
  <scstep>
   <time name="diag">    2.38    2.38</time>
   <time name="diis">    4.95    4.95</time>
   <time name="orth">    0.49    0.49</time>
   <time name="total">    8.65    8.66</time>
   <energy>
    <i name="e_fr_energy">   -854.88214321 </i>
    <i name="e_wo_entrp">   -854.88163729 </i>
    <i name="e_0_energy">   -854.88197457 </i>
   </energy>
  </scstep>
  <scstep>
   <time name="diag">    2.38    2.38</time>
   <time name="diis">    4.64    4.64</time>
   <time name="orth">    0.50    0.50</time>
   <time name="total">    8.34    8.34</time>
   <energy>
    <i name="e_fr_energy">   -854.88213011 </i>
    <i name="e_wo_entrp">   -854.88178998 </i>
    <i name="e_0_energy">   -854.88201673 </i>
   </energy>
  </scstep>
  <scstep>
   <time name="diag">    2.38    2.38</time>
   <time name="diis">    4.65    4.65</time>
   <time name="orth">    0.49    0.49</time>
   <time name="total">    8.35    8.35</time>
   <energy>
    <i name="e_fr_energy">   -854.88211913 </i>
    <i name="e_wo_entrp">   -854.88192252 </i>
    <i name="e_0_energy">   -854.88205359 </i>
   </energy>
  </scstep>
  <scstep>
   <time name="diag">    2.38    2.38</time>
   <time name="diis">    4.48    4.48</time>
   <time name="orth">    0.50    0.50</time>
   <time name="total">    8.18    8.19</time>
   <energy>
    <i name="e_fr_energy">   -854.88210929 </i>
    <i name="e_wo_entrp">   -854.88204426 </i>
    <i name="e_0_energy">   -854.88208761 </i>
   </energy>
  </scstep>
  <scstep>
   <time name="diag">    2.37    2.37</time>
   <time name="diis">    4.43    4.43</time>
   <time name="orth">    0.50    0.50</time>
   <time name="total">    8.14    8.14</time>
   <energy>
    <i name="e_fr_energy">   -854.88209337 </i>
    <i name="e_wo_entrp">   -854.88222974 </i>
    <i name="e_0_energy">   -854.88213882 </i>
   </energy>
  </scstep>
  <scstep>
   <time name="diag">    2.38    2.38</time>
   <time name="diis">    4.41    4.41</time>
   <time name="orth">    0.49    0.49</time>
   <time name="total">    8.12    8.13</time>
   <energy>
    <i name="e_fr_energy">   -854.88208227 </i>
    <i name="e_wo_entrp">   -854.88236258 </i>
    <i name="e_0_energy">   -854.88217570 </i>
   </energy>
  </scstep>
  <scstep>
   <time name="diag">    2.38    2.38</time>
   <time name="diis">    4.42    4.43</time>
   <time name="orth">    0.50    0.50</time>
   <time name="total">    8.14    8.14</time>
   <energy>
    <i name="e_fr_energy">   -854.88207345 </i>
    <i name="e_wo_entrp">   -854.88247386 </i>
    <i name="e_0_energy">   -854.88220692 </i>
   </energy>
  </scstep>
  <scstep>
   <time name="diag">    2.38    2.38</time>
   <time name="diis">    4.36    4.36</time>
   <time name="orth">    0.49    0.49</time>
   <time name="total">    8.07    8.07</time>
   <energy>
    <i name="e_fr_energy">   -854.88206552 </i>
    <i name="e_wo_entrp">   -854.88257413 </i>
    <i name="e_0_energy">   -854.88223506 </i>
   </energy>
  </scstep>
  <scstep>
   <time name="diag">    2.38    2.38</time>
   <time name="diis">    4.25    4.25</time>
   <time name="orth">    0.49    0.49</time>
   <time name="total">    7.96    7.96</time>
   <energy>
    <i name="e_fr_energy">   -854.88205810 </i>
    <i name="e_wo_entrp">   -854.88266976 </i>
    <i name="e_0_energy">   -854.88226199 </i>
   </energy>
  </scstep>
  <scstep>
   <time name="diag">    2.37    2.37</time>
   <time name="diis">    4.28    4.28</time>
   <time name="orth">    0.50    0.50</time>
   <time name="total">    7.99    7.99</time>
   <energy>
    <i name="e_fr_energy">   -854.88205102 </i>
    <i name="e_wo_entrp">   -854.88276126 </i>
    <i name="e_0_energy">   -854.88228777 </i>
   </energy>
  </scstep>
  <scstep>
   <time name="diag">    2.37    2.37</time>
   <time name="diis">    4.29    4.30</time>
   <time name="orth">    0.49    0.49</time>
   <time name="total">    7.99    8.01</time>
   <energy>
    <i name="e_fr_energy">   -854.88204425 </i>
    <i name="e_wo_entrp">   -854.88285045 </i>
    <i name="e_0_energy">   -854.88231298 </i>
   </energy>
  </scstep>
  <scstep>
   <time name="diag">    2.38    2.38</time>
   <time name="diis">    5.07    5.07</time>
   <time name="orth">    0.50    0.50</time>
   <time name="total">    8.78    8.79</time>
   <energy>
    <i name="e_fr_energy">   -854.88203779 </i>
    <i name="e_wo_entrp">   -854.88293764 </i>
    <i name="e_0_energy">   -854.88233774 </i>
   </energy>
  </scstep>
  <scstep>
   <time name="diag">    2.38    2.38</time>
   <time name="diis">    4.16    4.16</time>
   <time name="orth">    0.50    0.50</time>
   <time name="total">    7.88    7.88</time>
   <energy>
    <i name="e_fr_energy">   -854.88203149 </i>
    <i name="e_wo_entrp">   -854.88301994 </i>
    <i name="e_0_energy">   -854.88236098 </i>
   </energy>
  </scstep>
  <scstep>
   <time name="diag">    2.38    2.38</time>
   <time name="diis">    4.70    4.70</time>
   <time name="orth">    0.50    0.50</time>
   <time name="total">    8.42    8.42</time>
   <energy>
    <i name="e_fr_energy">   -854.88201581 </i>
    <i name="e_wo_entrp">   -854.88319868 </i>
    <i name="e_0_energy">   -854.88241010 </i>
   </energy>
  </scstep>
  <scstep>
   <time name="diag">    2.37    2.37</time>
   <time name="diis">    4.71    4.71</time>
   <time name="orth">    0.50    0.50</time>
   <time name="total">    8.42    8.42</time>
   <energy>
    <i name="e_fr_energy">   -854.88200889 </i>
    <i name="e_wo_entrp">   -854.88328690 </i>
    <i name="e_0_energy">   -854.88243489 </i>
   </energy>
  </scstep>
  <scstep>
   <time name="diag">    2.37    2.37</time>
   <time name="diis">    4.07    4.07</time>
   <time name="orth">    0.50    0.50</time>
   <time name="total">    7.77    7.78</time>
   <energy>
    <i name="e_fr_energy">   -854.88200333 </i>
    <i name="e_wo_entrp">   -854.88336021 </i>
    <i name="e_0_energy">   -854.88245563 </i>
   </energy>
  </scstep>
  <scstep>
   <time name="diag">    2.37    2.37</time>
   <time name="diis">    4.07    4.07</time>
   <time name="orth">    0.49    0.49</time>
   <time name="total">    7.78    7.78</time>
   <energy>
    <i name="e_fr_energy">   -854.88199824 </i>
    <i name="e_wo_entrp">   -854.88342840 </i>
    <i name="e_0_energy">   -854.88247496 </i>
   </energy>
  </scstep>
  <scstep>
   <time name="diag">    2.38    2.38</time>
   <time name="diis">    4.03    4.03</time>
   <time name="orth">    0.50    0.50</time>
   <time name="total">    7.75    7.76</time>
   <energy>
    <i name="e_fr_energy">   -854.88199332 </i>
    <i name="e_wo_entrp">   -854.88349381 </i>
    <i name="e_0_energy">   -854.88249349 </i>
   </energy>
  </scstep>
  <scstep>
   <time name="diag">    2.39    2.40</time>
   <time name="diis">    4.92    4.92</time>
   <time name="orth">    0.49    0.49</time>
   <time name="total">    8.65    8.66</time>
   <energy>
    <i name="e_fr_energy">   -854.88198853 </i>
    <i name="e_wo_entrp">   -854.88355588 </i>
    <i name="e_0_energy">   -854.88251098 </i>
   </energy>
  </scstep>
  <scstep>
   <time name="diag">    2.38    2.38</time>
   <time name="diis">    4.00    4.00</time>
   <time name="orth">    0.49    0.49</time>
   <time name="total">    7.72    7.72</time>
   <energy>
    <i name="e_fr_energy">   -854.88198394 </i>
    <i name="e_wo_entrp">   -854.88361718 </i>
    <i name="e_0_energy">   -854.88252835 </i>
   </energy>
  </scstep>
  <scstep>
   <time name="diag">    2.38    2.38</time>
   <time name="diis">    3.99    3.99</time>
   <time name="orth">    0.49    0.49</time>
   <time name="total">    7.71    7.71</time>
   <energy>
    <i name="e_fr_energy">   -854.88197948 </i>
    <i name="e_wo_entrp">   -854.88367596 </i>
    <i name="e_0_energy">   -854.88254498 </i>
   </energy>
  </scstep>
  <scstep>
   <time name="diag">    2.38    2.38</time>
   <time name="diis">    4.13    4.13</time>
   <time name="orth">    0.49    0.49</time>
   <time name="total">    7.85    7.85</time>
   <energy>
    <i name="e_fr_energy">   -854.88197513 </i>
    <i name="e_wo_entrp">   -854.88373280 </i>
    <i name="e_0_energy">   -854.88256102 </i>
   </energy>
  </scstep>
  <scstep>
   <time name="diag">    2.38    2.38</time>
   <time name="diis">    3.97    3.97</time>
   <time name="orth">    0.49    0.49</time>
   <time name="total">    7.69    7.69</time>
   <energy>
    <i name="e_fr_energy">   -854.88197094 </i>
    <i name="e_wo_entrp">   -854.88378846 </i>
    <i name="e_0_energy">   -854.88257678 </i>
   </energy>
  </scstep>
  <scstep>
   <time name="diag">    2.38    2.38</time>
   <time name="diis">    3.93    3.93</time>
   <time name="orth">    0.50    0.50</time>
   <time name="total">    7.65    7.65</time>
   <energy>
    <i name="e_fr_energy">   -854.88196688 </i>
    <i name="e_wo_entrp">   -854.88384266 </i>
    <i name="e_0_energy">   -854.88259214 </i>
   </energy>
  </scstep>
  <scstep>
   <time name="diag">    2.38    2.38</time>
   <time name="diis">    3.92    3.92</time>
   <time name="orth">    0.49    0.49</time>
   <time name="total">    7.63    7.63</time>
   <energy>
    <i name="e_fr_energy">   -854.88196296 </i>
    <i name="e_wo_entrp">   -854.88389511 </i>
    <i name="e_0_energy">   -854.88260701 </i>
   </energy>
  </scstep>
  <scstep>
   <time name="diag">    2.38    2.38</time>
   <time name="diis">    3.89    3.89</time>
   <time name="orth">    0.51    0.51</time>
   <time name="total">    7.62    7.62</time>
   <energy>
    <i name="e_fr_energy">   -854.88195915 </i>
    <i name="e_wo_entrp">   -854.88394567 </i>
    <i name="e_0_energy">   -854.88262133 </i>
   </energy>
  </scstep>
  <scstep>
   <time name="diag">    2.38    2.38</time>
   <time name="diis">    4.18    4.18</time>
   <time name="orth">    0.49    0.49</time>
   <time name="total">    7.89    7.89</time>
   <energy>
    <i name="e_fr_energy">   -854.88195547 </i>
    <i name="e_wo_entrp">   -854.88399452 </i>
    <i name="e_0_energy">   -854.88263515 </i>
   </energy>
  </scstep>
  <scstep>
   <time name="diag">    2.38    2.38</time>
   <time name="diis">    3.96    3.97</time>
   <time name="orth">    0.50    0.50</time>
   <time name="total">    7.69    7.69</time>
   <energy>
    <i name="e_fr_energy">   -854.88195189 </i>
    <i name="e_wo_entrp">   -854.88404248 </i>
    <i name="e_0_energy">   -854.88264876 </i>
   </energy>
  </scstep>
  <scstep>
   <time name="diag">    2.38    2.38</time>
   <time name="diis">    3.90    3.90</time>
   <time name="orth">    0.49    0.49</time>
   <time name="total">    7.62    7.62</time>
   <energy>
    <i name="e_fr_energy">   -854.88194844 </i>
    <i name="e_wo_entrp">   -854.88408857 </i>
    <i name="e_0_energy">   -854.88266182 </i>
   </energy>
  </scstep>
  <scstep>
   <time name="diag">    2.38    2.38</time>
   <time name="diis">    3.85    3.85</time>
   <time name="orth">    0.49    0.49</time>
   <time name="total">    7.57    7.57</time>
   <energy>
    <i name="e_fr_energy">   -854.88194495 </i>
    <i name="e_wo_entrp">   -854.88413452 </i>
    <i name="e_0_energy">   -854.88267480 </i>
   </energy>
  </scstep>
  <scstep>
   <time name="diag">    2.39    2.39</time>
   <time name="diis">    3.84    3.84</time>
   <time name="orth">    0.49    0.49</time>
   <time name="total">    7.55    7.55</time>
   <energy>
    <i name="e_fr_energy">   -854.88194171 </i>
    <i name="e_wo_entrp">   -854.88417770 </i>
    <i name="e_0_energy">   -854.88268704 </i>
   </energy>
  </scstep>
  <scstep>
   <time name="diag">    2.38    2.38</time>
   <time name="diis">    3.82    3.82</time>
   <time name="orth">    0.49    0.49</time>
   <time name="total">    7.53    7.53</time>
   <energy>
    <i name="e_fr_energy">   -854.88193858 </i>
    <i name="e_wo_entrp">   -854.88421926 </i>
    <i name="e_0_energy">   -854.88269881 </i>
   </energy>
  </scstep>
  <scstep>
   <time name="diag">    2.38    2.38</time>
   <time name="diis">    3.79    3.79</time>
   <time name="orth">    0.50    0.50</time>
   <time name="total">    7.50    7.50</time>
   <energy>
    <i name="e_fr_energy">   -854.88193555 </i>
    <i name="e_wo_entrp">   -854.88425944 </i>
    <i name="e_0_energy">   -854.88271018 </i>
   </energy>
  </scstep>
  <scstep>
   <time name="diag">    2.38    2.38</time>
   <time name="diis">    3.78    3.80</time>
   <time name="orth">    0.50    0.50</time>
   <time name="total">    7.50    7.53</time>
   <energy>
    <i name="e_fr_energy">   -854.88193263 </i>
    <i name="e_wo_entrp">   -854.88429832 </i>
    <i name="e_0_energy">   -854.88272119 </i>
   </energy>
  </scstep>
  <scstep>
   <time name="diag">    2.37    2.37</time>
   <time name="diis">    3.79    3.79</time>
   <time name="orth">    0.49    0.49</time>
   <time name="total">    7.50    7.50</time>
   <energy>
    <i name="e_fr_energy">   -854.88192981 </i>
    <i name="e_wo_entrp">   -854.88433579 </i>
    <i name="e_0_energy">   -854.88273180 </i>
   </energy>
  </scstep>
  <scstep>
   <time name="diag">    2.37    2.37</time>
   <time name="diis">    3.78    3.78</time>
   <time name="orth">    0.50    0.50</time>
   <time name="total">    7.49    7.49</time>
   <energy>
    <i name="e_fr_energy">   -854.88192708 </i>
    <i name="e_wo_entrp">   -854.88437203 </i>
    <i name="e_0_energy">   -854.88274207 </i>
   </energy>
  </scstep>
  <scstep>
   <time name="diag">    2.37    2.37</time>
   <time name="diis">    3.77    3.77</time>
   <time name="orth">    0.50    0.50</time>
   <time name="total">    7.50    7.50</time>
   <energy>
    <i name="e_fr_energy">   -854.88192445 </i>
    <i name="e_wo_entrp">   -854.88440698 </i>
    <i name="e_0_energy">   -854.88275196 </i>
   </energy>
  </scstep>
  <scstep>
   <time name="diag">    2.37    2.37</time>
   <time name="diis">    3.78    3.78</time>
   <time name="orth">    0.49    0.49</time>
   <time name="total">    7.49    7.49</time>
   <energy>
    <i name="e_fr_energy">   -854.88192191 </i>
    <i name="e_wo_entrp">   -854.88444076 </i>
    <i name="e_0_energy">   -854.88276152 </i>
   </energy>
  </scstep>
  <scstep>
   <time name="diag">    2.37    2.37</time>
   <time name="diis">    3.76    3.76</time>
   <time name="orth">    0.49    0.49</time>
   <time name="total">    7.48    7.48</time>
   <energy>
    <i name="e_fr_energy">   -854.88191945 </i>
    <i name="e_wo_entrp">   -854.88447332 </i>
    <i name="e_0_energy">   -854.88277074 </i>
   </energy>
  </scstep>
  <scstep>
   <time name="diag">    2.38    2.38</time>
   <time name="diis">    3.89    3.89</time>
   <time name="orth">    0.50    0.50</time>
   <time name="total">    7.61    7.61</time>
   <energy>
    <i name="e_fr_energy">   -854.88191705 </i>
    <i name="e_wo_entrp">   -854.88450409 </i>
    <i name="e_0_energy">   -854.88277940 </i>
   </energy>
  </scstep>
  <scstep>
   <time name="diag">    2.37    2.37</time>
   <time name="diis">    3.81    3.81</time>
   <time name="orth">    0.50    0.50</time>
   <time name="total">    7.52    7.53</time>
   <energy>
    <i name="e_fr_energy">   -854.88191462 </i>
    <i name="e_wo_entrp">   -854.88453581 </i>
    <i name="e_0_energy">   -854.88278835 </i>
   </energy>
  </scstep>
  <scstep>
   <time name="diag">    2.38    2.38</time>
   <time name="diis">    3.75    3.77</time>
   <time name="orth">    0.49    0.49</time>
   <time name="total">    7.46    7.48</time>
   <energy>
    <i name="e_fr_energy">   -854.88191240 </i>
    <i name="e_wo_entrp">   -854.88456516 </i>
    <i name="e_0_energy">   -854.88279665 </i>
   </energy>
  </scstep>
  <scstep>
   <time name="diag">    2.38    2.38</time>
   <time name="diis">    3.82    3.82</time>
   <time name="orth">    0.50    0.50</time>
   <time name="total">    7.54    7.54</time>
   <energy>
    <i name="e_fr_energy">   -854.88191028 </i>
    <i name="e_wo_entrp">   -854.88459321 </i>
    <i name="e_0_energy">   -854.88280459 </i>
   </energy>
  </scstep>
  <scstep>
   <time name="diag">    2.37    2.37</time>
   <time name="diis">    3.74    3.75</time>
   <time name="orth">    0.49    0.49</time>
   <time name="total">    7.46    7.46</time>
   <energy>
    <i name="e_fr_energy">   -854.88190824 </i>
    <i name="e_wo_entrp">   -854.88462051 </i>
    <i name="e_0_energy">   -854.88281233 </i>
   </energy>
  </scstep>
  <scstep>
   <time name="diag">    2.37    2.37</time>
   <time name="diis">    4.03    4.03</time>
   <time name="orth">    0.49    0.49</time>
   <time name="total">    7.74    7.74</time>
   <energy>
    <i name="e_fr_energy">   -854.88190625 </i>
    <i name="e_wo_entrp">   -854.88464619 </i>
    <i name="e_0_energy">   -854.88281956 </i>
   </energy>
  </scstep>
  <scstep>
   <time name="diag">    2.37    2.37</time>
   <time name="diis">    3.76    3.76</time>
   <time name="orth">    0.49    0.49</time>
   <time name="total">    7.47    7.47</time>
   <energy>
    <i name="e_fr_energy">   -854.88190436 </i>
    <i name="e_wo_entrp">   -854.88467183 </i>
    <i name="e_0_energy">   -854.88282685 </i>
   </energy>
  </scstep>
  <scstep>
   <time name="diag">    2.37    2.37</time>
   <time name="diis">    3.77    3.77</time>
   <time name="orth">    0.49    0.50</time>
   <time name="total">    7.48    7.49</time>
   <energy>
    <i name="e_fr_energy">   -854.88190254 </i>
    <i name="e_wo_entrp">   -854.88469627 </i>
    <i name="e_0_energy">   -854.88283378 </i>
   </energy>
  </scstep>
  <scstep>
   <time name="diag">    2.38    2.38</time>
   <time name="diis">    3.77    3.77</time>
   <time name="orth">    0.49    0.49</time>
   <time name="total">    7.49    7.49</time>
   <energy>
    <i name="e_fr_energy">   -854.88190078 </i>
    <i name="e_wo_entrp">   -854.88471968 </i>
    <i name="e_0_energy">   -854.88284041 </i>
   </energy>
  </scstep>
  <scstep>
   <time name="diag">    2.38    2.38</time>
   <time name="diis">    3.78    3.78</time>
   <time name="orth">    0.50    0.50</time>
   <time name="total">    7.51    7.51</time>
   <energy>
    <i name="e_fr_energy">   -854.88189909 </i>
    <i name="e_wo_entrp">   -854.88474238 </i>
    <i name="e_0_energy">   -854.88284685 </i>
   </energy>
  </scstep>
  <scstep>
   <time name="diag">    2.38    2.38</time>
   <time name="diis">    4.12    4.14</time>
   <time name="orth">    0.50    0.50</time>
   <time name="total">    7.84    7.86</time>
   <energy>
    <i name="e_fr_energy">   -854.88189738 </i>
    <i name="e_wo_entrp">   -854.88476466 </i>
    <i name="e_0_energy">   -854.88285314 </i>
   </energy>
  </scstep>
  <scstep>
   <time name="diag">    2.37    2.37</time>
   <time name="diis">    3.88    3.88</time>
   <time name="orth">    0.49    0.49</time>
   <time name="total">    7.59    7.59</time>
   <energy>
    <i name="e_fr_energy">   -854.88189576 </i>
    <i name="e_wo_entrp">   -854.88478456 </i>
    <i name="e_0_energy">   -854.88285869 </i>
   </energy>
  </scstep>
  <scstep>
   <time name="diag">    2.38    2.38</time>
   <time name="diis">    4.12    4.12</time>
   <time name="orth">    0.50    0.50</time>
   <time name="total">    7.85    7.85</time>
   <energy>
    <i name="e_fr_energy">   -854.88189424 </i>
    <i name="e_wo_entrp">   -854.88480432 </i>
    <i name="e_0_energy">   -854.88286427 </i>
   </energy>
  </scstep>
  <scstep>
   <time name="diag">    2.37    2.37</time>
   <time name="diis">    3.73    3.74</time>
   <time name="orth">    0.50    0.50</time>
   <time name="total">    7.45    7.45</time>
   <energy>
    <i name="e_fr_energy">   -854.88189263 </i>
    <i name="e_wo_entrp">   -854.88482549 </i>
    <i name="e_0_energy">   -854.88287025 </i>
   </energy>
  </scstep>
  <scstep>
   <time name="diag">    2.37    2.37</time>
   <time name="diis">    3.73    3.73</time>
   <time name="orth">    0.49    0.49</time>
   <time name="total">    7.44    7.44</time>
   <energy>
    <i name="e_fr_energy">   -854.88189121 </i>
    <i name="e_wo_entrp">   -854.88484424 </i>
    <i name="e_0_energy">   -854.88287555 </i>
   </energy>
  </scstep>
  <scstep>
   <time name="diag">    2.38    2.38</time>
   <time name="diis">    3.98    3.98</time>
   <time name="orth">    0.50    0.50</time>
   <time name="total">    7.70    7.70</time>
   <energy>
    <i name="e_fr_energy">   -854.88188985 </i>
    <i name="e_wo_entrp">   -854.88486175 </i>
    <i name="e_0_energy">   -854.88288048 </i>
   </energy>
  </scstep>
  <scstep>
   <time name="diag">    2.37    2.37</time>
   <time name="diis">    3.78    3.78</time>
   <time name="orth">    0.50    0.50</time>
   <time name="total">    7.49    7.49</time>
   <energy>
    <i name="e_fr_energy">   -854.88188855 </i>
    <i name="e_wo_entrp">   -854.88487918 </i>
    <i name="e_0_energy">   -854.88288542 </i>
   </energy>
  </scstep>
  <scstep>
   <time name="diag">    2.37    2.37</time>
   <time name="diis">    3.88    3.88</time>
   <time name="orth">    0.50    0.50</time>
   <time name="total">    7.60    7.60</time>
   <energy>
    <i name="e_fr_energy">   -854.88188729 </i>
    <i name="e_wo_entrp">   -854.88489556 </i>
    <i name="e_0_energy">   -854.88289004 </i>
   </energy>
  </scstep>
  <scstep>
   <time name="diag">    2.37    2.37</time>
   <time name="diis">    3.75    3.76</time>
   <time name="orth">    0.49    0.49</time>
   <time name="total">    7.46    7.47</time>
   <energy>
    <i name="e_fr_energy">   -854.88188607 </i>
    <i name="e_wo_entrp">   -854.88491170 </i>
    <i name="e_0_energy">   -854.88289462 </i>
   </energy>
  </scstep>
  <scstep>
   <time name="diag">    2.37    2.37</time>
   <time name="diis">    3.71    3.72</time>
   <time name="orth">    0.50    0.50</time>
   <time name="total">    7.42    7.43</time>
   <energy>
    <i name="e_fr_energy">   -854.88188491 </i>
    <i name="e_wo_entrp">   -854.88492722 </i>
    <i name="e_0_energy">   -854.88289901 </i>
   </energy>
  </scstep>
  <scstep>
   <time name="diag">    2.37    2.37</time>
   <time name="diis">    3.71    3.71</time>
   <time name="orth">    0.50    0.50</time>
   <time name="total">    7.42    7.42</time>
   <energy>
    <i name="e_fr_energy">   -854.88188380 </i>
    <i name="e_wo_entrp">   -854.88494231 </i>
    <i name="e_0_energy">   -854.88290330 </i>
   </energy>
  </scstep>
  <scstep>
   <time name="diag">    2.37    2.37</time>
   <time name="diis">    3.72    3.72</time>
   <time name="orth">    0.49    0.49</time>
   <time name="total">    7.43    7.43</time>
   <energy>
    <i name="e_fr_energy">   -854.88188273 </i>
    <i name="e_wo_entrp">   -854.88495679 </i>
    <i name="e_0_energy">   -854.88290742 </i>
   </energy>
  </scstep>
  <scstep>
   <time name="diag">    2.37    2.37</time>
   <time name="diis">    3.72    3.73</time>
   <time name="orth">    0.49    0.49</time>
   <time name="total">    7.42    7.43</time>
   <energy>
    <i name="e_fr_energy">   -854.88188170 </i>
    <i name="e_wo_entrp">   -854.88497067 </i>
    <i name="e_0_energy">   -854.88291136 </i>
   </energy>
  </scstep>
  <scstep>
   <time name="diag">    2.37    2.37</time>
   <time name="diis">    3.84    3.84</time>
   <time name="orth">    0.49    0.49</time>
   <time name="total">    6.82    6.82</time>
   <energy>
    <i name="alphaZ">   6137.11160893 </i>
    <i name="ewald"> -62509.70265403 </i>
    <i name="hartreedc"> -10759.97655471 </i>
    <i name="XCdc">    305.61124753 </i>
    <i name="pawpsdc">  54229.57498638 </i>
    <i name="pawaedc"> -55096.76950323 </i>
    <i name="eentropy">      0.00310313 </i>
    <i name="bandstr">   2637.59500472 </i>
    <i name="atom">  64201.67088057 </i>
    <i name="e_fr_energy">   -854.88188070 </i>
    <i name="e_wo_entrp">   -854.88498384 </i>
    <i name="e_0_energy">   -854.88291508 </i>
   </energy>
  </scstep>
  <structure>
   <crystal>
    <varray name="basis" >
     <v>      10.95040035       0.00000000       0.00000000 </v>
     <v>       0.00000000      10.95040035       0.00000000 </v>
     <v>       0.00000000       0.00000000      10.95040035 </v>
    </varray>
    <i name="volume">   1313.07639006 </i>
    <varray name="rec_basis" >
     <v>       0.09132086       0.00000000       0.00000000 </v>
     <v>       0.00000000       0.09132086       0.00000000 </v>
     <v>       0.00000000       0.00000000       0.09132086 </v>
    </varray>
   </crystal>
   <varray name="positions" >
    <v>       0.00000000       0.00000000       0.00000000 </v>
    <v>       0.00000000       0.16666999       0.16666999 </v>
    <v>       0.16666999       0.00000000       0.16666999 </v>
    <v>       0.16666999       0.16666999       0.00000000 </v>
    <v>       0.33333001       0.00000000       0.00000000 </v>
    <v>       0.33333001       0.16666999       0.16666999 </v>
    <v>       0.50000000       0.00000000       0.16666999 </v>
    <v>       0.50000000       0.16666999       0.00000000 </v>
    <v>       0.66667002       0.00000000       0.00000000 </v>
    <v>       0.66667002       0.16666999       0.16666999 </v>
    <v>       0.83332998       0.00000000       0.16666999 </v>
    <v>       0.83332998       0.16666999       0.00000000 </v>
    <v>       0.00000000       0.33333001       0.00000000 </v>
    <v>       0.00000000       0.50000000       0.16666999 </v>
    <v>       0.16666999       0.33333001       0.16666999 </v>
    <v>       0.16666999       0.50000000       0.00000000 </v>
    <v>       0.33333001       0.33333001       0.00000000 </v>
    <v>       0.33333001       0.50000000       0.16666999 </v>
    <v>       0.50000000       0.33333001       0.16666999 </v>
    <v>       0.50000000       0.50000000       0.00000000 </v>
    <v>       0.66667002       0.33333001       0.00000000 </v>
    <v>       0.66667002       0.50000000       0.16666999 </v>
    <v>       0.83332998       0.33333001       0.16666999 </v>
    <v>       0.83332998       0.50000000       0.00000000 </v>
    <v>       0.00000000       0.66667002       0.00000000 </v>
    <v>       0.00000000       0.83332998       0.16666999 </v>
    <v>       0.16666999       0.66667002       0.16666999 </v>
    <v>       0.16666999       0.83332998       0.00000000 </v>
    <v>       0.33333001       0.66667002       0.00000000 </v>
    <v>       0.33333001       0.83332998       0.16666999 </v>
    <v>       0.50000000       0.66667002       0.16666999 </v>
    <v>       0.50000000       0.83332998       0.00000000 </v>
    <v>       0.66667002       0.66667002       0.00000000 </v>
    <v>       0.66667002       0.83332998       0.16666999 </v>
    <v>       0.83332998       0.66667002       0.16666999 </v>
    <v>       0.83332998       0.83332998       0.00000000 </v>
    <v>       0.00000000       0.00000000       0.33333001 </v>
    <v>       0.00000000       0.16666999       0.50000000 </v>
    <v>       0.16666999       0.00000000       0.50000000 </v>
    <v>       0.16666999       0.16666999       0.33333001 </v>
    <v>       0.33333001       0.00000000       0.33333001 </v>
    <v>       0.33333001       0.16666999       0.50000000 </v>
    <v>       0.50000000       0.00000000       0.50000000 </v>
    <v>       0.50000000       0.16666999       0.33333001 </v>
    <v>       0.66667002       0.00000000       0.33333001 </v>
    <v>       0.66667002       0.16666999       0.50000000 </v>
    <v>       0.83332998       0.00000000       0.50000000 </v>
    <v>       0.83332998       0.16666999       0.33333001 </v>
    <v>       0.00000000       0.33333001       0.33333001 </v>
    <v>       0.00000000       0.50000000       0.50000000 </v>
    <v>       0.16666999       0.33333001       0.50000000 </v>
    <v>       0.16666999       0.50000000       0.33333001 </v>
    <v>       0.33333001       0.33333001       0.33333001 </v>
    <v>       0.33333001       0.50000000       0.50000000 </v>
    <v>       0.50000000       0.33333001       0.50000000 </v>
    <v>       0.50000000       0.50000000       0.33333001 </v>
    <v>       0.66667002       0.33333001       0.33333001 </v>
    <v>       0.66667002       0.50000000       0.50000000 </v>
    <v>       0.83332998       0.33333001       0.50000000 </v>
    <v>       0.83332998       0.50000000       0.33333001 </v>
    <v>       0.00000000       0.66667002       0.33333001 </v>
    <v>       0.00000000       0.83332998       0.50000000 </v>
    <v>       0.16666999       0.66667002       0.50000000 </v>
    <v>       0.16666999       0.83332998       0.33333001 </v>
    <v>       0.33333001       0.66667002       0.33333001 </v>
    <v>       0.33333001       0.83332998       0.50000000 </v>
    <v>       0.50000000       0.66667002       0.50000000 </v>
    <v>       0.50000000       0.83332998       0.33333001 </v>
    <v>       0.66667002       0.66667002       0.33333001 </v>
    <v>       0.66667002       0.83332998       0.50000000 </v>
    <v>       0.83332998       0.66667002       0.50000000 </v>
    <v>       0.83332998       0.83332998       0.33333001 </v>
    <v>       0.00000000       0.00000000       0.66667002 </v>
    <v>       0.00000000       0.16666999       0.83332998 </v>
    <v>       0.16666999       0.00000000       0.83332998 </v>
    <v>       0.16666999       0.16666999       0.66667002 </v>
    <v>       0.33333001       0.00000000       0.66667002 </v>
    <v>       0.33333001       0.16666999       0.83332998 </v>
    <v>       0.50000000       0.00000000       0.83332998 </v>
    <v>       0.50000000       0.16666999       0.66667002 </v>
    <v>       0.66667002       0.00000000       0.66667002 </v>
    <v>       0.66667002       0.16666999       0.83332998 </v>
    <v>       0.83332998       0.00000000       0.83332998 </v>
    <v>       0.83332998       0.16666999       0.66667002 </v>
    <v>       0.00000000       0.33333001       0.66667002 </v>
    <v>       0.00000000       0.50000000       0.83332998 </v>
    <v>       0.16666999       0.33333001       0.83332998 </v>
    <v>       0.16666999       0.50000000       0.66667002 </v>
    <v>       0.33333001       0.33333001       0.66667002 </v>
    <v>       0.33333001       0.50000000       0.83332998 </v>
    <v>       0.50000000       0.33333001       0.83332998 </v>
    <v>       0.50000000       0.50000000       0.66667002 </v>
    <v>       0.66667002       0.33333001       0.66667002 </v>
    <v>       0.66667002       0.50000000       0.83332998 </v>
    <v>       0.83332998       0.33333001       0.83332998 </v>
    <v>       0.83332998       0.50000000       0.66667002 </v>
    <v>       0.00000000       0.66667002       0.66667002 </v>
    <v>       0.00000000       0.83332998       0.83332998 </v>
    <v>       0.16666999       0.66667002       0.83332998 </v>
    <v>       0.16666999       0.83332998       0.66667002 </v>
    <v>       0.33333001       0.66667002       0.66667002 </v>
    <v>       0.33333001       0.83332998       0.83332998 </v>
    <v>       0.50000000       0.66667002       0.83332998 </v>
    <v>       0.50000000       0.83332998       0.66667002 </v>
    <v>       0.66667002       0.66667002       0.66667002 </v>
    <v>       0.66667002       0.83332998       0.83332998 </v>
    <v>       0.83332998       0.66667002       0.83332998 </v>
    <v>       0.83332998       0.83332998       0.66667002 </v>
   </varray>
  </structure>
  <varray name="forces" >
   <v>       0.00000000      -0.00000000       0.00000000 </v>
   <v>       0.00000000      -0.00025555      -0.00025555 </v>
   <v>      -0.00025555      -0.00000000      -0.00025555 </v>
   <v>      -0.00025555      -0.00025555       0.00000000 </v>
   <v>       0.00025488      -0.00000000       0.00000000 </v>
   <v>       0.00025485      -0.00025485      -0.00025485 </v>
   <v>       0.00000000      -0.00000000      -0.00025488 </v>
   <v>       0.00000000      -0.00025488       0.00000000 </v>
   <v>      -0.00025488      -0.00000000       0.00000000 </v>
   <v>      -0.00025485      -0.00025485      -0.00025485 </v>
   <v>       0.00025555      -0.00000000      -0.00025555 </v>
   <v>       0.00025555      -0.00025555       0.00000000 </v>
   <v>       0.00000000       0.00025488       0.00000000 </v>
   <v>       0.00000000      -0.00000000      -0.00025488 </v>
   <v>      -0.00025485       0.00025485      -0.00025485 </v>
   <v>      -0.00025488      -0.00000000       0.00000000 </v>
   <v>       0.00025555       0.00025555       0.00000000 </v>
   <v>       0.00025555      -0.00000000      -0.00025555 </v>
   <v>       0.00000000       0.00025555      -0.00025555 </v>
   <v>       0.00000000      -0.00000000       0.00000000 </v>
   <v>      -0.00025555       0.00025555       0.00000000 </v>
   <v>      -0.00025555      -0.00000000      -0.00025555 </v>
   <v>       0.00025485       0.00025485      -0.00025485 </v>
   <v>       0.00025488      -0.00000000       0.00000000 </v>
   <v>       0.00000000      -0.00025488       0.00000000 </v>
   <v>       0.00000000       0.00025555      -0.00025555 </v>
   <v>      -0.00025485      -0.00025485      -0.00025485 </v>
   <v>      -0.00025555       0.00025555       0.00000000 </v>
   <v>       0.00025555      -0.00025555       0.00000000 </v>
   <v>       0.00025485       0.00025485      -0.00025485 </v>
   <v>       0.00000000      -0.00025555      -0.00025555 </v>
   <v>       0.00000000       0.00025488       0.00000000 </v>
   <v>      -0.00025555      -0.00025555       0.00000000 </v>
   <v>      -0.00025485       0.00025485      -0.00025485 </v>
   <v>       0.00025485      -0.00025485      -0.00025485 </v>
   <v>       0.00025555       0.00025555       0.00000000 </v>
   <v>       0.00000000      -0.00000000       0.00025488 </v>
   <v>       0.00000000      -0.00025488       0.00000000 </v>
   <v>      -0.00025488      -0.00000000       0.00000000 </v>
   <v>      -0.00025485      -0.00025485       0.00025485 </v>
   <v>       0.00025555      -0.00000000       0.00025555 </v>
   <v>       0.00025555      -0.00025555       0.00000000 </v>
   <v>       0.00000000      -0.00000000       0.00000000 </v>
   <v>       0.00000000      -0.00025555       0.00025555 </v>
   <v>      -0.00025555      -0.00000000       0.00025555 </v>
   <v>      -0.00025555      -0.00025555       0.00000000 </v>
   <v>       0.00025488      -0.00000000       0.00000000 </v>
   <v>       0.00025485      -0.00025485       0.00025485 </v>
   <v>       0.00000000       0.00025555       0.00025555 </v>
   <v>       0.00000000      -0.00000000       0.00000000 </v>
   <v>      -0.00025555       0.00025555       0.00000000 </v>
   <v>      -0.00025555      -0.00000000       0.00025555 </v>
   <v>       0.00025485       0.00025485       0.00025485 </v>
   <v>       0.00025488      -0.00000000       0.00000000 </v>
   <v>       0.00000000       0.00025488       0.00000000 </v>
   <v>       0.00000000      -0.00000000       0.00025488 </v>
   <v>      -0.00025485       0.00025485       0.00025485 </v>
   <v>      -0.00025488      -0.00000000       0.00000000 </v>
   <v>       0.00025555       0.00025555       0.00000000 </v>
   <v>       0.00025555      -0.00000000       0.00025555 </v>
   <v>       0.00000000      -0.00025555       0.00025555 </v>
   <v>       0.00000000       0.00025488       0.00000000 </v>
   <v>      -0.00025555      -0.00025555       0.00000000 </v>
   <v>      -0.00025485       0.00025485       0.00025485 </v>
   <v>       0.00025485      -0.00025485       0.00025485 </v>
   <v>       0.00025555       0.00025555       0.00000000 </v>
   <v>       0.00000000      -0.00025488       0.00000000 </v>
   <v>       0.00000000       0.00025555       0.00025555 </v>
   <v>      -0.00025485      -0.00025485       0.00025485 </v>
   <v>      -0.00025555       0.00025555       0.00000000 </v>
   <v>       0.00025555      -0.00025555       0.00000000 </v>
   <v>       0.00025485       0.00025485       0.00025485 </v>
   <v>       0.00000000      -0.00000000      -0.00025488 </v>
   <v>       0.00000000      -0.00025555       0.00025555 </v>
   <v>      -0.00025555      -0.00000000       0.00025555 </v>
   <v>      -0.00025485      -0.00025485      -0.00025485 </v>
   <v>       0.00025555      -0.00000000      -0.00025555 </v>
   <v>       0.00025485      -0.00025485       0.00025485 </v>
   <v>       0.00000000      -0.00000000       0.00025488 </v>
   <v>       0.00000000      -0.00025555      -0.00025555 </v>
   <v>      -0.00025555      -0.00000000      -0.00025555 </v>
   <v>      -0.00025485      -0.00025485       0.00025485 </v>
   <v>       0.00025555      -0.00000000       0.00025555 </v>
   <v>       0.00025485      -0.00025485      -0.00025485 </v>
   <v>       0.00000000       0.00025555      -0.00025555 </v>
   <v>       0.00000000      -0.00000000       0.00025488 </v>
   <v>      -0.00025485       0.00025485       0.00025485 </v>
   <v>      -0.00025555      -0.00000000      -0.00025555 </v>
   <v>       0.00025485       0.00025485      -0.00025485 </v>
   <v>       0.00025555      -0.00000000       0.00025555 </v>
[...]
       <r>    -1.7941     2.8173     0.4079 </r>
       <r>    -1.7486     3.3294     0.5593 </r>
       <r>    -1.7031     3.6863     0.7270 </r>
       <r>    -1.6576     3.8699     0.9031 </r>
       <r>    -1.6121     3.9334     1.0820 </r>
       <r>    -1.5666     3.9639     1.2624 </r>
       <r>    -1.5211     4.0383     1.4461 </r>
       <r>    -1.4757     4.2066     1.6374 </r>
       <r>    -1.4302     4.4955     1.8419 </r>
       <r>    -1.3847     4.9158     2.0656 </r>
       <r>    -1.3392     5.4614     2.3140 </r>
       <r>    -1.2937     6.0962     2.5914 </r>
       <r>    -1.2482     6.7280     2.8974 </r>
       <r>    -1.2027     7.1959     3.2248 </r>
       <r>    -1.1572     7.3173     3.5577 </r>
       <r>    -1.1117     6.9967     3.8760 </r>
       <r>    -1.0662     6.3244     4.1637 </r>
       <r>    -1.0207     5.5732     4.4172 </r>
       <r>    -0.9752     5.0815     4.6484 </r>
       <r>    -0.9297     5.1005     4.8804 </r>
       <r>    -0.8843     5.7032     5.1399 </r>
       <r>    -0.8388     6.7917     5.4488 </r>
       <r>    -0.7933     8.1647     5.8203 </r>
       <r>    -0.7478     9.5755     6.2559 </r>
       <r>    -0.7023    10.7457     6.7447 </r>
       <r>    -0.6568    11.3747     7.2622 </r>
       <r>    -0.6113    11.2202     7.7726 </r>
       <r>    -0.5658    10.2514     8.2390 </r>
       <r>    -0.5203     8.7580     8.6374 </r>
       <r>    -0.4748     7.2868     8.9689 </r>
       <r>    -0.4293     6.4071     9.2604 </r>
       <r>    -0.3838     6.4502     9.5538 </r>
       <r>    -0.3383     7.3868     9.8898 </r>
       <r>    -0.2929     8.8896    10.2943 </r>
       <r>    -0.2474    10.5040    10.7721 </r>
       <r>    -0.2019    11.8142    11.3096 </r>
       <r>    -0.1564    12.5479    11.8804 </r>
       <r>    -0.1109    12.6324    12.4551 </r>
       <r>    -0.0654    12.2145    13.0107 </r>
       <r>    -0.0199    11.6175    13.5392 </r>
       <r>     0.0256    11.2096    14.0492 </r>
       <r>     0.0711    11.2321    14.5602 </r>
       <r>     0.1166    11.6952    15.0922 </r>
       <r>     0.1621    12.4129    15.6569 </r>
       <r>     0.2076    13.1412    16.2547 </r>
       <r>     0.2530    13.7071    16.8783 </r>
       <r>     0.2985    14.0463    17.5173 </r>
       <r>     0.3440    14.1558    18.1613 </r>
       <r>     0.3895    14.0368    18.7998 </r>
       <r>     0.4350    13.6860    19.4224 </r>
       <r>     0.4805    13.1349    20.0200 </r>
       <r>     0.5260    12.5071    20.5890 </r>
       <r>     0.5715    12.0570    21.1375 </r>
       <r>     0.6170    12.1446    21.6899 </r>
       <r>     0.6625    13.0986    22.2858 </r>
       <r>     0.7080    14.9901    22.9678 </r>
       <r>     0.7535    17.4645    23.7623 </r>
       <r>     0.7990    19.8112    24.6635 </r>
       <r>     0.8444    21.3078    25.6329 </r>
       <r>     0.8899    21.6299    26.6169 </r>
       <r>     0.9354    21.0178    27.5730 </r>
       <r>     0.9809    20.0506    28.4851 </r>
       <r>     1.0264    19.1994    29.3586 </r>
       <r>     1.0719    18.5289    30.2015 </r>
       <r>     1.1174    17.8057    31.0115 </r>
       <r>     1.1629    16.9138    31.7810 </r>
       <r>     1.2084    16.1959    32.5177 </r>
       <r>     1.2539    16.3882    33.2633 </r>
       <r>     1.2994    18.1662    34.0897 </r>
       <r>     1.3449    21.6334    35.0739 </r>
       <r>     1.3904    26.1129    36.2618 </r>
       <r>     1.4358    30.3651    37.6432 </r>
       <r>     1.4813    33.0982    39.1489 </r>
       <r>     1.5268    33.5216    40.6739 </r>
       <r>     1.5723    31.7168    42.1167 </r>
       <r>     1.6178    28.6903    43.4219 </r>
       <r>     1.6633    26.0913    44.6089 </r>
       <r>     1.7088    25.6972    45.7779 </r>
       <r>     1.7543    28.8418    47.0900 </r>
       <r>     1.7998    35.9735    48.7265 </r>
       <r>     1.8453    46.5043    50.8421 </r>
       <r>     1.8908    59.0363    53.5278 </r>
       <r>     1.9363    71.8864    56.7980 </r>
       <r>     1.9818    83.6246    60.6023 </r>
       <r>     2.0272    93.3101    64.8472 </r>
       <r>     2.0727   100.3838    69.4139 </r>
       <r>     2.1182   104.5155    74.1685 </r>
       <r>     2.1637   105.7062    78.9773 </r>
       <r>     2.2092   104.5765    83.7348 </r>
       <r>     2.2547   102.4574    88.3958 </r>
       <r>     2.3002   101.0067    92.9908 </r>
       <r>     2.3457   101.4868    97.6077 </r>
       <r>     2.3912   104.1462   102.3455 </r>
       <r>     2.4367   108.1366   107.2649 </r>
       <r>     2.4822   112.0984   112.3645 </r>
       <r>     2.5277   115.1121   117.6012 </r>
       <r>     2.5732   117.3701   122.9406 </r>
       <r>     2.6186   120.0116   128.4002 </r>
       <r>     2.6641   124.1751   134.0492 </r>
       <r>     2.7096   130.0266   139.9644 </r>
       <r>     2.7551   136.6145   146.1793 </r>
       <r>     2.8006   142.6912   152.6707 </r>
       <r>     2.8461   147.7493   159.3921 </r>
       <r>     2.8916   152.3213   166.3216 </r>
       <r>     2.9371   157.2776   173.4765 </r>
       <r>     2.9826   162.7757   180.8815 </r>
       <r>     3.0281   167.8255   188.5163 </r>
       <r>     3.0736   170.8792   196.2900 </r>
       <r>     3.1191   170.9497   204.0669 </r>
       <r>     3.1646   168.3063   211.7235 </r>
       <r>     3.2100   164.1886   219.1928 </r>
       <r>     3.2555   159.8839   226.4663 </r>
       <r>     3.3010   156.0511   233.5654 </r>
       <r>     3.3465   152.8261   240.5178 </r>
       <r>     3.3920   150.3745   247.3587 </r>
       <r>     3.4375   149.1186   254.1424 </r>
       <r>     3.4830   149.3199   260.9353 </r>
       <r>     3.5285   150.4929   267.7816 </r>
       <r>     3.5740   151.3613   274.6673 </r>
       <r>     3.6195   150.5273   281.5152 </r>
       <r>     3.6650   147.3600   288.2189 </r>
       <r>     3.7105   142.4510   294.6993 </r>
       <r>     3.7560   137.3518   300.9478 </r>
       <r>     3.8014   133.7399   307.0319 </r>
       <r>     3.8469   132.4447   313.0571 </r>
       <r>     3.8924   132.8861   319.1024 </r>
       <r>     3.9379   133.3813   325.1702 </r>
       <r>     3.9834   132.3008   331.1889 </r>
       <r>     4.0289   129.3688   337.0741 </r>
       <r>     4.0744   126.0881   342.8102 </r>
       <r>     4.1199   124.8171   348.4884 </r>
       <r>     4.1654   127.1343   354.2720 </r>
       <r>     4.2109   132.8350   360.3150 </r>
       <r>     4.2564   140.4081   366.7025 </r>
       <r>     4.3019   148.4854   373.4574 </r>
       <r>     4.3474   156.8209   380.5915 </r>
       <r>     4.3928   165.8501   388.1364 </r>
       <r>     4.4383   175.3568   396.1138 </r>
       <r>     4.4838   183.6951   404.4705 </r>
       <r>     4.5293   188.4448   413.0433 </r>
       <r>     4.5748   188.0027   421.5960 </r>
       <r>     4.6203   182.8514   429.9143 </r>
       <r>     4.6658   175.6646   437.9057 </r>
       <r>     4.7113   170.3038   445.6532 </r>
       <r>     4.7568   170.2813   453.3996 </r>
       <r>     4.8023   177.3054   461.4657 </r>
       <r>     4.8478   190.4562   470.1299 </r>
       <r>     4.8933   206.4330   479.5210 </r>
       <r>     4.9388   220.9219   489.5713 </r>
       <r>     4.9842   230.4708   500.0559 </r>
       <r>     5.0297   233.8491   510.6942 </r>
       <r>     5.0752   232.1843   521.2568 </r>
       <r>     5.1207   228.0176   531.6299 </r>
       <r>     5.1662   224.0889   541.8242 </r>
       <r>     5.2117   222.5972   551.9506 </r>
       <r>     5.2572   225.0365   562.1880 </r>
       <r>     5.3027   232.1091   572.7472 </r>
       <r>     5.3482   243.2591   583.8136 </r>
       <r>     5.3937   256.0363   595.4613 </r>
       <r>     5.4392   266.1483   607.5690 </r>
       <r>     5.4847   268.8628   619.8001 </r>
       <r>     5.5302   261.3354   631.6889 </r>
       <r>     5.5756   244.3844   642.8065 </r>
       <r>     5.6211   222.3086   652.9198 </r>
       <r>     5.6666   200.6684   662.0487 </r>
       <r>     5.7121   183.4548   670.3944 </r>
       <r>     5.7576   171.5047   678.1966 </r>
       <r>     5.8031   163.0508   685.6141 </r>
       <r>     5.8486   155.7451   692.6993 </r>
       <r>     5.8941   148.5910   699.4590 </r>
       <r>     5.9396   142.5280   705.9430 </r>
       <r>     5.9851   139.5378   712.2909 </r>
       <r>     6.0306   141.1284   718.7111 </r>
       <r>     6.0761   147.2784   725.4111 </r>
       <r>     6.1216   156.4035   732.5263 </r>
       <r>     6.1670   166.1983   740.0870 </r>
       <r>     6.2125   174.7871   748.0385 </r>
       <r>     6.2580   181.5697   756.2985 </r>
       <r>     6.3035   187.3117   764.8197 </r>
       <r>     6.3490   193.3410   773.6152 </r>
       <r>     6.3945   200.2589   782.7255 </r>
       <r>     6.4400   207.1053   792.1472 </r>
       <r>     6.4855   211.8151   801.7831 </r>
       <r>     6.5310   212.8073   811.4642 </r>
       <r>     6.5765   210.4084   821.0361 </r>
       <r>     6.6220   206.7390   830.4412 </r>
       <r>     6.6675   203.9743   839.7204 </r>
       <r>     6.7129   202.4281   848.9293 </r>
       <r>     6.7584   200.2090   858.0373 </r>
       <r>     6.8039   194.8929   866.9034 </r>
       <r>     6.8494   185.8739   875.3592 </r>
       <r>     6.8949   175.3944   883.3383 </r>
       <r>     6.9404   167.3207   890.9501 </r>
       <r>     6.9859   164.6018   898.4382 </r>
       <r>     7.0314   167.4037   906.0538 </r>
       <r>     7.0769   173.2713   913.9363 </r>
       <r>     7.1224   178.9697   922.0780 </r>
       <r>     7.1679   182.4429   930.3778 </r>
       <r>     7.2134   183.5779   938.7291 </r>
       <r>     7.2589   183.6971   947.0859 </r>
       <r>     7.3043   184.6153   955.4845 </r>
       <r>     7.3498   187.9627   964.0353 </r>
       <r>     7.3953   194.7575   972.8953 </r>
       <r>     7.4408   204.8568   982.2147 </r>
       <r>     7.4863   216.2646   992.0531 </r>
       <r>     7.5318   224.8411  1002.2816 </r>
       <r>     7.5773   225.0848  1012.5212 </r>
       <r>     7.6228   212.1232  1022.1712 </r>
       <r>     7.6683   184.1614  1030.5491 </r>
       <r>     7.7138   144.0142  1037.1006 </r>
       <r>     7.7593    98.5756  1041.5850 </r>
       <r>     7.8048    56.2262  1044.1429 </r>
       <r>     7.8503    23.5439  1045.2140 </r>
       <r>     7.8957     3.1563  1045.3575 </r>
       <r>     7.9412    -6.2634  1045.0726 </r>
       <r>     7.9867    -8.3069  1044.6947 </r>
       <r>     8.0322    -6.7718  1044.3866 </r>
       <r>     8.0777    -4.3498  1044.1888 </r>
       <r>     8.1232    -2.3534  1044.0817 </r>
       <r>     8.1687    -1.1026  1044.0315 </r>
       <r>     8.2142    -0.4536  1044.0109 </r>
       <r>     8.2597    -0.1652  1044.0034 </r>
       <r>     8.3052    -0.0536  1044.0009 </r>
       <r>     8.3507    -0.0155  1044.0002 </r>
       <r>     8.3962    -0.0040  1044.0001 </r>
       <r>     8.4417    -0.0009  1044.0000 </r>
       <r>     8.4871    -0.0002  1044.0000 </r>
       <r>     8.5326    -0.0000  1044.0000 </r>
       <r>     8.5781    -0.0000  1044.0000 </r>
       <r>     8.6236    -0.0000  1044.0000 </r>
       <r>     8.6691    -0.0000  1044.0000 </r>
       <r>     8.7146    -0.0000  1044.0000 </r>
       <r>     8.7601    -0.0000  1044.0000 </r>
       <r>     8.8056    -0.0000  1044.0000 </r>
       <r>     8.8511    -0.0000  1044.0000 </r>
       <r>     8.8966    -0.0000  1044.0000 </r>
       <r>     8.9421    -0.0000  1044.0000 </r>
       <r>     8.9876     0.0000  1044.0000 </r>
       <r>     9.0331     0.0000  1044.0000 </r>
       <r>     9.0785     0.0000  1044.0000 </r>
       <r>     9.1240     0.0000  1044.0000 </r>
       <r>     9.1695     0.0000  1044.0000 </r>
       <r>     9.2150     0.0000  1044.0000 </r>
       <r>     9.2605     0.0000  1044.0000 </r>
       <r>     9.3060     0.0000  1044.0000 </r>
       <r>     9.3515     0.0000  1044.0000 </r>
       <r>     9.3970     0.0000  1044.0000 </r>
       <r>     9.4425     0.0000  1044.0000 </r>
       <r>     9.4880     0.0000  1044.0000 </r>
       <r>     9.5335     0.0000  1044.0000 </r>
       <r>     9.5790     0.0000  1044.0000 </r>
       <r>     9.6245     0.0000  1044.0000 </r>
       <r>     9.6699     0.0000  1044.0000 </r>
       <r>     9.7154     0.0000  1044.0000 </r>
      </set>
     </set>
    </array>
   </total>
  </dos>
 </calculation>
 <structure name="finalpos" >
  <crystal>
   <varray name="basis" >
    <v>      10.33908213       0.00000000       0.00000000 </v>
    <v>      -0.00000000      10.33908213       0.00000000 </v>
    <v>      -0.00000000      -0.00000000      10.33908213 </v>
   </varray>
   <i name="volume">   1105.21292593 </i>
   <varray name="rec_basis" >
    <v>       0.09672038       0.00000000       0.00000000 </v>
    <v>      -0.00000000       0.09672038       0.00000000 </v>
    <v>      -0.00000000      -0.00000000       0.09672038 </v>
   </varray>
  </crystal>
  <varray name="positions" >
   <v>       0.00000000      -0.00000000       0.00000000 </v>
   <v>       0.00000000       0.16666956       0.16666956 </v>
   <v>       0.16666956      -0.00000000       0.16666956 </v>
   <v>       0.16666956       0.16666956       0.00000000 </v>
   <v>       0.33333044      -0.00000000       0.00000000 </v>
   <v>       0.33333044       0.16666956       0.16666956 </v>
   <v>       0.50000000      -0.00000000       0.16666956 </v>
   <v>       0.50000000       0.16666956       0.00000000 </v>
   <v>       0.66666959      -0.00000000       0.00000000 </v>
   <v>       0.66666959       0.16666956       0.16666956 </v>
   <v>       0.83333041      -0.00000000       0.16666956 </v>
   <v>       0.83333041       0.16666956       0.00000000 </v>
   <v>       0.00000000       0.33333044       0.00000000 </v>
   <v>       0.00000000       0.50000000       0.16666956 </v>
   <v>       0.16666956       0.33333044       0.16666956 </v>
   <v>       0.16666956       0.50000000       0.00000000 </v>
   <v>       0.33333044       0.33333044       0.00000000 </v>
   <v>       0.33333044       0.50000000       0.16666956 </v>
   <v>       0.50000000       0.33333044       0.16666956 </v>
   <v>       0.50000000       0.50000000       0.00000000 </v>
   <v>       0.66666959       0.33333044       0.00000000 </v>
   <v>       0.66666959       0.50000000       0.16666956 </v>
   <v>       0.83333041       0.33333044       0.16666956 </v>
   <v>       0.83333041       0.50000000       0.00000000 </v>
   <v>       0.00000000       0.66666959       0.00000000 </v>
   <v>       0.00000000       0.83333041       0.16666956 </v>
   <v>       0.16666956       0.66666959       0.16666956 </v>
   <v>       0.16666956       0.83333041       0.00000000 </v>
   <v>       0.33333044       0.66666959       0.00000000 </v>
   <v>       0.33333044       0.83333041       0.16666956 </v>
   <v>       0.50000000       0.66666959       0.16666956 </v>
   <v>       0.50000000       0.83333041       0.00000000 </v>
   <v>       0.66666959       0.66666959       0.00000000 </v>
   <v>       0.66666959       0.83333041       0.16666956 </v>
   <v>       0.83333041       0.66666959       0.16666956 </v>
   <v>       0.83333041       0.83333041       0.00000000 </v>
   <v>       0.00000000      -0.00000000       0.33333044 </v>
   <v>       0.00000000       0.16666956       0.50000000 </v>
   <v>       0.16666956      -0.00000000       0.50000000 </v>
   <v>       0.16666956       0.16666956       0.33333044 </v>
   <v>       0.33333044      -0.00000000       0.33333044 </v>
   <v>       0.33333044       0.16666956       0.50000000 </v>
   <v>       0.50000000      -0.00000000       0.50000000 </v>
   <v>       0.50000000       0.16666956       0.33333044 </v>
   <v>       0.66666959      -0.00000000       0.33333044 </v>
   <v>       0.66666959       0.16666956       0.50000000 </v>
   <v>       0.83333041      -0.00000000       0.50000000 </v>
   <v>       0.83333041       0.16666956       0.33333044 </v>
   <v>       0.00000000       0.33333044       0.33333044 </v>
   <v>       0.00000000       0.50000000       0.50000000 </v>
   <v>       0.16666956       0.33333044       0.50000000 </v>
   <v>       0.16666956       0.50000000       0.33333044 </v>
   <v>       0.33333044       0.33333044       0.33333044 </v>
   <v>       0.33333044       0.50000000       0.50000000 </v>
   <v>       0.50000000       0.33333044       0.50000000 </v>
   <v>       0.50000000       0.50000000       0.33333044 </v>
   <v>       0.66666959       0.33333044       0.33333044 </v>
   <v>       0.66666959       0.50000000       0.50000000 </v>
   <v>       0.83333041       0.33333044       0.50000000 </v>
   <v>       0.83333041       0.50000000       0.33333044 </v>
   <v>       0.00000000       0.66666959       0.33333044 </v>
   <v>       0.00000000       0.83333041       0.50000000 </v>
   <v>       0.16666956       0.66666959       0.50000000 </v>
   <v>       0.16666956       0.83333041       0.33333044 </v>
   <v>       0.33333044       0.66666959       0.33333044 </v>
   <v>       0.33333044       0.83333041       0.50000000 </v>
   <v>       0.50000000       0.66666959       0.50000000 </v>
   <v>       0.50000000       0.83333041       0.33333044 </v>
   <v>       0.66666959       0.66666959       0.33333044 </v>
   <v>       0.66666959       0.83333041       0.50000000 </v>
   <v>       0.83333041       0.66666959       0.50000000 </v>
   <v>       0.83333041       0.83333041       0.33333044 </v>
   <v>       0.00000000      -0.00000000       0.66666959 </v>
   <v>       0.00000000       0.16666956       0.83333041 </v>
   <v>       0.16666956      -0.00000000       0.83333041 </v>
   <v>       0.16666956       0.16666956       0.66666959 </v>
   <v>       0.33333044      -0.00000000       0.66666959 </v>
   <v>       0.33333044       0.16666956       0.83333041 </v>
   <v>       0.50000000      -0.00000000       0.83333041 </v>
   <v>       0.50000000       0.16666956       0.66666959 </v>
   <v>       0.66666959      -0.00000000       0.66666959 </v>
   <v>       0.66666959       0.16666956       0.83333041 </v>
   <v>       0.83333041      -0.00000000       0.83333041 </v>
   <v>       0.83333041       0.16666956       0.66666959 </v>
   <v>       0.00000000       0.33333044       0.66666959 </v>
   <v>       0.00000000       0.50000000       0.83333041 </v>
   <v>       0.16666956       0.33333044       0.83333041 </v>
   <v>       0.16666956       0.50000000       0.66666959 </v>
   <v>       0.33333044       0.33333044       0.66666959 </v>
   <v>       0.33333044       0.50000000       0.83333041 </v>
   <v>       0.50000000       0.33333044       0.83333041 </v>
   <v>       0.50000000       0.50000000       0.66666959 </v>
   <v>       0.66666959       0.33333044       0.66666959 </v>
   <v>       0.66666959       0.50000000       0.83333041 </v>
   <v>       0.83333041       0.33333044       0.83333041 </v>
   <v>       0.83333041       0.50000000       0.66666959 </v>
   <v>       0.00000000       0.66666959       0.66666959 </v>
   <v>       0.00000000       0.83333041       0.83333041 </v>
   <v>       0.16666956       0.66666959       0.83333041 </v>
   <v>       0.16666956       0.83333041       0.66666959 </v>
   <v>       0.33333044       0.66666959       0.66666959 </v>
   <v>       0.33333044       0.83333041       0.83333041 </v>
   <v>       0.50000000       0.66666959       0.83333041 </v>
   <v>       0.50000000       0.83333041       0.66666959 </v>
   <v>       0.66666959       0.66666959       0.66666959 </v>
   <v>       0.66666959       0.83333041       0.83333041 </v>
   <v>       0.83333041       0.66666959       0.83333041 </v>
   <v>       0.83333041       0.83333041       0.66666959 </v>
  </varray>
 </structure>
</modeling>
