Opt                                     
           1
    10.950400    0.000000    0.000000
     0.000000   10.950400    0.000000
     0.000000    0.000000   10.950400
   Fe
 108
Direct configuration=     1
   0.00000000  0.00000000  0.00000000
   0.00000000  0.16666999  0.16666999
   0.16666999  0.00000000  0.16666999
   0.16666999  0.16666999  0.00000000
   0.33333001  0.00000000  0.00000000
   0.33333001  0.16666999  0.16666999
   0.50000000  0.00000000  0.16666999
   0.50000000  0.16666999  0.00000000
   0.66667002  0.00000000  0.00000000
   0.66667002  0.16666999  0.16666999
   0.83332998  0.00000000  0.16666999
   0.83332998  0.16666999  0.00000000
   0.00000000  0.33333001  0.00000000
   0.00000000  0.50000000  0.16666999
   0.16666999  0.33333001  0.16666999
   0.16666999  0.50000000  0.00000000
   0.33333001  0.33333001  0.00000000
   0.33333001  0.50000000  0.16666999
   0.50000000  0.33333001  0.16666999
   0.50000000  0.50000000  0.00000000
   0.66667002  0.33333001  0.00000000
   0.66667002  0.50000000  0.16666999
   0.83332998  0.33333001  0.16666999
   0.83332998  0.50000000  0.00000000
   0.00000000  0.66667002  0.00000000
   0.00000000  0.83332998  0.16666999
   0.16666999  0.66667002  0.16666999
   0.16666999  0.83332998  0.00000000
   0.33333001  0.66667002  0.00000000
   0.33333001  0.83332998  0.16666999
   0.50000000  0.66667002  0.16666999
   0.50000000  0.83332998  0.00000000
   0.66667002  0.66667002  0.00000000
   0.66667002  0.83332998  0.16666999
   0.83332998  0.66667002  0.16666999
   0.83332998  0.83332998  0.00000000
   0.00000000  0.00000000  0.33333001
   0.00000000  0.16666999  0.50000000
   0.16666999  0.00000000  0.50000000
   0.16666999  0.16666999  0.33333001
   0.33333001  0.00000000  0.33333001
   0.33333001  0.16666999  0.50000000
   0.50000000  0.00000000  0.50000000
   0.50000000  0.16666999  0.33333001
   0.66667002  0.00000000  0.33333001
   0.66667002  0.16666999  0.50000000
   0.83332998  0.00000000  0.50000000
   0.83332998  0.16666999  0.33333001
   0.00000000  0.33333001  0.33333001
   0.00000000  0.50000000  0.50000000
   0.16666999  0.33333001  0.50000000
   0.16666999  0.50000000  0.33333001
   0.33333001  0.33333001  0.33333001
   0.33333001  0.50000000  0.50000000
   0.50000000  0.33333001  0.50000000
   0.50000000  0.50000000  0.33333001
   0.66667002  0.33333001  0.33333001
   0.66667002  0.50000000  0.50000000
   0.83332998  0.33333001  0.50000000
   0.83332998  0.50000000  0.33333001
   0.00000000  0.66667002  0.33333001
   0.00000000  0.83332998  0.50000000
   0.16666999  0.66667002  0.50000000
   0.16666999  0.83332998  0.33333001
   0.33333001  0.66667002  0.33333001
   0.33333001  0.83332998  0.50000000
   0.50000000  0.66667002  0.50000000
   0.50000000  0.83332998  0.33333001
   0.66667002  0.66667002  0.33333001
   0.66667002  0.83332998  0.50000000
   0.83332998  0.66667002  0.50000000
   0.83332998  0.83332998  0.33333001
   0.00000000  0.00000000  0.66667002
   0.00000000  0.16666999  0.83332998
   0.16666999  0.00000000  0.83332998
   0.16666999  0.16666999  0.66667002
   0.33333001  0.00000000  0.66667002
   0.33333001  0.16666999  0.83332998
   0.50000000  0.00000000  0.83332998
   0.50000000  0.16666999  0.66667002
   0.66667002  0.00000000  0.66667002
   0.66667002  0.16666999  0.83332998
   0.83332998  0.00000000  0.83332998
   0.83332998  0.16666999  0.66667002
   0.00000000  0.33333001  0.66667002
   0.00000000  0.50000000  0.83332998
   0.16666999  0.33333001  0.83332998
   0.16666999  0.50000000  0.66667002
   0.33333001  0.33333001  0.66667002
   0.33333001  0.50000000  0.83332998
   0.50000000  0.33333001  0.83332998
   0.50000000  0.50000000  0.66667002
   0.66667002  0.33333001  0.66667002
   0.66667002  0.50000000  0.83332998
   0.83332998  0.33333001  0.83332998
   0.83332998  0.50000000  0.66667002
   0.00000000  0.66667002  0.66667002
   0.00000000  0.83332998  0.83332998
   0.16666999  0.66667002  0.83332998
   0.16666999  0.83332998  0.66667002
   0.33333001  0.66667002  0.66667002
   0.33333001  0.83332998  0.83332998
   0.50000000  0.66667002  0.83332998
   0.50000000  0.83332998  0.66667002
   0.66667002  0.66667002  0.66667002
   0.66667002  0.83332998  0.83332998
   0.83332998  0.66667002  0.83332998
   0.83332998  0.83332998  0.66667002
Opt                                     
           1
     9.630174    0.000000    0.000000
    -0.000000    9.630174    0.000000
    -0.000000   -0.000000    9.630174
   Fe
 108
Direct configuration=     2
   0.00000000 -0.00000000  0.00000000
   0.00000000  0.16666887  0.16666887
   0.16666887 -0.00000000  0.16666887
   0.16666887  0.16666887  0.00000000
   0.33333113 -0.00000000  0.00000000
   0.33333113  0.16666887  0.16666887
   0.50000000 -0.00000000  0.16666887
   0.50000000  0.16666887  0.00000000
   0.66666890 -0.00000000  0.00000000
   0.66666890  0.16666887  0.16666887
   0.83333110 -0.00000000  0.16666887
   0.83333110  0.16666887  0.00000000
   0.00000000  0.33333113  0.00000000
   0.00000000  0.50000000  0.16666887
   0.16666887  0.33333113  0.16666887
   0.16666887  0.50000000  0.00000000
   0.33333113  0.33333113  0.00000000
   0.33333113  0.50000000  0.16666887
   0.50000000  0.33333113  0.16666887
   0.50000000  0.50000000  0.00000000
   0.66666890  0.33333113  0.00000000
   0.66666890  0.50000000  0.16666887
   0.83333110  0.33333113  0.16666887
   0.83333110  0.50000000  0.00000000
   0.00000000  0.66666890  0.00000000
   0.00000000  0.83333110  0.16666887
   0.16666887  0.66666890  0.16666887
   0.16666887  0.83333110  0.00000000
   0.33333113  0.66666890  0.00000000
   0.33333113  0.83333110  0.16666887
   0.50000000  0.66666890  0.16666887
   0.50000000  0.83333110  0.00000000
   0.66666890  0.66666890  0.00000000
   0.66666890  0.83333110  0.16666887
   0.83333110  0.66666890  0.16666887
   0.83333110  0.83333110  0.00000000
   0.00000000 -0.00000000  0.33333113
   0.00000000  0.16666887  0.50000000
   0.16666887 -0.00000000  0.50000000
   0.16666887  0.16666887  0.33333113
   0.33333113 -0.00000000  0.33333113
   0.33333113  0.16666887  0.50000000
   0.50000000 -0.00000000  0.50000000
   0.50000000  0.16666887  0.33333113
   0.66666890 -0.00000000  0.33333113
   0.66666890  0.16666887  0.50000000
   0.83333110 -0.00000000  0.50000000
   0.83333110  0.16666887  0.33333113
   0.00000000  0.33333113  0.33333113
   0.00000000  0.50000000  0.50000000
   0.16666887  0.33333113  0.50000000
   0.16666887  0.50000000  0.33333113
   0.33333113  0.33333113  0.33333113
   0.33333113  0.50000000  0.50000000
   0.50000000  0.33333113  0.50000000
   0.50000000  0.50000000  0.33333113
   0.66666890  0.33333113  0.33333113
   0.66666890  0.50000000  0.50000000
   0.83333110  0.33333113  0.50000000
   0.83333110  0.50000000  0.33333113
   0.00000000  0.66666890  0.33333113
   0.00000000  0.83333110  0.50000000
   0.16666887  0.66666890  0.50000000
   0.16666887  0.83333110  0.33333113
   0.33333113  0.66666890  0.33333113
   0.33333113  0.83333110  0.50000000
   0.50000000  0.66666890  0.50000000
   0.50000000  0.83333110  0.33333113
   0.66666890  0.66666890  0.33333113
   0.66666890  0.83333110  0.50000000
   0.83333110  0.66666890  0.50000000
   0.83333110  0.83333110  0.33333113
   0.00000000 -0.00000000  0.66666890
   0.00000000  0.16666887  0.83333110
   0.16666887 -0.00000000  0.83333110
   0.16666887  0.16666887  0.66666890
   0.33333113 -0.00000000  0.66666890
   0.33333113  0.16666887  0.83333110
   0.50000000 -0.00000000  0.83333110
   0.50000000  0.16666887  0.66666890
   0.66666890 -0.00000000  0.66666890
   0.66666890  0.16666887  0.83333110
   0.83333110 -0.00000000  0.83333110
   0.83333110  0.16666887  0.66666890
   0.00000000  0.33333113  0.66666890
   0.00000000  0.50000000  0.83333110
   0.16666887  0.33333113  0.83333110
   0.16666887  0.50000000  0.66666890
   0.33333113  0.33333113  0.66666890
   0.33333113  0.50000000  0.83333110
   0.50000000  0.33333113  0.83333110
   0.50000000  0.50000000  0.66666890
   0.66666890  0.33333113  0.66666890
   0.66666890  0.50000000  0.83333110
   0.83333110  0.33333113  0.83333110
   0.83333110  0.50000000  0.66666890
   0.00000000  0.66666890  0.66666890
   0.00000000  0.83333110  0.83333110
   0.16666887  0.66666890  0.83333110
   0.16666887  0.83333110  0.66666890
   0.33333113  0.66666890  0.66666890
   0.33333113  0.83333110  0.83333110
   0.50000000  0.66666890  0.83333110
   0.50000000  0.83333110  0.66666890
   0.66666890  0.66666890  0.66666890
   0.66666890  0.83333110  0.83333110
   0.83333110  0.66666890  0.83333110
   0.83333110  0.83333110  0.66666890
Opt                                     
           1
    10.370646    0.000000    0.000000
    -0.000000   10.370646    0.000000
    -0.000000   -0.000000   10.370646
   Fe
 108
Direct configuration=     3
   0.00000000 -0.00000000  0.00000000
   0.00000000  0.16666959  0.16666959
   0.16666959 -0.00000000  0.16666959
   0.16666959  0.16666959  0.00000000
   0.33333041 -0.00000000  0.00000000
   0.33333041  0.16666959  0.16666959
   0.50000000 -0.00000000  0.16666959
   0.50000000  0.16666959  0.00000000
   0.66666962 -0.00000000  0.00000000
   0.66666962  0.16666959  0.16666959
   0.83333038 -0.00000000  0.16666959
   0.83333038  0.16666959  0.00000000
   0.00000000  0.33333041  0.00000000
   0.00000000  0.50000000  0.16666959
   0.16666959  0.33333041  0.16666959
   0.16666959  0.50000000  0.00000000
   0.33333041  0.33333041  0.00000000
   0.33333041  0.50000000  0.16666959
   0.50000000  0.33333041  0.16666959
   0.50000000  0.50000000  0.00000000
   0.66666962  0.33333041  0.00000000
   0.66666962  0.50000000  0.16666959
   0.83333038  0.33333041  0.16666959
   0.83333038  0.50000000  0.00000000
   0.00000000  0.66666962  0.00000000
   0.00000000  0.83333038  0.16666959
   0.16666959  0.66666962  0.16666959
   0.16666959  0.83333038  0.00000000
   0.33333041  0.66666962  0.00000000
   0.33333041  0.83333038  0.16666959
   0.50000000  0.66666962  0.16666959
   0.50000000  0.83333038  0.00000000
   0.66666962  0.66666962  0.00000000
   0.66666962  0.83333038  0.16666959
   0.83333038  0.66666962  0.16666959
   0.83333038  0.83333038  0.00000000
   0.00000000 -0.00000000  0.33333041
   0.00000000  0.16666959  0.50000000
   0.16666959 -0.00000000  0.50000000
   0.16666959  0.16666959  0.33333041
   0.33333041 -0.00000000  0.33333041
   0.33333041  0.16666959  0.50000000
   0.50000000 -0.00000000  0.50000000
   0.50000000  0.16666959  0.33333041
   0.66666962 -0.00000000  0.33333041
   0.66666962  0.16666959  0.50000000
   0.83333038 -0.00000000  0.50000000
   0.83333038  0.16666959  0.33333041
   0.00000000  0.33333041  0.33333041
   0.00000000  0.50000000  0.50000000
   0.16666959  0.33333041  0.50000000
   0.16666959  0.50000000  0.33333041
   0.33333041  0.33333041  0.33333041
   0.33333041  0.50000000  0.50000000
   0.50000000  0.33333041  0.50000000
   0.50000000  0.50000000  0.33333041
   0.66666962  0.33333041  0.33333041
   0.66666962  0.50000000  0.50000000
   0.83333038  0.33333041  0.50000000
   0.83333038  0.50000000  0.33333041
   0.00000000  0.66666962  0.33333041
   0.00000000  0.83333038  0.50000000
   0.16666959  0.66666962  0.50000000
   0.16666959  0.83333038  0.33333041
   0.33333041  0.66666962  0.33333041
   0.33333041  0.83333038  0.50000000
   0.50000000  0.66666962  0.50000000
   0.50000000  0.83333038  0.33333041
   0.66666962  0.66666962  0.33333041
   0.66666962  0.83333038  0.50000000
   0.83333038  0.66666962  0.50000000
   0.83333038  0.83333038  0.33333041
   0.00000000 -0.00000000  0.66666962
   0.00000000  0.16666959  0.83333038
   0.16666959 -0.00000000  0.83333038
   0.16666959  0.16666959  0.66666962
   0.33333041 -0.00000000  0.66666962
   0.33333041  0.16666959  0.83333038
   0.50000000 -0.00000000  0.83333038
   0.50000000  0.16666959  0.66666962
   0.66666962 -0.00000000  0.66666962
   0.66666962  0.16666959  0.83333038
   0.83333038 -0.00000000  0.83333038
   0.83333038  0.16666959  0.66666962
   0.00000000  0.33333041  0.66666962
   0.00000000  0.50000000  0.83333038
   0.16666959  0.33333041  0.83333038
   0.16666959  0.50000000  0.66666962
   0.33333041  0.33333041  0.66666962
   0.33333041  0.50000000  0.83333038
   0.50000000  0.33333041  0.83333038
   0.50000000  0.50000000  0.66666962
   0.66666962  0.33333041  0.66666962
   0.66666962  0.50000000  0.83333038
   0.83333038  0.33333041  0.83333038
   0.83333038  0.50000000  0.66666962
   0.00000000  0.66666962  0.66666962
   0.00000000  0.83333038  0.83333038
   0.16666959  0.66666962  0.83333038
   0.16666959  0.83333038  0.66666962
   0.33333041  0.66666962  0.66666962
   0.33333041  0.83333038  0.83333038
   0.50000000  0.66666962  0.83333038
   0.50000000  0.83333038  0.66666962
   0.66666962  0.66666962  0.66666962
   0.66666962  0.83333038  0.83333038
   0.83333038  0.66666962  0.83333038
   0.83333038  0.83333038  0.66666962
Opt                                     
           1
    10.349079    0.000000    0.000000
    -0.000000   10.349079    0.000000
    -0.000000   -0.000000   10.349079
   Fe
 108
Direct configuration=     4
   0.00000000 -0.00000000  0.00000000
   0.00000000  0.16666957  0.16666957
   0.16666957 -0.00000000  0.16666957
   0.16666957  0.16666957  0.00000000
   0.33333043 -0.00000000  0.00000000
   0.33333043  0.16666957  0.16666957
   0.50000000 -0.00000000  0.16666957
   0.50000000  0.16666957  0.00000000
   0.66666960 -0.00000000  0.00000000
   0.66666960  0.16666957  0.16666957
   0.83333040 -0.00000000  0.16666957
   0.83333040  0.16666957  0.00000000
   0.00000000  0.33333043  0.00000000
   0.00000000  0.50000000  0.16666957
   0.16666957  0.33333043  0.16666957
   0.16666957  0.50000000  0.00000000
   0.33333043  0.33333043  0.00000000
   0.33333043  0.50000000  0.16666957
   0.50000000  0.33333043  0.16666957
   0.50000000  0.50000000  0.00000000
   0.66666960  0.33333043  0.00000000
   0.66666960  0.50000000  0.16666957
   0.83333040  0.33333043  0.16666957
   0.83333040  0.50000000  0.00000000
   0.00000000  0.66666960  0.00000000
   0.00000000  0.83333040  0.16666957
   0.16666957  0.66666960  0.16666957
   0.16666957  0.83333040  0.00000000
   0.33333043  0.66666960  0.00000000
   0.33333043  0.83333040  0.16666957
   0.50000000  0.66666960  0.16666957
   0.50000000  0.83333040  0.00000000
   0.66666960  0.66666960  0.00000000
   0.66666960  0.83333040  0.16666957
   0.83333040  0.66666960  0.16666957
   0.83333040  0.83333040  0.00000000
   0.00000000 -0.00000000  0.33333043
   0.00000000  0.16666957  0.50000000
   0.16666957 -0.00000000  0.50000000
   0.16666957  0.16666957  0.33333043
   0.33333043 -0.00000000  0.33333043
   0.33333043  0.16666957  0.50000000
   0.50000000 -0.00000000  0.50000000
   0.50000000  0.16666957  0.33333043
   0.66666960 -0.00000000  0.33333043
   0.66666960  0.16666957  0.50000000
   0.83333040 -0.00000000  0.50000000
   0.83333040  0.16666957  0.33333043
   0.00000000  0.33333043  0.33333043
   0.00000000  0.50000000  0.50000000
   0.16666957  0.33333043  0.50000000
   0.16666957  0.50000000  0.33333043
   0.33333043  0.33333043  0.33333043
   0.33333043  0.50000000  0.50000000
   0.50000000  0.33333043  0.50000000
   0.50000000  0.50000000  0.33333043
   0.66666960  0.33333043  0.33333043
   0.66666960  0.50000000  0.50000000
   0.83333040  0.33333043  0.50000000
   0.83333040  0.50000000  0.33333043
   0.00000000  0.66666960  0.33333043
   0.00000000  0.83333040  0.50000000
   0.16666957  0.66666960  0.50000000
   0.16666957  0.83333040  0.33333043
   0.33333043  0.66666960  0.33333043
   0.33333043  0.83333040  0.50000000
   0.50000000  0.66666960  0.50000000
   0.50000000  0.83333040  0.33333043
   0.66666960  0.66666960  0.33333043
   0.66666960  0.83333040  0.50000000
   0.83333040  0.66666960  0.50000000
   0.83333040  0.83333040  0.33333043
   0.00000000 -0.00000000  0.66666960
   0.00000000  0.16666957  0.83333040
   0.16666957 -0.00000000  0.83333040
   0.16666957  0.16666957  0.66666960
   0.33333043 -0.00000000  0.66666960
   0.33333043  0.16666957  0.83333040
   0.50000000 -0.00000000  0.83333040
   0.50000000  0.16666957  0.66666960
   0.66666960 -0.00000000  0.66666960
   0.66666960  0.16666957  0.83333040
   0.83333040 -0.00000000  0.83333040
   0.83333040  0.16666957  0.66666960
   0.00000000  0.33333043  0.66666960
   0.00000000  0.50000000  0.83333040
   0.16666957  0.33333043  0.83333040
   0.16666957  0.50000000  0.66666960
   0.33333043  0.33333043  0.66666960
   0.33333043  0.50000000  0.83333040
   0.50000000  0.33333043  0.83333040
   0.50000000  0.50000000  0.66666960
   0.66666960  0.33333043  0.66666960
   0.66666960  0.50000000  0.83333040
   0.83333040  0.33333043  0.83333040
   0.83333040  0.50000000  0.66666960
   0.00000000  0.66666960  0.66666960
   0.00000000  0.83333040  0.83333040
   0.16666957  0.66666960  0.83333040
   0.16666957  0.83333040  0.66666960
   0.33333043  0.66666960  0.66666960
   0.33333043  0.83333040  0.83333040
   0.50000000  0.66666960  0.83333040
   0.50000000  0.83333040  0.66666960
   0.66666960  0.66666960  0.66666960
   0.66666960  0.83333040  0.83333040
   0.83333040  0.66666960  0.83333040
   0.83333040  0.83333040  0.66666960
Opt                                     
           1
    10.339082    0.000000    0.000000
    -0.000000   10.339082    0.000000
    -0.000000   -0.000000   10.339082
   Fe
 108
Direct configuration=     5
   0.00000000 -0.00000000  0.00000000
   0.00000000  0.16666956  0.16666956
   0.16666956 -0.00000000  0.16666956
   0.16666956  0.16666956  0.00000000
   0.33333044 -0.00000000  0.00000000
   0.33333044  0.16666956  0.16666956
   0.50000000 -0.00000000  0.16666956
   0.50000000  0.16666956  0.00000000
   0.66666959 -0.00000000  0.00000000
   0.66666959  0.16666956  0.16666956
   0.83333041 -0.00000000  0.16666956
   0.83333041  0.16666956  0.00000000
   0.00000000  0.33333044  0.00000000
   0.00000000  0.50000000  0.16666956
   0.16666956  0.33333044  0.16666956
   0.16666956  0.50000000  0.00000000
   0.33333044  0.33333044  0.00000000
   0.33333044  0.50000000  0.16666956
   0.50000000  0.33333044  0.16666956
   0.50000000  0.50000000  0.00000000
   0.66666959  0.33333044  0.00000000
   0.66666959  0.50000000  0.16666956
   0.83333041  0.33333044  0.16666956
   0.83333041  0.50000000  0.00000000
   0.00000000  0.66666959  0.00000000
   0.00000000  0.83333041  0.16666956
   0.16666956  0.66666959  0.16666956
   0.16666956  0.83333041  0.00000000
   0.33333044  0.66666959  0.00000000
   0.33333044  0.83333041  0.16666956
   0.50000000  0.66666959  0.16666956
   0.50000000  0.83333041  0.00000000
   0.66666959  0.66666959  0.00000000
   0.66666959  0.83333041  0.16666956
   0.83333041  0.66666959  0.16666956
   0.83333041  0.83333041  0.00000000
   0.00000000 -0.00000000  0.33333044
   0.00000000  0.16666956  0.50000000
   0.16666956 -0.00000000  0.50000000
   0.16666956  0.16666956  0.33333044
   0.33333044 -0.00000000  0.33333044
   0.33333044  0.16666956  0.50000000
   0.50000000 -0.00000000  0.50000000
   0.50000000  0.16666956  0.33333044
   0.66666959 -0.00000000  0.33333044
   0.66666959  0.16666956  0.50000000
   0.83333041 -0.00000000  0.50000000
   0.83333041  0.16666956  0.33333044
   0.00000000  0.33333044  0.33333044
   0.00000000  0.50000000  0.50000000
   0.16666956  0.33333044  0.50000000
   0.16666956  0.50000000  0.33333044
   0.33333044  0.33333044  0.33333044
   0.33333044  0.50000000  0.50000000
   0.50000000  0.33333044  0.50000000
   0.50000000  0.50000000  0.33333044
   0.66666959  0.33333044  0.33333044
   0.66666959  0.50000000  0.50000000
   0.83333041  0.33333044  0.50000000
   0.83333041  0.50000000  0.33333044
   0.00000000  0.66666959  0.33333044
   0.00000000  0.83333041  0.50000000
   0.16666956  0.66666959  0.50000000
   0.16666956  0.83333041  0.33333044
   0.33333044  0.66666959  0.33333044
   0.33333044  0.83333041  0.50000000
   0.50000000  0.66666959  0.50000000
   0.50000000  0.83333041  0.33333044
   0.66666959  0.66666959  0.33333044
   0.66666959  0.83333041  0.50000000
   0.83333041  0.66666959  0.50000000
   0.83333041  0.83333041  0.33333044
   0.00000000 -0.00000000  0.66666959
   0.00000000  0.16666956  0.83333041
   0.16666956 -0.00000000  0.83333041
   0.16666956  0.16666956  0.66666959
   0.33333044 -0.00000000  0.66666959
   0.33333044  0.16666956  0.83333041
   0.50000000 -0.00000000  0.83333041
   0.50000000  0.16666956  0.66666959
   0.66666959 -0.00000000  0.66666959
   0.66666959  0.16666956  0.83333041
   0.83333041 -0.00000000  0.83333041
   0.83333041  0.16666956  0.66666959
   0.00000000  0.33333044  0.66666959
   0.00000000  0.50000000  0.83333041
   0.16666956  0.33333044  0.83333041
   0.16666956  0.50000000  0.66666959
   0.33333044  0.33333044  0.66666959
   0.33333044  0.50000000  0.83333041
   0.50000000  0.33333044  0.83333041
   0.50000000  0.50000000  0.66666959
   0.66666959  0.33333044  0.66666959
   0.66666959  0.50000000  0.83333041
   0.83333041  0.33333044  0.83333041
   0.83333041  0.50000000  0.66666959
   0.00000000  0.66666959  0.66666959
   0.00000000  0.83333041  0.83333041
   0.16666956  0.66666959  0.83333041
   0.16666956  0.83333041  0.66666959
   0.33333044  0.66666959  0.66666959
   0.33333044  0.83333041  0.83333041
   0.50000000  0.66666959  0.83333041
   0.50000000  0.83333041  0.66666959
   0.66666959  0.66666959  0.66666959
   0.66666959  0.83333041  0.83333041
   0.83333041  0.66666959  0.83333041
   0.83333041  0.83333041  0.66666959
