NEB                                     
           1
    10.334847    0.000000    0.000000
     0.000000   10.334847    0.000000
     0.000000    0.000000   10.334847
   Fe
 107
Direct configuration=     1
   0.99987541  0.00000024  0.00004177
   0.99981011  0.16643664  0.16647951
   0.00014484  0.33376707  0.99995195
   0.00149601  0.49999976  0.16816404
   0.00014480  0.66623271  0.99995193
   0.99981007  0.83356367  0.16647955
   0.00014480  0.00000023  0.33361841
   0.00149598  0.16821101  0.50010802
   0.99991613  0.33333562  0.33327682
   0.00137771  0.49999969  0.50011395
   0.99991611  0.66666420  0.33327684
   0.00149606  0.83178919  0.50010794
   0.00014483  0.00000022  0.66633983
   0.99981015  0.16652656  0.83341265
   0.99991615  0.33334141  0.66677129
   0.00149610  0.49999975  0.83172211
   0.99991616  0.66665841  0.66677126
   0.99981010  0.83347375  0.83341262
   0.16695102  0.00000026  0.16681404
   0.16692940  0.16674956  0.00006351
   0.16692940  0.83325079  0.00006349
   0.16737119  0.33402699  0.49996351
   0.16789760  0.50000055  0.33456282
   0.16737120  0.66597285  0.49996346
   0.16704096  0.00000023  0.83307810
   0.16785854  0.49999974  0.66593508
   0.16660984  0.33333510  0.16658527
   0.16660983  0.66666467  0.16658530
   0.16649841  0.16652083  0.33316477
   0.16649843  0.83347945  0.33316482
   0.16705957  0.16708190  0.66677154
   0.16653359  0.33319105  0.83345055
   0.16653357  0.66680877  0.83345052
   0.16705959  0.83291839  0.66677148
   0.16750932  0.49999974  0.99950145
   0.16705911  0.00000019  0.50010798
   0.33344316  0.00000025  0.99995193
   0.33344372  0.16821005  0.16816311
   0.33344370  0.83179028  0.16816304
   0.33329666  0.33402684  0.33403610
   0.33329656  0.66597294  0.33403604
   0.33329969  0.16813381  0.83187277
   0.33357538  0.33430518  0.66593662
   0.33357546  0.66569457  0.66593578
   0.33329968  0.83186653  0.83187266
   0.33329924  0.33364068  0.00002815
   0.33344910  0.49999973  0.16804716
   0.33329923  0.66635911  0.00002814
   0.33344320  0.00000026  0.33372599
   0.33329932  0.16801787  0.49996429
   0.33329917  0.83198240  0.49996426
   0.33344899  0.00000021  0.66632212
   0.33357804  0.49999973  0.83170932
   0.49967584  0.00000026  0.16681397
   0.49967579  0.16731136  0.99950146
   0.50010680  0.33334119  0.16658530
   0.49965774  0.49999971  0.99954096
   0.50010682  0.66665861  0.16658525
   0.49967582  0.83268897  0.99950138
   0.49965764  0.00000014  0.50011400
   0.50010676  0.16708260  0.33372713
   0.49926931  0.33430568  0.50024272
   0.49926858  0.50000020  0.33452543
   0.49926928  0.66569363  0.50024266
   0.50010674  0.83291772  0.33372707
   0.49967581  0.00000020  0.83307205
   0.50010677  0.16704324  0.66677144
   0.50010704  0.33346989  0.83317123
   0.50010707  0.66652996  0.83317130
   0.50010675  0.83295713  0.66677149
   0.66655623  0.33362337  0.00002815
   0.66505507  0.49999972  0.16816438
   0.66655627  0.66637650  0.00002814
   0.66641232  0.00000015  0.33370850
   0.66520508  0.16813450  0.49996423
   0.66520478  0.83186447  0.49996415
   0.66640651  0.00000011  0.66633959
   0.66492582  0.49999965  0.83159121
   0.66674728  0.16652649  0.16647951
   0.66674730  0.83347374  0.16647941
   0.66678470  0.33319171  0.33320084
   0.66678480  0.66680809  0.33320066
   0.66689126  0.16645023  0.83355623
   0.66650627  0.33347001  0.66677192
   0.66650638  0.66652981  0.66677209
   0.66689128  0.83355003  0.83355634
   0.66668186  0.00000018  0.99995194
   0.66504451  0.49999935  0.50024341
   0.83283315  0.49999977  0.99950145
   0.83328348  0.00000015  0.50010795
   0.83328362  0.33376711  0.16681392
   0.83328361  0.66623270  0.16681389
   0.83339509  0.16674944  0.33359674
   0.83339507  0.83325080  0.33359678
   0.83283391  0.16731053  0.66633951
   0.83335985  0.33362307  0.83322186
   0.83335985  0.66637677  0.83322187
   0.83283389  0.83268970  0.66633944
   0.83337335  0.00000024  0.16654447
   0.83339500  0.16647999  0.00006354
   0.83339498  0.83352030  0.00006355
   0.83336002  0.33364065  0.49996424
   0.83283358  0.49999973  0.33417639
   0.83336015  0.66635918  0.49996420
   0.83328343  0.00000021  0.83334764
   0.83287293  0.49999971  0.66632208
   0.45784607  0.49999968  0.62451031
Direct configuration=     2
   0.99980848  0.00000024  0.00012178
   0.99976541  0.16641877  0.16643355
   0.00009790  0.33380674  0.99996835
   0.00179953  0.49999981  0.16846676
   0.00009792  0.66619308  0.99996828
   0.99976540  0.83358151  0.16643360
   0.00012918  0.00000020  0.33358213
   0.00171561  0.16836474  0.50017418
   0.99992868  0.33336524  0.33323485
   0.00157508  0.49999974  0.50009563
   0.99992859  0.66663463  0.33323484
   0.00171564  0.83163543  0.50017410
   0.00057572  0.00000021  0.66640050
   0.99976092  0.16656844  0.83333174
   1.00016860  0.33330195  0.66676746
   0.00211641  0.49999981  0.83141610
   1.00016861  0.66669787  0.66676744
   0.99976089  0.83343181  0.83333171
   0.16691511  0.00000022  0.16679717
   0.16687169  0.16672322  0.00004874
   0.16687169  0.83327708  0.00004869
   0.16702985  0.33398940  0.49972279
   0.16782133  0.50000019  0.33448763
   0.16702983  0.66601049  0.49972276
   0.16715711  0.00000020  0.83309779
   0.16776280  0.49999980  0.66576416
   0.16656802  0.33336491  0.16659637
   0.16656800  0.66663495  0.16659631
   0.16654636  0.16655599  0.33321270
   0.16654636  0.83344431  0.33321270
   0.16657206  0.16670595  0.66679025
   0.16648258  0.33303384  0.83342166
   0.16648259  0.66696600  0.83342164
   0.16657205  0.83329434  0.66679023
   0.16752302  0.49999981  0.99937742
   0.16700721  0.00000018  0.50015170
   0.33347624  0.00000022  0.99997550
   0.33350899  0.16836425  0.16838232
   0.33350898  0.83163605  0.16838220
   0.33305635  0.33398891  0.33369554
   0.33305633  0.66601097  0.33369547
   0.33322949  0.16800447  0.83215931
   0.33112596  0.33013219  0.66607061
   0.33112592  0.66986752  0.66607018
   0.33322948  0.83199575  0.83215918
   0.33326420  0.33369649 -0.00031714
   0.33342998  0.49999927  0.16824378
   0.33326418  0.66630335 -0.00031716
   0.33348633  0.00000022  0.33367389
   0.33310935  0.16790569  0.49977499
   0.33310928  0.83209456  0.49977494
   0.33333762  0.00000019  0.66632990
   0.33419330  0.49999984  0.83181548
   0.49973549  0.00000022  0.16724363
   0.49976838  0.16788711  0.99889363
   0.50010211  0.33330190  0.16683652
   0.49987160  0.49999978  0.99898134
   0.50010211  0.66669794  0.16683646
   0.49976837  0.83211317  0.99889355
   0.49966452  0.00000012  0.50000321
   0.50012466  0.16670659  0.33323932
   0.49940324  0.33013257  0.49779297
   0.49909771  0.49999998  0.33442976
   0.49940323  0.66986688  0.49779286
   0.50012467  0.83329370  0.33323925
   0.49959710  0.00000019  0.83301819
   0.50008782  0.16728948  0.66675335
   0.50004499  0.33418156  0.83268330
   0.50004498  0.66581831  0.83268334
   0.50008780  0.83271082  0.66675338
   0.66644910  0.33356138 -0.00008878
   0.66474895  0.49999975  0.16878382
   0.66644910  0.66643846 -0.00008881
   0.66643135  0.00000012  0.33382427
   0.66549197  0.16800494  0.49989495
   0.66549179  0.83199458  0.49989488
   0.66635202  0.00000012  0.66626198
   0.66546935  0.49999973  0.83213541
   0.66666555  0.16656828  0.16642998
   0.66666554  0.83343190  0.16642993
   0.66675493  0.33303442  0.33314977
   0.66675504  0.66696543  0.33314963
   0.66693422  0.16650110  0.83359981
   0.66601762  0.33418149  0.66671058
   0.66601771  0.66581834  0.66671070
   0.66693424  0.83349909  0.83359987
   0.66660353  0.00000021  0.99987698
   0.66514994  0.49999951  0.50085915
   0.83179240  0.49999982  0.99845992
   0.83330780  0.00000015  0.50014153
   0.83330070  0.33380684  0.16676590
   0.83330071  0.66619298  0.16676588
   0.83338104  0.16672328  0.33353872
   0.83338102  0.83327695  0.33353875
   0.83222673  0.16788655  0.66643313
   0.83324370  0.33356119  0.83311524
   0.83324371  0.66643865  0.83311523
   0.83222672  0.83211363  0.66643306
   0.83345410  0.00000023  0.16647646
   0.83349643  0.16640125  0.00016417
   0.83349644  0.83359898  0.00016418
   0.83301543  0.33369644  0.49992977
   0.83271022  0.49999978  0.33418982
   0.83301550  0.66630336  0.49992974
   0.83320928  0.00000022  0.83326979
   0.83231410  0.49999977  0.66653684
   0.45786305  0.49999970  0.62452847
Direct configuration=     3
   0.99973052 -0.00000027  0.00013993
   0.99968696  0.16642921  0.16635491
  -0.00008700  0.33394718  1.00002625
   0.00210879  0.50000040  0.16877601
  -0.00008684  0.66605316  1.00002630
   0.99968721  0.83357047  0.16635503
   0.00015949 -0.00000035  0.33364514
   0.00185286  0.16852060  0.50013984
   0.99977143  0.33331897  0.33311418
   0.00175906  0.50000031  0.50010695
   0.99977166  0.66668143  0.33311408
   0.00185302  0.83147910  0.50013955
   0.00033328 -0.00000016  0.66641682
   0.99963751  0.16659835  0.83331440
   1.00029978  0.33336541  0.66672697
   0.00262241  0.50000025  0.83117133
   1.00029993  0.66663477  0.66672689
   0.99963750  0.83340145  0.83331447
   0.16697807 -0.00000039  0.16682720
   0.16686383  0.16674845  0.00009905
   0.16686377  0.83325133  0.00009924
   0.16673783  0.33395526  0.49950525
   0.16760202  0.50000071  0.33426917
   0.16673788  0.66604514  0.49950494
   0.16722165 -0.00000018  0.83317938
   0.16816660  0.50000028  0.66541443
   0.16644710  0.33331886  0.16643877
   0.16644718  0.66668157  0.16643894
   0.16647589  0.16656706  0.33314273
   0.16647595  0.83343244  0.33314262
   0.16572458  0.16601589  0.66682012
   0.16633885  0.33291287  0.83346048
   0.16633876  0.66708734  0.83346052
   0.16572447  0.83398390  0.66681995
   0.16748271  0.50000034  0.99917382
   0.16663846 -0.00000030  0.50007312
   0.33356368 -0.00000023  1.00017991
   0.33347403  0.16852033  0.16851966
   0.33347385  0.83147928  0.16851967
   0.33283877  0.33395477  0.33340438
   0.33283860  0.66604568  0.33340421
   0.33322125  0.16768374  0.83252986
   0.33028838  0.32696951  0.66687202
   0.33028829  0.67303048  0.66687157
   0.33322118  0.83231606  0.83252988
   0.33323634  0.33388391 -0.00062538
   0.33344094  0.50000042  0.16842647
   0.33323621  0.66611636 -0.00062509
   0.33340718 -0.00000035  0.33330540
   0.33279552  0.16758071  0.49946200
   0.33279542  0.83241885  0.49946166
   0.33332154 -0.00000010  0.66634478
   0.33479760  0.50000023  0.83128354
   0.49975153 -0.00000022  0.16700067
   0.49975279  0.16822667  0.99847789
   0.50006148  0.33336541  0.16696706
   0.49994751  0.50000019  0.99872532
   0.50006119  0.66663481  0.16696723
   0.49975266  0.83177324  0.99847800
   0.49967902 -0.00000022  0.49998766
   0.50015441  0.16601613  0.33239168
   0.50020502  0.32697119  0.49695662
   0.49874821  0.50000042  0.33483368
   0.50020467  0.67302877  0.49695639
   0.50015414  0.83398349  0.33239160
   0.49954894 -0.00000010  0.83314842
   0.50009697  0.16741209  0.66676289
   0.49981961  0.33480143  0.83195666
   0.49981952  0.66519871  0.83195668
   0.50009685  0.83258779  0.66676275
   0.66635711  0.33346455 -0.00011803
   0.66450468  0.50000018  0.16928949
   0.66635711  0.66653559 -0.00011798
   0.66651324 -0.00000018  0.33388872
   0.66586332  0.16768405  0.49988731
   0.66586314  0.83231546  0.49988713
   0.66648219 -0.00000008  0.66621429
   0.66593994  0.50000006  0.83260615
   0.66664847  0.16659833  0.16630533
   0.66664836  0.83340142  0.16630528
   0.66679403  0.33291319  0.33300611
   0.66679399  0.66708695  0.33300599
   0.66694491  0.16652144  0.83361079
   0.66529082  0.33480126  0.66648534
   0.66529085  0.66519881  0.66648530
   0.66694498  0.83347846  0.83361091
   0.66649831 -0.00000011  0.99971086
   0.66461785  0.50000003  0.50146391
   0.83116253  0.50000021  0.99782963
   0.83351281 -0.00000019  0.50022927
   0.83335894  0.33394715  0.16658076
   0.83335912  0.66605308  0.16658076
   0.83343188  0.16674856  0.33353086
   0.83343208  0.83325127  0.33353080
   0.83181119  0.16822642  0.66641785
   0.83321480  0.33346457  0.83302319
   0.83321497  0.66653559  0.83302323
   0.83181138  0.83177340  0.66641776
   0.83347260 -0.00000018  0.16639830
   0.83354928  0.16631599  0.00021682
   0.83354947  0.83368387  0.00021688
   0.83270777  0.33388375  0.49990228
   0.83250705  0.50000023  0.33414957
   0.83270795  0.66611635  0.49990215
   0.83304351 -0.00000013  0.83316456
   0.83205851  0.50000017  0.66661311
   0.45859538  0.50000015  0.62526137
Direct configuration=     4
   0.99970934  0.00000005  0.00008960
   0.99956722  0.16643990  0.16623410
  -0.00035496  0.33410871  1.00006904
   0.00229585  0.49999993  0.16896256
  -0.00035491  0.66589128  1.00006889
   0.99956719  0.83356021  0.16623415
   0.00014833  0.00000000  0.33365120
   0.00179407  0.16865898  0.50005563
   0.99955241  0.33323194  0.33303781
   0.00181846  0.49999997  0.50013614
   0.99955227  0.66676813  0.33303789
   0.00179403  0.83134103  0.50005551
  -0.00039265 -0.00000005  0.66645206
   0.99948994  0.16662239  0.83335453
   1.00036015  0.33354797  0.66666670
   0.00297937  0.49999998  0.83102859
   1.00036021  0.66645208  0.66666666
   0.99948999  0.83337766  0.83335443
   0.16698455  0.00000004  0.16681523
   0.16679506  0.16678463  0.00017946
   0.16679508  0.83321547  0.00017932
   0.16676873  0.33391259  0.49946338
   0.16739667  0.49999997  0.33406313
   0.16676873  0.66608747  0.49946335
   0.16715227 -0.00000003  0.83331941
   0.16912146  0.49999995  0.66496709
   0.16637135  0.33323189  0.16621909
   0.16637133  0.66676813  0.16621901
   0.16632205  0.16660353  0.33298841
   0.16632207  0.83339658  0.33298848
   0.16491313  0.16532376  0.66681613
   0.16616810  0.33284370  0.83347130
   0.16616816  0.66715636  0.83347129
   0.16491314  0.83467630  0.66681614
   0.16739399  0.49999997  0.99892252
   0.16617751 -0.00000005  0.49994348
   0.33358223  0.00000004  1.00060214
   0.33338959  0.16865895  0.16846056
   0.33338954  0.83134126  0.16846039
   0.33279708  0.33391245  0.33343506
   0.33279705  0.66608758  0.33343508
   0.33320316  0.16705524  0.83314837
   0.33056724  0.32569057  0.66711146
   0.33056704  0.67430937  0.66711132
   0.33320301  0.83294469  0.83314820
   0.33321592  0.33414788 -0.00084856
   0.33346976  0.49999989  0.16848540
   0.33321584  0.66585210 -0.00084870
   0.33327728  0.00000002  0.33284405
   0.33247136  0.16719559  0.49913760
   0.33247125  0.83280445  0.49913757
   0.33330876  0.00000001  0.66632391
   0.33518052  0.50000003  0.83053728
   0.49978586  0.00000004  0.16627439
   0.49972008  0.16840816  0.99825724
   0.50000028  0.33354805  0.16702708
   0.49995102  0.49999991  0.99864188
   0.50000033  0.66645187  0.16702709
   0.49972005  0.83159197  0.99825714
   0.49965741  0.00000001  0.49997506
   0.50014967  0.16532414  0.33158010
   0.50044426  0.32569077  0.49723404
   0.49830045  0.49999992  0.33578786
   0.50044425  0.67430903  0.49723399
   0.50014974  0.83467593  0.33158014
   0.49954331  0.00000007  0.83345785
   0.50017073  0.16718511  0.66683729
   0.49957551  0.33533593  0.83124886
   0.49957550  0.66466400  0.83124878
   0.50017068  0.83281491  0.66683716
   0.66630991  0.33335454 -0.00010909
   0.66436172  0.49999995  0.16964615
   0.66630994  0.66664539 -0.00010909
   0.66665223  0.00000016  0.33381940
   0.66648125  0.16705556  0.49986949
   0.66648129  0.83294427  0.49986938
   0.66679124  0.00000000  0.66620950
   0.66629967  0.49999993  0.83296618
   0.66668778  0.16662245  0.16615702
   0.66668786  0.83337757  0.16615703
   0.66680413  0.33284407  0.33283510
   0.66680428  0.66715594  0.33283516
   0.66696640  0.16658100  0.83363283
   0.66458256  0.33533579  0.66624203
   0.66458265  0.66466414  0.66624189
   0.66696649  0.83341902  0.83363280
   0.66640750  0.00000006  0.99949193
   0.66387099  0.50000000  0.50184688
   0.83087064  0.49999996  0.99753750
   0.83393521 -0.00000006  0.50024841
   0.83340198  0.33410890  0.16631205
   0.83340191  0.66589109  0.16631208
   0.83351246  0.16678463  0.33346178
   0.83351238  0.83321533  0.33346180
   0.83159079  0.16840799  0.66638596
   0.83322413  0.33335452  0.83297645
   0.83322417  0.66664547  0.83297639
   0.83159081  0.83159201  0.66638576
   0.83342265  0.00000002  0.16637631
   0.83355450  0.16625200  0.00022138
   0.83355449  0.83374805  0.00022145
   0.83248467  0.33414789  0.49988224
   0.83225558  0.50000003  0.33406056
   0.83248460  0.66585210  0.49988215
   0.83282499  0.00000005  0.83307411
   0.83197519  0.49999997  0.66661741
   0.45881474  0.49999988  0.62548173
Direct configuration=     5
   0.99970183  0.00000010 -0.00001042
   0.99940937  0.16645782  0.16607553
  -0.00056454  0.33426090  1.00002174
   0.00242129  0.49999990  0.16908744
  -0.00056460  0.66573901  1.00002162
   0.99940930  0.83354230  0.16607549
   0.00013124  0.00000015  0.33354334
   0.00173586  0.16894656  0.49996174
   0.99939869  0.33316323  0.33302602
   0.00183744  0.49999989  0.50014898
   0.99939855  0.66683664  0.33302600
   0.00173578  0.83105355  0.49996166
  -0.00112164  0.00000009  0.66655281
   0.99935434  0.16670271  0.83342558
   1.00046013  0.33379090  0.66659677
   0.00336346  0.49999995  0.83080858
   1.00046009  0.66620899  0.66659678
   0.99935426  0.83329736  0.83342553
   0.16687710  0.00000016  0.16679741
   0.16663944  0.16688242  0.00020327
   0.16663944  0.83311770  0.00020317
   0.16693179  0.33388811  0.49947284
   0.16724630  0.49999981  0.33391262
   0.16693169  0.66611177  0.49947282
   0.16698044  0.00000010  0.83345718
   0.17020947  0.49999987  0.66439950
   0.16635983  0.33316319  0.16606475
   0.16635978  0.66683669  0.16606466
   0.16611620  0.16670290  0.33278225
   0.16611621  0.83329730  0.33278223
   0.16431800  0.16482284  0.66683726
   0.16607091  0.33266218  0.83339467
   0.16607088  0.66733773  0.83339470
   0.16431799  0.83517730  0.66683734
   0.16734208  0.49999991  0.99861369
   0.16569744  0.00000012  0.49979192
   0.33347081  0.00000008  1.00105477
   0.33329503  0.16894658  0.16840186
   0.33329512  0.83105360  0.16840165
   0.33280620  0.33388790  0.33359830
   0.33280607  0.66611180  0.33359798
   0.33314731  0.16650908  0.83363186
   0.33070076  0.32454703  0.66714679
   0.33070080  0.67545283  0.66714683
   0.33314736  0.83349095  0.83363178
   0.33317932  0.33444767 -0.00108674
   0.33348212  0.49999989  0.16850341
   0.33317940  0.66555225 -0.00108689
   0.33312516  0.00000012  0.33236370
   0.33216579  0.16676372  0.49883263
   0.33216587  0.83323644  0.49883268
   0.33324937  0.00000006  0.66629885
   0.33540702  0.49999995  0.82980985
   0.49988580  0.00000006  0.16554460
   0.49968435  0.16875124  0.99803356
   0.49992965  0.33379096  0.16712615
   0.49994278  0.49999996  0.99857678
   0.49992973  0.66620895  0.16712603
   0.49968440  0.83124878  0.99803337
   0.49963150  0.00000007  0.49991635
   0.50017009  0.16482289  0.33098442
   0.50047942  0.32454694  0.49736762
   0.49773229  0.49999983  0.33687565
   0.50047945  0.67545297  0.49736768
   0.50017020  0.83517727  0.33098445
   0.49956365  0.00000001  0.83379882
   0.50031450  0.16670098  0.66698173
   0.49939404  0.33577468  0.83060615
   0.49939413  0.66422529  0.83060600
   0.50031453  0.83329899  0.66698170
   0.66623191  0.33323867 -0.00013023
   0.66414162  0.49999993  0.17002950
   0.66623189  0.66676133 -0.00013027
   0.66678988  0.00000016  0.33364704
   0.66696480  0.16650915  0.49981426
   0.66696479  0.83349095  0.49981424
   0.66713196 -0.00000000  0.66623073
   0.66660751  0.50000000  0.83327448
   0.66675860  0.16670280  0.16602056
   0.66675860  0.83329729  0.16602053
   0.66672757  0.33266233  0.33273739
   0.66672759  0.66733760  0.33273741
   0.66700784  0.16674777  0.83367454
   0.66393930  0.33577450  0.66606127
   0.66393932  0.66422551  0.66606120
   0.66700785  0.83325220  0.83367448
   0.66637406  0.00000001  0.99924770
   0.66314282  0.49999994  0.50207388
   0.83067015  0.49999998  0.99733654
   0.83438818  0.00000006  0.50013756
   0.83335507  0.33426100  0.16610179
   0.83335503  0.66573893  0.16610166
   0.83353663  0.16688247  0.33330576
   0.83353652  0.83311763  0.33330573
   0.83136719  0.16875122  0.66635128
   0.83320339  0.33323858  0.83289878
   0.83320332  0.66676139  0.83289874
   0.83136714  0.83124879  0.66635118
   0.83332293  0.00000008  0.16636818
   0.83353669  0.16619722  0.00020313
   0.83353661  0.83380279  0.00020313
   0.83224689  0.33444768  0.49984607
   0.83194717  0.49999988  0.33400836
   0.83224685  0.66555223  0.49984606
   0.83258113  0.00000004  0.83304090
   0.83191050  0.49999995  0.66660995
   0.45914200  0.49999993  0.62580949
Direct configuration=     6
   0.99969681  0.00000011 -0.00010405
   0.99931546  0.16650937  0.16598167
  -0.00058879  0.33437775  0.99992548
   0.00238476  0.49999985  0.16905099
  -0.00058883  0.66562213  0.99992536
   0.99931546  0.83349079  0.16598168
   0.00010890  0.00000016  0.33341466
   0.00169547  0.16917368  0.49993811
   0.99936036  0.33321036  0.33303702
   0.00180355  0.49999983  0.50012434
   0.99936036  0.66678947  0.33303700
   0.00169551  0.83082646  0.49993800
  -0.00145618  0.00000013  0.66660264
   0.99927454  0.16677372  0.83343406
   1.00052486  0.33394254  0.66653848
   0.00353873  0.49999984  0.83061832
   1.00052487  0.66605734  0.66653846
   0.99927453  0.83322642  0.83343401
   0.16674810  0.00000014  0.16677503
   0.16654081  0.16698244  0.00015045
   0.16654080  0.83301772  0.00015042
   0.16709891  0.33391856  0.49948564
   0.16726867  0.49999983  0.33393524
   0.16709889  0.66608135  0.49948554
   0.16682479  0.00000013  0.83350615
   0.17084393  0.49999984  0.66395693
   0.16637051  0.33321038  0.16602651
   0.16637049  0.66678950  0.16602645
   0.16596773  0.16675776  0.33263427
   0.16596777  0.83324241  0.33263421
   0.16423216  0.16473739  0.66681298
   0.16609450  0.33252083  0.83328359
   0.16609445  0.66747904  0.83328364
   0.16423214  0.83526276  0.66681302
   0.16732722  0.49999984  0.99844929
   0.16538343  0.00000012  0.49969040
   0.33332103  0.00000013  1.00127775
   0.33327106  0.16917360  0.16836151
   0.33327111  0.83082654  0.16836140
   0.33281857  0.33391842  0.33376542
   0.33281852  0.66608148  0.33376523
   0.33311646  0.16641160  0.83364646
   0.33080106  0.32425958  0.66701176
   0.33080097  0.67574034  0.66701172
   0.33311644  0.83358858  0.83364650
   0.33314048  0.33464071 -0.00123204
   0.33345724  0.49999982  0.16846953
   0.33314050  0.66535914 -0.00123208
   0.33302341  0.00000008  0.33204999
   0.33202313  0.16643793  0.49869039
   0.33202316  0.83356216  0.49869033
   0.33314707  0.00000009  0.66630832
   0.33538381  0.49999982  0.82952848
   0.49993565  0.00000008  0.16520994
   0.49963435  0.16904011  0.99800533
   0.49987139  0.33394249  0.16719083
   0.49991782  0.49999985  0.99854843
   0.49987142  0.66605744  0.16719079
   0.49963435  0.83095998  0.99800525
   0.49964098  0.00000012  0.49981428
   0.50014597  0.16473725  0.33089870
   0.50034458  0.32425959  0.49746832
   0.49728978  0.49999989  0.33751031
   0.50034448  0.67574033  0.49746815
   0.50014593  0.83526282  0.33089872
   0.49957854  0.00000013  0.83402215
   0.50041597  0.16630976  0.66708326
   0.49934732  0.33589605  0.83035906
   0.49934733  0.66410378  0.83035900
   0.50041595  0.83369040  0.66708319
   0.66615492  0.33326326 -0.00014566
   0.66395159  0.49999988  0.17020479
   0.66615492  0.66673667 -0.00014561
   0.66683934  0.00000010  0.33349136
   0.66697979  0.16641160  0.49978356
   0.66697974  0.83358862  0.49978349
   0.66735547  0.00000015  0.66624569
   0.66658917  0.49999984  0.83325585
   0.66676727  0.16677376  0.16594073
   0.66676720  0.83322638  0.16594077
   0.66661697  0.33252084  0.33276108
   0.66661692  0.66747901  0.33276107
   0.66702905  0.16688285  0.83369576
   0.66369243  0.33589603  0.66601449
   0.66369246  0.66410385  0.66601431
   0.66702909  0.83311732  0.83369574
   0.66637736  0.00000012  0.99914152
   0.66286175  0.49999984  0.50205093
   0.83071335  0.49999986  0.99737951
   0.83461151  0.00000017  0.49998800
   0.83325912  0.33437775  0.16607744
   0.83325909  0.66562211  0.16607737
   0.83348412  0.16698246  0.33320743
   0.83348408  0.83301771  0.33320735
   0.83133907  0.16904013  0.66630142
   0.83318816  0.33326321  0.83282163
   0.83318820  0.66673666  0.83282162
   0.83133913  0.83096000  0.66630133
   0.83322957  0.00000015  0.16636313
   0.83350491  0.16618802  0.00017117
   0.83350489  0.83381210  0.00017121
   0.83210175  0.33464070  0.49980750
   0.83178303  0.49999983  0.33399373
   0.83210179  0.66535915  0.49980737
   0.83247526  0.00000014  0.83304406
   0.83188228  0.49999982  0.66658494
   0.45944772  0.49999987  0.62611525
Direct configuration=     7
   0.99967744 -0.00000003 -0.00016203
   0.99925502  0.16657002  0.16592147
  -0.00058562  0.33446011  0.99984946
   0.00233128  0.49999993  0.16899743
  -0.00058563  0.66553993  0.99984939
   0.99925505  0.83342994  0.16592150
   0.00007501 -0.00000002  0.33331645
   0.00163728  0.16932046  0.49992637
   0.99933611  0.33328250  0.33302885
   0.00178662  0.50000002  0.50009095
   0.99933619  0.66671749  0.33302881
   0.00163732  0.83067951  0.49992622
  -0.00163479  0.00000001  0.66658913
   0.99921842  0.16682398  0.83339569
   1.00055484  0.33403647  0.66649136
   0.00363695  0.50000001  0.83046843
   1.00055488  0.66596354  0.66649129
   0.99921842  0.83317601  0.83339568
   0.16665002 -0.00000003  0.16674136
   0.16651837  0.16705239  0.00009967
   0.16651835  0.83294759  0.00009969
   0.16722023  0.33395554  0.49946024
   0.16731934  0.50000007  0.33398552
   0.16722023  0.66604454  0.49946009
   0.16674398  0.00000001  0.83351130
   0.17124145  0.49999984  0.66360901
   0.16636248  0.33328256  0.16600251
   0.16636246  0.66671747  0.16600249
   0.16586815  0.16675715  0.33253458
   0.16586816  0.83324279  0.33253450
   0.16419382  0.16471146  0.66676072
   0.16611753  0.33246539  0.83319898
   0.16611748  0.66753461  0.83319906
   0.16419362  0.83528882  0.66676095
   0.16730449  0.50000003  0.99833958
   0.16513770 -0.00000002  0.49960967
   0.33323916  0.00000002  1.00138014
   0.33325972  0.16932031  0.16830365
   0.33325967  0.83067964  0.16830352
   0.33279362  0.33395544  0.33388630
   0.33279336  0.66604471  0.33388581
   0.33311430  0.16638533  0.83360504
   0.33091897  0.32414064  0.66687974
   0.33091887  0.67585943  0.66687973
   0.33311424  0.83361468  0.83360511
   0.33310607  0.33475615 -0.00132576
   0.33342431  0.50000001  0.16845297
   0.33310604  0.66524381 -0.00132579
   0.33294314 -0.00000003  0.33180409
   0.33193397  0.16621530  0.49860065
   0.33193393  0.83378460  0.49860059
   0.33306031 -0.00000001  0.66632975
   0.33536749  0.49999979  0.82936125
   0.49992236 -0.00000001  0.16503155
   0.49956552  0.16921612  0.99803165
   0.49982442  0.33403638  0.16722117
   0.49989547  0.50000001  0.99852385
   0.49982440  0.66596364  0.16722113
   0.49956551  0.83078385  0.99803159
   0.49966277  0.00000002  0.49972695
   0.50009393  0.16471146  0.33086025
   0.50021282  0.32414071  0.49758564
   0.49694179  0.50000005  0.33790758
   0.50021275  0.67585929  0.49758553
   0.50009385  0.83528847  0.33086026
   0.49957554  0.00000003  0.83418288
   0.50048065  0.16606510  0.66714767
   0.49932338  0.33594526  0.83022419
   0.49932336  0.66405472  0.83022411
   0.50048061  0.83393490  0.66714762
   0.66610384  0.33334587 -0.00014854
   0.66380143  0.50000003  0.17030324
   0.66610388  0.66665414 -0.00014851
   0.66684437 -0.00000002  0.33341033
   0.66693813  0.16638533  0.49978092
   0.66693810  0.83361470  0.49978089
   0.66751598  0.00000004  0.66624248
   0.66650697  0.50000000  0.83317384
   0.66672869  0.16682398  0.16588487
   0.66672867  0.83317602  0.16588486
   0.66653210  0.33246533  0.33278391
   0.66653210  0.66753462  0.33278391
   0.66703662  0.16694669  0.83370364
   0.66355761  0.33594510  0.66599060
   0.66355763  0.66405489  0.66599045
   0.66703668  0.83305335  0.83370362
   0.66636805 -0.00000000  0.99909697
   0.66269428  0.50000001  0.50203439
   0.83075614  0.49999990  0.99742241
   0.83471355  0.00000003  0.49990577
   0.83318279  0.33446006  0.16608079
   0.83318282  0.66553996  0.16608072
   0.83343300  0.16705236  0.33318482
   0.83343305  0.83294764  0.33318473
   0.83136494  0.16921611  0.66623242
   0.83318490  0.33334587  0.83277082
   0.83318493  0.66665414  0.83277081
   0.83136502  0.83078390  0.66623232
   0.83317126  0.00000000  0.16634388
   0.83347694  0.16621022  0.00014363
   0.83347695  0.83378978  0.00014368
   0.83200759  0.33475610  0.49977270
   0.83167293  0.50000001  0.33397084
   0.83200766  0.66524390  0.49977253
   0.83243030  0.00000001  0.83303496
   0.83185727  0.50000000  0.66656234
   0.45964407  0.50000006  0.62631117
Direct configuration=     8
   0.99965285  0.00000004 -0.00018380
   0.99923319  0.16660637  0.16589978
  -0.00057125  0.33447682  0.99980594
   0.00229831  0.49999989  0.16896476
  -0.00057132  0.66552314  0.99980583
   0.99923316  0.83339365  0.16589977
   0.00003967  0.00000003  0.33327409
   0.00159503  0.16936002  0.49990617
   0.99932007  0.33332350  0.33301121
   0.00178006  0.49999997  0.50006517
   0.99932006  0.66667646  0.33301118
   0.00159508  0.83063998  0.49990606
  -0.00163475  0.00000008  0.66654154
   0.99920476  0.16684095  0.83335547
   1.00055579  0.33407227  0.66646689
   0.00366463  0.50000002  0.83040092
   1.00055589  0.66592769  0.66646681
   0.99920473  0.83315900  0.83335546
   0.16660757  0.00000006  0.16670618
   0.16652479  0.16707973  0.00006147
   0.16652476  0.83292025  0.00006138
   0.16726400  0.33396771  0.49941960
   0.16735541  0.49999998  0.33402187
   0.16726406  0.66603234  0.49941963
   0.16672886  0.00000010  0.83348403
   0.17138028  0.49999992  0.66345913
   0.16634473  0.33332342  0.16598663
   0.16634466  0.66667653  0.16598653
   0.16583309  0.16673270  0.33249958