 107 107   0   0
  0.1031640E+02  0.1033485E-08  0.1033485E-08  0.1033485E-08  0.3000000E-16
  1.000000000000000E-004
  CAR 
 Vib                                     
      9.68148054     -3.98072556  301      6.71890498      1.00000000
     -3.981  0.0000E+00  0.0000E+00
     -3.935  0.0000E+00  0.0000E+00
     -3.890  0.0000E+00  0.0000E+00
     -3.844  0.0000E+00  0.0000E+00
     -3.799  0.0000E+00  0.0000E+00
     -3.753  0.0000E+00  0.0000E+00
     -3.707  0.0000E+00  0.0000E+00
     -3.662  0.0000E+00  0.0000E+00
     -3.616 -0.1132E-27 -0.5154E-29
     -3.571 -0.4217E-26 -0.1972E-27
     -3.525 -0.1449E-24 -0.6797E-26
     -3.480 -0.4484E-23 -0.2110E-24
     -3.434 -0.1249E-21 -0.5899E-23
     -3.389 -0.3132E-20 -0.1485E-21
     -3.343 -0.7070E-19 -0.3368E-20
     -3.298 -0.1436E-17 -0.6878E-19
     -3.252 -0.2626E-16 -0.1265E-17
     -3.207 -0.4319E-15 -0.2093E-16
     -3.161 -0.6086E-14 -0.2981E-15
     -3.115 -0.8261E-13 -0.4060E-14
     -3.070 -0.9836E-12 -0.4885E-13
     -3.024 -0.1055E-10 -0.5293E-12
     -2.979 -0.1016E-09 -0.5157E-11
     -2.933 -0.8789E-09 -0.4518E-10
     -2.888 -0.6821E-08 -0.3558E-09
     -2.842 -0.4748E-07 -0.2518E-08
     -2.797 -0.2962E-06 -0.1601E-07
     -2.751 -0.1654E-05 -0.9135E-07
     -2.706 -0.8264E-05 -0.4677E-06
     -2.660 -0.3687E-04 -0.2147E-05
     -2.615 -0.1467E-03 -0.8828E-05
     -2.569 -0.5192E-03 -0.3247E-04
     -2.523 -0.1630E-02 -0.1067E-03
     -2.478 -0.4521E-02 -0.3126E-03
     -2.432 -0.1101E-01 -0.8142E-03
     -2.387 -0.2337E-01 -0.1878E-02
     -2.341 -0.4255E-01 -0.3816E-02
     -2.296 -0.6469E-01 -0.6762E-02
     -2.250 -0.7701E-01 -0.1027E-01
     -2.205 -0.5667E-01 -0.1285E-01
     -2.159  0.2366E-01 -0.1177E-01
     -2.114  0.1851E+00 -0.3341E-02
     -2.068  0.4354E+00  0.1649E-01
     -2.022  0.7729E+00  0.5169E-01
     -1.977  0.1197E+01  0.1062E+00
     -1.931  0.1711E+01  0.1841E+00
     -1.886  0.2294E+01  0.2886E+00
     -1.840  0.2887E+01  0.4201E+00
     -1.795  0.3397E+01  0.5748E+00
     -1.749  0.3745E+01  0.7454E+00
     -1.704  0.3916E+01  0.9237E+00
     -1.658  0.3964E+01  0.1104E+01
     -1.613  0.3974E+01  0.1285E+01
     -1.567  0.4029E+01  0.1469E+01
     -1.522  0.4191E+01  0.1660E+01
     -1.476  0.4495E+01  0.1864E+01
     -1.430  0.4948E+01  0.2090E+01
     -1.385  0.5523E+01  0.2341E+01
     -1.339  0.6162E+01  0.2622E+01
     -1.294  0.6765E+01  0.2930E+01
     -1.248  0.7183E+01  0.3257E+01
     -1.203  0.7261E+01  0.3588E+01
     -1.157  0.6921E+01  0.3903E+01
     -1.112  0.6255E+01  0.4188E+01
     -1.066  0.5522E+01  0.4439E+01
     -1.021  0.5053E+01  0.4669E+01
     -0.975  0.5103E+01  0.4902E+01
     -0.929  0.5751E+01  0.5164E+01
     -0.884  0.6891E+01  0.5477E+01
     -0.838  0.8296E+01  0.5855E+01
     -0.793  0.9684E+01  0.6296E+01
     -0.747  0.1076E+02  0.6786E+01
     -0.702  0.1126E+02  0.7299E+01
     -0.656  0.1100E+02  0.7800E+01
     -0.611  0.1002E+02  0.8257E+01
     -0.565  0.8605E+01  0.8649E+01
     -0.520  0.7257E+01  0.8979E+01
     -0.474  0.6479E+01  0.9274E+01
     -0.429  0.6567E+01  0.9573E+01
     -0.383  0.7504E+01  0.9915E+01
     -0.337  0.8991E+01  0.1032E+02
     -0.292  0.1059E+02  0.1081E+02
     -0.246  0.1187E+02  0.1135E+02
     -0.201  0.1256E+02  0.1192E+02
     -0.155  0.1261E+02  0.1249E+02
     -0.110  0.1218E+02  0.1305E+02
     -0.064  0.1160E+02  0.1358E+02
     -0.019  0.1122E+02  0.1409E+02
      0.027  0.1126E+02  0.1460E+02
      0.072  0.1172E+02  0.1513E+02
      0.118  0.1242E+02  0.1570E+02
      0.163  0.1313E+02  0.1630E+02
      0.209  0.1367E+02  0.1692E+02
      0.255  0.1397E+02  0.1756E+02
      0.300  0.1402E+02  0.1819E+02
      0.346  0.1384E+02  0.1882E+02
      0.391  0.1345E+02  0.1944E+02
      0.437  0.1292E+02  0.2003E+02
      0.482  0.1240E+02  0.2059E+02
      0.528  0.1214E+02  0.2114E+02
      0.573  0.1246E+02  0.2171E+02
      0.619  0.1359E+02  0.2233E+02
      0.664  0.1552E+02  0.2304E+02
      0.710  0.1783E+02  0.2385E+02
      0.756  0.1989E+02  0.2475E+02
      0.801  0.2109E+02  0.2571E+02
      0.847  0.2125E+02  0.2668E+02
      0.892  0.2066E+02  0.2762E+02
      0.938  0.1983E+02  0.2853E+02
      0.983  0.1916E+02  0.2940E+02
      1.029  0.1861E+02  0.3025E+02
      1.074  0.1793E+02  0.3106E+02
      1.120  0.1706E+02  0.3184E+02
      1.165  0.1643E+02  0.3259E+02
      1.211  0.1681E+02  0.3335E+02
      1.256  0.1881E+02  0.3421E+02
      1.302  0.2242E+02  0.3523E+02
      1.348  0.2682E+02  0.3645E+02
      1.393  0.3073E+02  0.3785E+02
      1.439  0.3294E+02  0.3935E+02
      1.484  0.3291E+02  0.4085E+02
      1.530  0.3099E+02  0.4226E+02
      1.575  0.2838E+02  0.4356E+02
      1.621  0.2674E+02  0.4477E+02
      1.666  0.2762E+02  0.4603E+02
      1.712  0.3203E+02  0.4749E+02
      1.757  0.4005E+02  0.4931E+02
      1.803  0.5093E+02  0.5163E+02
      1.848  0.6331E+02  0.5452E+02
      1.894  0.7568E+02  0.5796E+02
      1.940  0.8677E+02  0.6191E+02
      1.985  0.9561E+02  0.6627E+02
      2.031  0.1016E+03  0.7089E+02
      2.076  0.1045E+03  0.7565E+02
      2.122  0.1046E+03  0.8042E+02
      2.167  0.1031E+03  0.8511E+02
      2.213  0.1015E+03  0.8973E+02
      2.258  0.1011E+03  0.9434E+02
      2.304  0.1027E+03  0.9902E+02
      2.349  0.1059E+03  0.1038E+03
      2.395  0.1096E+03  0.1088E+03
      2.441  0.1129E+03  0.1140E+03
      2.486  0.1156E+03  0.1192E+03
      2.532  0.1185E+03  0.1246E+03
      2.577  0.1224E+03  0.1302E+03
      2.623  0.1279E+03  0.1360E+03
      2.668  0.1343E+03  0.1421E+03
      2.714  0.1404E+03  0.1485E+03
      2.759  0.1454E+03  0.1552E+03
      2.805  0.1494E+03  0.1620E+03
      2.850  0.1531E+03  0.1689E+03
      2.896  0.1569E+03  0.1761E+03
      2.941  0.1607E+03  0.1834E+03
      2.987  0.1637E+03  0.1909E+03
      3.033  0.1654E+03  0.1984E+03
      3.078  0.1654E+03  0.2059E+03
      3.124  0.1641E+03  0.2134E+03
      3.169  0.1618E+03  0.2208E+03
      3.215  0.1589E+03  0.2280E+03
      3.260  0.1561E+03  0.2351E+03
      3.306  0.1536E+03  0.2421E+03
      3.351  0.1518E+03  0.2490E+03
      3.397  0.1509E+03  0.2559E+03
      3.442  0.1504E+03  0.2627E+03
      3.488  0.1497E+03  0.2696E+03
      3.533  0.1483E+03  0.2763E+03
      3.579  0.1460E+03  0.2830E+03
      3.625  0.1429E+03  0.2895E+03
      3.670  0.1396E+03  0.2958E+03
      3.716  0.1368E+03  0.3021E+03
      3.761  0.1348E+03  0.3082E+03
      3.807  0.1339E+03  0.3143E+03
      3.852  0.1334E+03  0.3204E+03
      3.898  0.1329E+03  0.3264E+03
      3.943  0.1319E+03  0.3324E+03
      3.989  0.1306E+03  0.3384E+03
      4.034  0.1300E+03  0.3443E+03
      4.080  0.1311E+03  0.3503E+03
      4.126  0.1346E+03  0.3564E+03
      4.171  0.1405E+03  0.3628E+03
      4.217  0.1480E+03  0.3695E+03
      4.262  0.1561E+03  0.3766E+03
      4.308  0.1644E+03  0.3841E+03
      4.353  0.1722E+03  0.3920E+03
      4.399  0.1788E+03  0.4001E+03
      4.444  0.1829E+03  0.4084E+03
      4.490  0.1837E+03  0.4168E+03
      4.535  0.1812E+03  0.4251E+03
      4.581  0.1770E+03  0.4331E+03
      4.626  0.1735E+03  0.4410E+03
      4.672  0.1735E+03  0.4489E+03
      4.718  0.1783E+03  0.4570E+03
      4.763  0.1875E+03  0.4656E+03
      4.809  0.1990E+03  0.4746E+03
      4.854  0.2100E+03  0.4842E+03
      4.900  0.2182E+03  0.4941E+03
      4.945  0.2224E+03  0.5043E+03
      4.991  0.2231E+03  0.5144E+03
      5.036  0.2219E+03  0.5245E+03
      5.082  0.2206E+03  0.5346E+03
      5.127  0.2209E+03  0.5446E+03
      5.173  0.2242E+03  0.5549E+03
      5.218  0.2305E+03  0.5654E+03
      5.264  0.2391E+03  0.5762E+03
      5.310  0.2478E+03  0.5875E+03
      5.355  0.2537E+03  0.5991E+03
      5.401  0.2542E+03  0.6107E+03
      5.446  0.2477E+03  0.6219E+03
      5.492  0.2349E+03  0.6326E+03
      5.537  0.2183E+03  0.6426E+03
      5.583  0.2010E+03  0.6517E+03
      5.628  0.1858E+03  0.6602E+03
      5.674  0.1740E+03  0.6681E+03
      5.719  0.1654E+03  0.6757E+03
      5.765  0.1590E+03  0.6829E+03
      5.811  0.1539E+03  0.6899E+03
      5.856  0.1499E+03  0.6967E+03
      5.902  0.1474E+03  0.7034E+03
      5.947  0.1471E+03  0.7101E+03
      5.993  0.1495E+03  0.7170E+03
      6.038  0.1544E+03  0.7240E+03
      6.084  0.1612E+03  0.7313E+03
      6.129  0.1688E+03  0.7390E+03
      6.175  0.1763E+03  0.7470E+03
      6.220  0.1834E+03  0.7554E+03
      6.266  0.1900E+03  0.7641E+03
      6.311  0.1965E+03  0.7730E+03
      6.357  0.2024E+03  0.7822E+03
      6.403  0.2067E+03  0.7916E+03
      6.448  0.2086E+03  0.8011E+03
      6.494  0.2079E+03  0.8106E+03
      6.539  0.2057E+03  0.8200E+03
      6.585  0.2033E+03  0.8292E+03
      6.630  0.2016E+03  0.8384E+03
      6.676  0.1999E+03  0.8475E+03
      6.721  0.1969E+03  0.8565E+03
      6.767  0.1915E+03  0.8652E+03
      6.812  0.1845E+03  0.8736E+03
      6.858  0.1780E+03  0.8817E+03
      6.903  0.1742E+03  0.8896E+03
      6.949  0.1741E+03  0.8976E+03
      6.995  0.1769E+03  0.9056E+03
      7.040  0.1806E+03  0.9139E+03
      7.086  0.1833E+03  0.9222E+03
      7.131  0.1846E+03  0.9306E+03
      7.177  0.1851E+03  0.9390E+03
      7.222  0.1865E+03  0.9475E+03
      7.268  0.1901E+03  0.9562E+03
      7.313  0.1971E+03  0.9652E+03
      7.359  0.2079E+03  0.9746E+03
      7.404  0.2220E+03  0.9847E+03
      7.450  0.2376E+03  0.9956E+03
      7.496  0.2506E+03  0.1007E+04
      7.541  0.2552E+03  0.1019E+04
      7.587  0.2450E+03  0.1030E+04
      7.632  0.2168E+03  0.1040E+04
      7.678  0.1725E+03  0.1047E+04
      7.723  0.1198E+03  0.1053E+04
      7.769  0.6925E+02  0.1056E+04
      7.814  0.2945E+02  0.1057E+04
      7.860  0.4313E+01  0.1058E+04
      7.905 -0.7399E+01  0.1057E+04
      7.951 -0.9991E+01  0.1057E+04
      7.996 -0.8148E+01  0.1056E+04
      8.042 -0.5211E+01  0.1056E+04
      8.088 -0.2800E+01  0.1056E+04
      8.133 -0.1300E+01  0.1056E+04
      8.179 -0.5297E+00  0.1056E+04
      8.224 -0.1908E+00  0.1056E+04
      8.270 -0.6112E-01  0.1056E+04
      8.315 -0.1747E-01  0.1056E+04
      8.361 -0.4466E-02  0.1056E+04
      8.406 -0.1023E-02  0.1056E+04
      8.452 -0.2103E-03  0.1056E+04
      8.497 -0.3883E-04  0.1056E+04
      8.543 -0.6444E-05  0.1056E+04
      8.589 -0.9618E-06  0.1056E+04
      8.634 -0.1292E-06  0.1056E+04
      8.680 -0.1562E-07  0.1056E+04
      8.725 -0.1700E-08  0.1056E+04
      8.771 -0.1667E-09  0.1056E+04
      8.816 -0.1474E-10  0.1056E+04
      8.862 -0.1185E-11  0.1056E+04
      8.907 -0.8045E-13  0.1056E+04
      8.953  0.0000E+00  0.1056E+04
      8.998  0.0000E+00  0.1056E+04
      9.044  0.0000E+00  0.1056E+04
      9.089  0.0000E+00  0.1056E+04
      9.135  0.0000E+00  0.1056E+04
      9.181  0.0000E+00  0.1056E+04
      9.226  0.0000E+00  0.1056E+04
      9.272  0.0000E+00  0.1056E+04
      9.317  0.0000E+00  0.1056E+04
      9.363  0.0000E+00  0.1056E+04
      9.408  0.0000E+00  0.1056E+04
      9.454  0.0000E+00  0.1056E+04
      9.499  0.0000E+00  0.1056E+04
      9.545  0.0000E+00  0.1056E+04
      9.590  0.0000E+00  0.1056E+04
      9.636  0.0000E+00  0.1056E+04
      9.681  0.0000E+00  0.1056E+04
