  107  107    1    1
  0.1031640E+02  0.1033485E-08  0.1033485E-08  0.1033485E-08  0.3000000E-16
  1.000000000000000E-004
  CAR 
 Vib                                     
    856     32    528
 
  0.1250000E+00  0.1250000E+00  0.1250000E+00  0.3125000E-01
    1       -1.980686   1.000000
    2       -0.877719   1.000000
    3       -0.872383   1.000000
    4       -0.799552   1.000000
    5       -0.193000   1.000000
    6       -0.188916   1.000000
    7       -0.118155   1.000000
    8        0.138181   1.000000
    9        0.146035   1.000000
   10        0.217839   1.000000
   11        0.734601   1.000000
   12        0.739976   1.000000
   13        0.750314   1.000000
   14        0.770327   1.000000
   15        0.783096   1.000000
   16        0.860068   1.000000
   17        0.896452   1.000000
   18        1.260461   1.000000
   19        1.267508   1.000000
   20        1.280041   1.000000
   21        1.296393   1.000000
   22        1.314667   1.000000
   23        1.374829   1.000000
   24        1.532514   1.000000
   25        1.546129   1.000000
   26        1.580906   1.000000
   27        1.683284   1.000000
   28        1.738408   1.000000
   29        1.742687   1.000000
   30        1.751872   1.000000
   31        1.832184   1.000000
   32        1.839325   1.000000
   33        1.855445   1.000000
   34        1.943372   1.000000
   35        1.944658   1.000000
   36        1.968419   1.000000
   37        2.263763   1.000000
   38        2.287385   1.000000
   39        2.289731   1.000000
   40        2.364524   1.000000
   41        2.381726   1.000000
   42        2.388066   1.000000
   43        2.392148   1.000000
   44        2.402061   1.000000
   45        2.414124   1.000000
   46        2.423024   1.000000
   47        2.429516   1.000000
   48        2.434162   1.000000
   49        2.438190   1.000000
   50        2.444712   1.000000
   51        2.452882   1.000000
   52        2.459273   1.000000
   53        2.467766   1.000000
   54        2.468830   1.000000
   55        2.471775   1.000000
   56        2.476854   1.000000
   57        2.494932   1.000000
   58        2.514478   1.000000
   59        2.517152   1.000000
   60        2.548236   1.000000
   61        2.548794   1.000000
   62        2.560557   1.000000
   63        2.565332   1.000000
   64        2.585071   1.000000
   65        2.586096   1.000000
   66        2.628819   1.000000
   67        2.629978   1.000000
   68        2.648336   1.000000
   69        2.651547   1.000000
   70        2.659261   1.000000
   71        2.660682   1.000000
   72        2.677004   1.000000
   73        2.677439   1.000000
   74        2.684023   1.000000
   75        2.696205   1.000000
   76        2.697677   1.000000
   77        2.714810   1.000000
   78        2.717279   1.000000
   79        2.727433   1.000000
   80        2.736665   1.000000
   81        2.747242   1.000000
   82        2.756877   1.000000
   83        2.766685   1.000000
   84        2.780306   1.000000
   85        2.792119   1.000000
   86        2.830090   1.000000
   87        2.835769   1.000000
   88        2.855321   1.000000
   89        2.860543   1.000000
   90        2.866729   1.000000
   91        2.900957   1.000000
   92        2.933160   1.000000
   93        2.941836   1.000000
   94        2.965733   1.000000
   95        2.969094   1.000000
   96        2.994903   1.000000
   97        3.000619   1.000000
   98        3.002367   1.000000
   99        3.009875   1.000000
  100        3.020440   1.000000
  101        3.029078   1.000000
  102        3.029875   1.000000
  103        3.068632   1.000000
  104        3.079769   1.000000
  105        3.080993   1.000000
  106        3.098514   1.000000
  107        3.107617   1.000000
  108        3.113236   1.000000
  109        3.125150   1.000000
  110        3.163728   1.000000
  111        3.169759   1.000000
  112        3.226829   1.000000
  113        3.229578   1.000000
  114        3.237544   1.000000
  115        3.258401   1.000000
  116        3.262247   1.000000
  117        3.276864   1.000000
  118        3.310607   1.000000
  119        3.314030   1.000000
  120        3.334183   1.000000
  121        3.349377   1.000000
  122        3.354748   1.000000
  123        3.362458   1.000000
  124        3.378702   1.000000
  125        3.391248   1.000000
  126        3.393938   1.000000
  127        3.401798   1.000000
  128        3.405773   1.000000
  129        3.407824   1.000000
  130        3.411785   1.000000
  131        3.416747   1.000000
  132        3.431065   1.000000
  133        3.438182   1.000000
  134        3.444437   1.000000
  135        3.454422   1.000000
  136        3.462011   1.000000
  137        3.467403   1.000000
  138        3.490637   1.000000
  139        3.492491   1.000000
  140        3.512750   1.000000
  141        3.514742   1.000000
  142        3.530706   1.000000
  143        3.536342   1.000000
  144        3.562666   1.000000
  145        3.595642   1.000000
  146        3.602112   1.000000
  147        3.608450   1.000000
  148        3.618527   1.000000
  149        3.645459   1.000000
  150        3.648299   1.000000
  151        3.658908   1.000000
  152        3.662757   1.000000
  153        3.664366   1.000000
  154        3.678396   1.000000
  155        3.692094   1.000000
  156        3.724649   1.000000
  157        3.737184   1.000000
  158        3.770364   1.000000
  159        3.804111   1.000000
  160        3.805454   1.000000
  161        3.829899   1.000000
  162        3.832514   1.000000
  163        3.845030   1.000000
  164        3.871811   1.000000
  165        3.910581   1.000000
  166        3.918684   1.000000
  167        3.931695   1.000000
  168        3.933627   1.000000
  169        3.990248   1.000000
  170        4.000163   1.000000
  171        4.016262   1.000000
  172        4.043198   1.000000
  173        4.072899   1.000000
  174        4.116857   1.000000
  175        4.125147   1.000000
  176        4.126027   1.000000
  177        4.176265   1.000000
  178        4.181600   1.000000
  179        4.186443   1.000000
  180        4.196868   1.000000
  181        4.203873   1.000000
  182        4.214029   1.000000
  183        4.223393   1.000000
  184        4.227624   1.000000
  185        4.229936   1.000000
  186        4.238981   1.000000
  187        4.239546   1.000000
  188        4.257538   1.000000
  189        4.263193   1.000000
  190        4.285433   1.000000
  191        4.295083   1.000000
  192        4.302971   1.000000
  193        4.330627   1.000000
  194        4.359859   1.000000
  195        4.364661   1.000000
  196        4.365224   1.000000
  197        4.378257   1.000000
  198        4.379834   1.000000
  199        4.381060   1.000000
  200        4.385641   1.000000
  201        4.394319   1.000000
  202        4.396722   1.000000
  203        4.399226   1.000000
  204        4.412868   1.000000
  205        4.413620   1.000000
  206        4.426167   1.000000
  207        4.438560   1.000000
  208        4.457027   1.000000
  209        4.468916   1.000000
  210        4.481087   1.000000
  211        4.484133   1.000000
  212        4.495821   1.000000
  213        4.501059   1.000000
  214        4.508487   1.000000
  215        4.546760   1.000000
  216        4.552960   1.000000
  217        4.573775   1.000000
  218        4.575336   1.000000
  219        4.588429   1.000000
  220        4.617807   1.000000
  221        4.636162   1.000000
  222        4.645396   1.000000
  223        4.646985   1.000000
  224        4.685384   1.000000
  225        4.688521   1.000000
  226        4.705844   1.000000
  227        4.720264   1.000000
  228        4.733057   1.000000
  229        4.741425   1.000000
  230        4.747014   1.000000
  231        4.752439   1.000000
  232        4.765057   1.000000
  233        4.769691   1.000000
  234        4.783793   1.000000
  235        4.783897   1.000000
  236        4.793364   1.000000
  237        4.835981   1.000000
  238        4.843853   1.000000
  239        4.847617   1.000000
  240        4.871411   1.000000
  241        4.891709   1.000000
  242        4.898563   1.000000
  243        4.908035   1.000000
  244        4.930284   1.000000
  245        4.935275   1.000000
  246        4.939910   1.000000
  247        4.953036   1.000000
  248        4.974197   1.000000
  249        4.980769   1.000000
  250        4.986089   1.000000
  251        4.997458   1.000000
  252        4.998741   1.000000
  253        5.001504   1.000000
  254        5.003971   1.000000
  255        5.006117   1.000000
  256        5.011704   1.000000
  257        5.023137   1.000000
  258        5.029555   1.000000
  259        5.040526   1.000000
  260        5.040993   1.000000
  261        5.047409   1.000000
  262        5.051407   1.000000
  263        5.063786   1.000000
  264        5.068773   1.000000
  265        5.073658   1.000000
  266        5.082249   1.000000
  267        5.082634   1.000000
  268        5.088814   1.000000
  269        5.095813   1.000000
  270        5.101308   1.000000
  271        5.108246   1.000000
  272        5.125008   1.000000
  273        5.131773   1.000000
  274        5.134116   1.000000
  275        5.140186   1.000000
  276        5.152913   1.000000
  277        5.154633   1.000000
  278        5.167577   1.000000
  279        5.169680   1.000000
  280        5.184778   1.000000
  281        5.186712   1.000000
  282        5.190369   1.000000
  283        5.202430   1.000000
  284        5.209093   1.000000
  285        5.213971   1.000000
  286        5.214552   1.000000
  287        5.219826   1.000000
  288        5.221329   1.000000
  289        5.228833   1.000000
  290        5.232359   1.000000
  291        5.236035   1.000000
  292        5.237096   1.000000
  293        5.238967   1.000000
  294        5.256995   1.000000
  295        5.265587   1.000000
  296        5.278519   1.000000
  297        5.283247   1.000000
  298        5.286703   1.000000
  299        5.288409   1.000000
  300        5.318395   1.000000
  301        5.319553   1.000000
  302        5.321522   1.000000
  303        5.329471   1.000000
  304        5.354222   1.000000
  305        5.357161   1.000000
  306        5.369443   1.000000
  307        5.386736   1.000000
  308        5.403990   1.000000
  309        5.413921   1.000000
  310        5.426919   1.000000
  311        5.474085   1.000000
  312        5.481920   1.000000
  313        5.490294   1.000000
  314        5.496475   1.000000
  315        5.510012   1.000000
  316        5.516022   1.000000
  317        5.516908   1.000000
  318        5.524242   1.000000
  319        5.527345   1.000000
  320        5.527762   1.000000
  321        5.530634   1.000000
  322        5.545535   1.000000
  323        5.550904   1.000000
  324        5.567671   1.000000
  325        5.570995   1.000000
  326        5.574900   1.000000
  327        5.586212   1.000000
  328        5.596731   1.000000
  329        5.603986   1.000000
  330        5.610523   1.000000
  331        5.628490   1.000000
  332        5.636437   1.000000
  333        5.656627   1.000000
  334        5.660377   1.000000
  335        5.666528   1.000000
  336        5.674769   1.000000
  337        5.675139   1.000000
  338        5.685665   1.000000
  339        5.695621   1.000000
  340        5.700916   1.000000
  341        5.713310   1.000000
  342        5.733932   1.000000
  343        5.737488   1.000000
  344        5.752678   1.000000
  345        5.753937   1.000000
  346        5.766194   1.000000
  347        5.773689   1.000000
  348        5.785546   1.000000
  349        5.787038   1.000000
  350        5.794556   1.000000
  351        5.818651   1.000000
  352        5.820987   1.000000
  353        5.824333   1.000000
  354        5.833161   1.000000
  355        5.835021   1.000000
  356        5.845375   1.000000
  357        5.846996   1.000000
  358        5.867220   1.000000
  359        5.911590   1.000000
  360        5.930513   1.000000
  361        5.939907   1.000000
  362        5.963567   1.000001
  363        5.979873   1.000001
  364        6.000267   1.000002
  365        6.018902   1.000004
  366        6.040551   1.000009
  367        6.047239   1.000011
  368        6.081227   1.000031
  369        6.098152   1.000052
  370        6.133111   1.000138
  371        6.136548   1.000152
  372        6.152816   1.000234
  373        6.153120   1.000235
  374        6.164202   1.000313
  375        6.165854   1.000327
  376        6.172000   1.000381
  377        6.173557   1.000396
  378        6.179329   1.000457
  379        6.181433   1.000482
  380        6.208193   1.000908
  381        6.214637   1.001052
  382        6.231777   1.001536
  383        6.246148   1.002082
  384        6.267445   1.003194
  385        6.277370   1.003863
  386        6.288897   1.004779
  387        6.323392   1.008590
  388        6.325616   1.008897
  389        6.341080   1.011248
  390        6.352421   1.013217
  391        6.368212   1.016282
  392        6.381062   1.019020
  393        6.390198   1.021067
  394        6.396863   1.022594
  395        6.412426   1.026187
  396        6.415354   1.026853
  397        6.422475   1.028440
  398        6.445514   1.032909
  399        6.454655   1.034203
  400        6.459448   1.034724
  401        6.482776   1.035140
  402        6.503004   1.031532
  403        6.515742   1.026692
  404        6.533145   1.016074
  405        6.540980   1.009559
  406        6.553803   0.996290
  407        6.557130   0.992284
  408        6.566486   0.979704
  409        6.578507   0.960567
  410        6.581523   0.955221
  411        6.584540   0.949650
  412        6.592494   0.933881
  413        6.606978   0.901077
  414        6.618018   0.872523
  415        6.626555   0.848371
  416        6.633023   0.828904
  417        6.643843   0.794173
  418        6.656170   0.751530
  419        6.678856   0.665751
  420        6.681989   0.653293
  421        6.708551   0.543745
  422        6.711198   0.532584
  423        6.716768   0.509040
  424        6.723432   0.480851
  425        6.745881   0.386997
  426        6.752807   0.358809
  427        6.761946   0.322471
  428        6.762670   0.319639
  429        6.784222   0.239283
  430        6.793118   0.208661
  431        6.806197   0.166768
  432        6.807333   0.163316
  433        6.816891   0.135482
  434        6.834068   0.091133
  435        6.849382   0.057861
  436        6.850119   0.056408
  437        6.860517   0.037344
  438        6.874425   0.015907
  439        6.894805  -0.007685
  440        6.917514  -0.024391
  441        6.921927  -0.026625
  442        6.925761  -0.028329
  443        6.932973  -0.030971
  444        6.948556  -0.034459
  445        6.961889  -0.035443
  446        6.970290  -0.035305
  447        6.975941  -0.034940
  448        6.979001  -0.034662
  449        6.986933  -0.033713
  450        6.991759  -0.032995
  451        6.996912  -0.032130
  452        7.004059  -0.030793
  453        7.005039  -0.030599
  454        7.009597  -0.029668
  455        7.012910  -0.028965
  456        7.017791  -0.027899
  457        7.019382  -0.027545
  458        7.036856  -0.023540
  459        7.050133  -0.020495
  460        7.051801  -0.020120
  461        7.056169  -0.019147
  462        7.068066  -0.016598
  463        7.069144  -0.016376
  464        7.079391  -0.014338
  465        7.098720  -0.010924
  466        7.123935  -0.007364
  467        7.128714  -0.006801
  468        7.132405  -0.006389
  469        7.138334  -0.005768
  470        7.147869  -0.004871
  471        7.153686  -0.004380
  472        7.169567  -0.003244
  473        7.177258  -0.002790
  474        7.179353  -0.002676
  475        7.180707  -0.002604
  476        7.187630  -0.002263
  477        7.213859  -0.001295
  478        7.226692  -0.000971
  479        7.234124  -0.000819
  480        7.240334  -0.000708
  481        7.245218  -0.000631
  482        7.265025  -0.000389
  483        7.282783  -0.000247
  484        7.290750  -0.000201
  485        7.296704  -0.000171
  486        7.304650  -0.000138
  487        7.310360  -0.000118
  488        7.311682  -0.000114
  489        7.320658  -0.000089
  490        7.328082  -0.000072
  491        7.339293  -0.000052
  492        7.346481  -0.000042
  493        7.351175  -0.000037
  494        7.352652  -0.000035
  495        7.356650  -0.000031
  496        7.370241  -0.000021
  497        7.370657  -0.000020
  498        7.381005  -0.000015
  499        7.383743  -0.000014
  500        7.394166  -0.000010
  501        7.397250  -0.000009
  502        7.407880  -0.000006
  503        7.437396  -0.000002
  504        7.441728  -0.000002
  505        7.451688  -0.000001
  506        7.453279  -0.000001
  507        7.470686  -0.000001
  508        7.471608  -0.000001
  509        7.474917  -0.000001
  510        7.489608  -0.000000
  511        7.492854  -0.000000
  512        7.498993  -0.000000
  513        7.501129  -0.000000
  514        7.501782  -0.000000
  515        7.517141  -0.000000
  516        7.530231  -0.000000
  517        7.534923  -0.000000
  518        7.552691  -0.000000
  519        7.584404  -0.000000
  520        7.602934  -0.000000
  521        7.604447  -0.000000
  522        7.615833  -0.000000
  523        7.626387  -0.000000
  524        7.633391  -0.000000
  525        7.636088  -0.000000
  526        7.669474  -0.000000
  527        7.674231  -0.000000
  528        7.678340  -0.000000
 
  0.3750000E+00  0.1250000E+00  0.1250000E+00  0.3125000E-01
    1       -1.785696   1.000000
    2       -1.401390   1.000000
    3       -0.696492   1.000000
    4       -0.651066   1.000000
    5       -0.351556   1.000000
    6       -0.302843   1.000000
    7       -0.023489   1.000000
    8        0.020193   1.000000
    9        0.287006   1.000000
   10        0.297193   1.000000
   11        0.364675   1.000000
   12        0.545317   1.000000
   13        0.582825   1.000000
   14        0.866241   1.000000
   15        0.874338   1.000000
   16        1.041206   1.000000
   17        1.055409   1.000000
   18        1.273172   1.000000
   19        1.360232   1.000000
   20        1.409409   1.000000
   21        1.432964   1.000000
   22        1.471645   1.000000
   23        1.688212   1.000000
   24        1.813102   1.000000
   25        1.822881   1.000000
   26        1.829735   1.000000
   27        1.871191   1.000000
   28        1.878341   1.000000
   29        1.882783   1.000000
   30        1.895439   1.000000
   31        1.913340   1.000000
   32        1.946481   1.000000
   33        1.964278   1.000000
   34        1.968073   1.000000
   35        2.022904   1.000000
   36        2.038185   1.000000
   37        2.050491   1.000000
   38        2.058509   1.000000
   39        2.087857   1.000000
   40        2.088824   1.000000
   41        2.102966   1.000000
   42        2.120489   1.000000
   43        2.137889   1.000000
   44        2.170098   1.000000
   45        2.180228   1.000000
   46        2.195873   1.000000
   47        2.246045   1.000000
   48        2.258230   1.000000
   49        2.331557   1.000000
   50        2.337551   1.000000
   51        2.405192   1.000000
   52        2.414534   1.000000
   53        2.430749   1.000000
   54        2.445659   1.000000
   55        2.447282   1.000000
   56        2.455208   1.000000
   57        2.464882   1.000000
   58        2.469331   1.000000
   59        2.505784   1.000000
   60        2.531006   1.000000
   61        2.534855   1.000000
   62        2.542569   1.000000
   63        2.560383   1.000000
   64        2.564707   1.000000
   65        2.584506   1.000000
   66        2.601885   1.000000
   67        2.609780   1.000000
   68        2.644253   1.000000
   69        2.649393   1.000000
   70        2.655999   1.000000
   71        2.664942   1.000000
   72        2.671084   1.000000
   73        2.684852   1.000000
   74        2.689057   1.000000
   75        2.690000   1.000000
   76        2.712855   1.000000
   77        2.722941   1.000000
   78        2.732545   1.000000
   79        2.751543   1.000000
   80        2.758880   1.000000
   81        2.790024   1.000000
   82        2.809753   1.000000
   83        2.815651   1.000000
   84        2.819137   1.000000
   85        2.839900   1.000000
   86        2.842646   1.000000
   87        2.854083   1.000000
   88        2.867489   1.000000
   89        2.883271   1.000000
   90        2.885512   1.000000
   91        2.899320   1.000000
   92        2.916111   1.000000
   93        2.940868   1.000000
   94        2.948221   1.000000
   95        2.957353   1.000000
   96        2.960498   1.000000
   97        2.977897   1.000000
   98        2.990307   1.000000
   99        2.997007   1.000000
  100        3.035292   1.000000
  101        3.056555   1.000000
  102        3.065244   1.000000
  103        3.082306   1.000000
  104        3.090800   1.000000
  105        3.122539   1.000000
  106        3.127830   1.000000
  107        3.139495   1.000000
  108        3.148383   1.000000
  109        3.156845   1.000000
  110        3.163752   1.000000
  111        3.179246   1.000000
  112        3.189425   1.000000
  113        3.204627   1.000000
  114        3.209345   1.000000
  115        3.222863   1.000000
  116        3.232745   1.000000
  117        3.250164   1.000000
  118        3.256666   1.000000
  119        3.274756   1.000000
  120        3.315051   1.000000
  121        3.320759   1.000000
  122        3.344528   1.000000
  123        3.345396   1.000000
  124        3.369539   1.000000
  125        3.371176   1.000000
  126        3.396357   1.000000
  127        3.406969   1.000000
  128        3.408105   1.000000
  129        3.433823   1.000000
  130        3.436540   1.000000
  131        3.450891   1.000000
  132        3.461149   1.000000
  133        3.470850   1.000000
  134        3.482110   1.000000
  135        3.495938   1.000000
  136        3.504574   1.000000
  137        3.516126   1.000000
  138        3.520755   1.000000
  139        3.530392   1.000000
  140        3.551199   1.000000
  141        3.558546   1.000000
  142        3.572445   1.000000
  143        3.577898   1.000000
  144        3.590650   1.000000
  145        3.608636   1.000000
  146        3.616111   1.000000
  147        3.646569   1.000000
  148        3.660153   1.000000
  149        3.692883   1.000000
  150        3.700048   1.000000
  151        3.709907   1.000000
  152        3.721774   1.000000
  153        3.751371   1.000000
  154        3.768166   1.000000
  155        3.783776   1.000000
  156        3.790266   1.000000
  157        3.795233   1.000000
  158        3.818774   1.000000
  159        3.837148   1.000000
  160        3.846827   1.000000
  161        3.854069   1.000000
  162        3.863181   1.000000
  163        3.881676   1.000000
  164        3.888154   1.000000
  165        3.890219   1.000000
  166        3.916605   1.000000
  167        3.925593   1.000000
  168        3.948717   1.000000
  169        3.954069   1.000000
  170        3.963309   1.000000
  171        3.981254   1.000000
  172        3.993956   1.000000
  173        4.008473   1.000000
  174        4.033908   1.000000
  175        4.036934   1.000000
  176        4.041484   1.000000
  177        4.051072   1.000000
  178        4.075958   1.000000
  179        4.103501   1.000000
  180        4.107578   1.000000
  181        4.130586   1.000000
  182        4.151105   1.000000
  183        4.161567   1.000000
  184        4.173082   1.000000
  185        4.195749   1.000000
  186        4.199012   1.000000
  187        4.204505   1.000000
  188        4.225429   1.000000
  189        4.246957   1.000000
  190        4.253641   1.000000
  191        4.257107   1.000000
  192        4.281820   1.000000
  193        4.305355   1.000000
  194        4.329240   1.000000
  195        4.345869   1.000000
  196        4.356240   1.000000
  197        4.363242   1.000000
  198        4.383014   1.000000
  199        4.385432   1.000000
  200        4.393643   1.000000
  201        4.401097   1.000000
  202        4.421170   1.000000
  203        4.433517   1.000000
  204        4.443742   1.000000
  205        4.457611   1.000000
  206        4.472076   1.000000
  207        4.487968   1.000000
  208        4.495761   1.000000
  209        4.498469   1.000000
  210        4.509928   1.000000
  211        4.517306   1.000000
  212        4.523440   1.000000
  213        4.534191   1.000000
  214        4.546679   1.000000
  215        4.556786   1.000000
  216        4.574345   1.000000
  217        4.588930   1.000000
  218        4.605791   1.000000
  219        4.613769   1.000000
  220        4.621403   1.000000
  221        4.630403   1.000000
  222        4.650506   1.000000
  223        4.666014   1.000000
  224        4.680675   1.000000
  225        4.693177   1.000000
  226        4.709180   1.000000
  227        4.734302   1.000000
  228        4.739115   1.000000
  229        4.748393   1.000000
  230        4.756864   1.000000
  231        4.767019   1.000000
  232        4.781004   1.000000
  233        4.789900   1.000000
  234        4.797848   1.000000
  235        4.805556   1.000000
  236        4.815852   1.000000
  237        4.820267   1.000000
  238        4.826960   1.000000
  239        4.833165   1.000000
  240        4.838985   1.000000
  241        4.849820   1.000000
  242        4.859519   1.000000
  243        4.866123   1.000000
  244        4.870835   1.000000
  245        4.882454   1.000000
  246        4.885210   1.000000
  247        4.896968   1.000000
  248        4.915733   1.000000
  249        4.918681   1.000000
  250        4.926294   1.000000
  251        4.929558   1.000000
  252        4.939781   1.000000
  253        4.946187   1.000000
  254        4.952573   1.000000
  255        4.975490   1.000000
  256        4.983607   1.000000
  257        4.988651   1.000000
  258        4.995399   1.000000
  259        5.000425   1.000000
  260        5.012869   1.000000
  261        5.022867   1.000000
  262        5.031961   1.000000
  263        5.040318   1.000000
  264        5.053038   1.000000
  265        5.064346   1.000000
  266        5.067893   1.000000
  267        5.089429   1.000000
  268        5.095110   1.000000
  269        5.111345   1.000000
  270        5.116215   1.000000
  271        5.128848   1.000000
  272        5.141815   1.000000
  273        5.150459   1.000000
  274        5.160652   1.000000
  275        5.165283   1.000000
  276        5.178550   1.000000
  277        5.185890   1.000000
  278        5.197175   1.000000
  279        5.200885   1.000000
  280        5.212625   1.000000
  281        5.221039   1.000000
  282        5.227506   1.000000
  283        5.230642   1.000000
  284        5.234960   1.000000
  285        5.242590   1.000000
  286        5.246261   1.000000
  287        5.261930   1.000000
  288        5.265431   1.000000
  289        5.271887   1.000000
  290        5.280435   1.000000
  291        5.291638   1.000000
  292        5.293682   1.000000
  293        5.314254   1.000000
  294        5.322154   1.000000
  295        5.325484   1.000000
  296        5.335875   1.000000
  297        5.343918   1.000000
  298        5.348665   1.000000
  299        5.351689   1.000000
  300        5.358319   1.000000
  301        5.366932   1.000000
  302        5.370507   1.000000
  303        5.379865   1.000000
  304        5.384212   1.000000
  305        5.387492   1.000000
  306        5.396782   1.000000
  307        5.403273   1.000000
  308        5.405994   1.000000
  309        5.414049   1.000000
  310        5.422264   1.000000
  311        5.438942   1.000000
  312        5.442233   1.000000
  313        5.445765   1.000000
  314        5.452424   1.000000
  315        5.457002   1.000000
  316        5.465318   1.000000
  317        5.470031   1.000000
  318        5.476359   1.000000
  319        5.487589   1.000000
  320        5.494300   1.000000
  321        5.505611   1.000000
  322        5.511562   1.000000
  323        5.522199   1.000000
  324        5.532779   1.000000
  325        5.538010   1.000000
  326        5.551365   1.000000
  327        5.555390   1.000000
  328        5.566939   1.000000
  329        5.582732   1.000000
  330        5.584726   1.000000
  331        5.598063   1.000000
  332        5.607400   1.000000
  333        5.623793   1.000000
  334        5.634103   1.000000
  335        5.653287   1.000000
  336        5.669073   1.000000
  337        5.675827   1.000000
  338        5.687400   1.000000
  339        5.703452   1.000000
  340        5.712020   1.000000
  341        5.727069   1.000000
  342        5.752290   1.000000
  343        5.764175   1.000000
  344        5.770080   1.000000
  345        5.778663   1.000000
  346        5.789393   1.000000
  347        5.806583   1.000000
  348        5.815135   1.000000
  349        5.833877   1.000000
  350        5.860345   1.000000
  351        5.876294   1.000000
  352        5.891462   1.000000
  353        5.919664   1.000000
  354        5.940882   1.000000
  355        5.966098   1.000001
  356        5.990042   1.000002
  357        6.004081   1.000003
  358        6.015188   1.000004
  359        6.020018   1.000005
  360        6.027288   1.000006
  361        6.038471   1.000008
  362        6.059902   1.000016
  363        6.064346   1.000019
  364        6.071536   1.000023
  365        6.086324   1.000036
  366        6.095937   1.000048
  367        6.110849   1.000074
  368        6.126776   1.000116
  369        6.141779   1.000175
  370        6.146483   1.000198
  371        6.155174   1.000248