       N       E                     dE             d eps       ncg     rms          rms(c)
DAV:   1     0.731905313404E+04    0.73191E+04   -0.28768E+05 33840   0.178E+03
DAV:   2    -0.998771139254E+02   -0.74189E+04   -0.72136E+04 33792   0.438E+02
DAV:   3    -0.869342932981E+03   -0.76947E+03   -0.65284E+03 33840   0.182E+02
DAV:   4    -0.102022090766E+04   -0.15088E+03   -0.14091E+03 61440   0.530E+01
DAV:   5    -0.103140979837E+04   -0.11189E+02   -0.10709E+02 53904   0.187E+01    0.936E+01
RMM:   6    -0.923034050892E+03    0.10838E+03   -0.16079E+03 33792   0.112E+02    0.642E+01
RMM:   7    -0.119083633027E+04   -0.26780E+03   -0.55883E+02 40993   0.397E+01    0.193E+02
RMM:   8    -0.911975788281E+03    0.27886E+03   -0.31373E+02 33792   0.484E+01    0.764E+01
RMM:   9    -0.876383273740E+03    0.35593E+02   -0.86525E+01 33806   0.219E+01    0.407E+01
RMM:  10    -0.874947291292E+03    0.14360E+01   -0.52076E+01 37663   0.137E+01    0.267E+01
RMM:  11    -0.873796628232E+03    0.11507E+01   -0.19047E+01 41299   0.714E+00    0.274E+01
RMM:  12    -0.869580790675E+03    0.42158E+01   -0.57120E+00 35660   0.521E+00    0.161E+01
RMM:  13    -0.869341948339E+03    0.23884E+00   -0.36421E+00 50177   0.169E+00    0.147E+01
RMM:  14    -0.868433158958E+03    0.90879E+00   -0.24556E+00 35965   0.309E+00    0.119E+01
RMM:  15    -0.868275215746E+03    0.15794E+00   -0.17047E+00 46001   0.172E+00    0.109E+01
RMM:  16    -0.867949295010E+03    0.32592E+00   -0.58461E-01 35359   0.172E+00    0.777E+00
RMM:  17    -0.867785426733E+03    0.16387E+00   -0.39023E-01 35034   0.130E+00    0.445E+00
RMM:  18    -0.867757869025E+03    0.27558E-01   -0.37400E-01 36647   0.120E+00    0.413E+00
RMM:  19    -0.867681357124E+03    0.76512E-01   -0.13859E-01 34821   0.820E-01    0.142E+00
RMM:  20    -0.867708541712E+03   -0.27185E-01   -0.12563E-01 39365   0.630E-01    0.290E+00
RMM:  21    -0.867681339021E+03    0.27203E-01   -0.54069E-02 35444   0.525E-01    0.147E+00
RMM:  22    -0.867682887126E+03   -0.15481E-02   -0.35728E-02 43344   0.273E-01    0.177E+00
RMM:  23    -0.867678117123E+03    0.47700E-02   -0.19730E-02 36203   0.291E-01    0.111E+00
RMM:  24    -0.867677692360E+03    0.42476E-03   -0.19180E-02 36333   0.262E-01    0.127E+00
RMM:  25    -0.867674999456E+03    0.26929E-02   -0.68518E-03 46374   0.976E-02    0.730E-01
RMM:  26    -0.867673042548E+03    0.19569E-02   -0.17542E-03 35425   0.954E-02    0.305E-01
RMM:  27    -0.867672777795E+03    0.26475E-03   -0.12518E-03 42374   0.537E-02    0.131E-01
RMM:  28    -0.867672837202E+03   -0.59407E-04   -0.73755E-04 39088   0.505E-02    0.200E-01
RMM:  29    -0.867672722730E+03    0.11447E-03   -0.24526E-04 36630   0.334E-02    0.115E-01
RMM:  30    -0.867672730479E+03   -0.77491E-05   -0.20172E-04 44368   0.204E-02    0.123E-01
RMM:  31    -0.867672675607E+03    0.54872E-04   -0.48483E-05 36696   0.165E-02    0.865E-02
RMM:  32    -0.867672669467E+03    0.61400E-05   -0.31127E-05 45789   0.819E-03    0.770E-02
RMM:  33    -0.867672650720E+03    0.18748E-04   -0.65398E-06 38225   0.789E-03    0.299E-02
RMM:  34    -0.867672645069E+03    0.56504E-05   -0.47663E-08 35453   0.597E-03    0.132E-02
RMM:  35    -0.867672646001E+03   -0.93177E-06    0.70784E-06 26682   0.369E-03
   1 F= -.86767265E+03 E0= -.86765629E+03  d E =-.490737E-01
       N       E                     dE             d eps       ncg     rms          rms(c)
DAV:   1    -0.867671319583E+03    0.13255E-02   -0.34776E+00 35832   0.227E+00    0.296E-01
RMM:   2    -0.867709582332E+03   -0.38263E-01   -0.82458E-02 34397   0.681E-01    0.292E+00
RMM:   3    -0.867676686782E+03    0.32896E-01   -0.18915E-02 33793   0.384E-01    0.835E-01
RMM:   4    -0.867673951816E+03    0.27350E-02   -0.47968E-03 38274   0.121E-01    0.282E-01
RMM:   5    -0.867674059353E+03   -0.10754E-03   -0.33098E-03 44743   0.825E-02    0.318E-01
RMM:   6    -0.867673707205E+03    0.35215E-03   -0.13946E-03 38108   0.633E-02    0.281E-01
RMM:   7    -0.867673408756E+03    0.29845E-03   -0.96882E-04 34569   0.703E-02    0.168E-01
RMM:   8    -0.867673705296E+03   -0.29654E-03   -0.11798E-03 36043   0.678E-02    0.289E-01
RMM:   9    -0.867673282368E+03    0.42293E-03   -0.39212E-04 33831   0.544E-02    0.377E-02
RMM:  10    -0.867673289038E+03   -0.66697E-05   -0.16830E-04 48381   0.141E-02    0.441E-02
RMM:  11    -0.867673288867E+03    0.17081E-06   -0.37646E-05 38701   0.103E-02    0.430E-02
RMM:  12    -0.867673280539E+03    0.83283E-05   -0.15098E-05 35480   0.860E-03    0.129E-02
RMM:  13    -0.867673283091E+03   -0.25524E-05   -0.12882E-05 36491   0.533E-03    0.247E-02
RMM:  14    -0.867673280461E+03    0.26298E-05   -0.30148E-06 23193   0.449E-03    0.941E-03
RMM:  15    -0.867673280372E+03    0.89734E-07   -0.14393E-06 19710   0.255E-03
   2 F= -.86767328E+03 E0= -.86765700E+03  d E =-.488288E-01
       N       E                     dE             d eps       ncg     rms          rms(c)
DAV:   1    -0.867663567635E+03    0.97128E-02   -0.14003E+01 35328   0.460E+00    0.718E-01
RMM:   2    -0.867938906371E+03   -0.27534E+00   -0.51908E-01 34214   0.165E+00    0.807E+00
RMM:   3    -0.867691764680E+03    0.24714E+00   -0.11710E-01 33792   0.948E-01    0.168E+00
RMM:   4    -0.867676384131E+03    0.15381E-01   -0.24024E-02 36562   0.289E-01    0.638E-01
RMM:   5    -0.867676698666E+03   -0.31453E-03   -0.15560E-02 45733   0.175E-01    0.672E-01
RMM:   6    -0.867674766516E+03    0.19321E-02   -0.51017E-03 38076   0.122E-01    0.493E-01
RMM:   7    -0.867674154797E+03    0.61172E-03   -0.39876E-03 35194   0.135E-01    0.420E-01
RMM:   8    -0.867675609860E+03   -0.14551E-02   -0.59177E-03 35399   0.155E-01    0.672E-01
RMM:   9    -0.867673324657E+03    0.22852E-02   -0.21079E-03 33794   0.127E-01    0.104E-01
RMM:  10    -0.867673356500E+03   -0.31843E-04   -0.85774E-04 47032   0.376E-02    0.132E-01
RMM:  11    -0.867673332232E+03    0.24268E-04   -0.22423E-04 37853   0.268E-02    0.105E-01
RMM:  12    -0.867673282401E+03    0.49831E-04   -0.96372E-05 36606   0.205E-02    0.286E-02
RMM:  13    -0.867673294230E+03   -0.11828E-04   -0.79342E-05 46764   0.112E-02    0.532E-02
RMM:  14    -0.867673282856E+03    0.11374E-04   -0.17888E-05 35750   0.865E-03    0.239E-02
RMM:  15    -0.867673282604E+03    0.25189E-06   -0.12264E-05 36019   0.512E-03    0.192E-02
RMM:  16    -0.867673284008E+03   -0.14036E-05   -0.77242E-06 32670   0.549E-03    0.240E-02
RMM:  17    -0.867673281484E+03    0.25234E-05   -0.27511E-06 21425   0.471E-03    0.681E-03
RMM:  18    -0.867673281785E+03   -0.30097E-06   -0.14922E-06 19332   0.269E-03
   3 F= -.86767328E+03 E0= -.86765701E+03  d E =-.488282E-01
       N       E                     dE             d eps       ncg     rms          rms(c)
DAV:   1    -0.867664228962E+03    0.90525E-02   -0.69567E+00 34872   0.325E+00    0.495E-01
RMM:   2    -0.867774908711E+03   -0.11068E+00   -0.21561E-01 34410   0.108E+00    0.509E+00
RMM:   3    -0.867678106619E+03    0.96802E-01   -0.51452E-02 33792   0.633E-01    0.142E+00
RMM:   4    -0.867669430560E+03    0.86761E-02   -0.11843E-02 36143   0.209E-01    0.452E-01
RMM:   5    -0.867669835709E+03   -0.40515E-03   -0.93120E-03 44761   0.139E-01    0.543E-01
RMM:   6    -0.867668884436E+03    0.95127E-03   -0.35506E-03 37840   0.104E-01    0.456E-01
RMM:   7    -0.867668081224E+03    0.80321E-03   -0.24830E-03 34586   0.113E-01    0.272E-01
RMM:   8    -0.867668864731E+03   -0.78351E-03   -0.31641E-03 36760   0.108E-01    0.465E-01
RMM:   9    -0.867667777330E+03    0.10874E-02   -0.99561E-04 33813   0.848E-02    0.901E-02
RMM:  10    -0.867667769937E+03    0.73924E-05   -0.45264E-04 46759   0.259E-02    0.659E-02
RMM:  11    -0.867667782932E+03   -0.12995E-04   -0.12995E-04 39081   0.191E-02    0.850E-02
RMM:  12    -0.867667751800E+03    0.31132E-04   -0.44125E-05 35920   0.144E-02    0.246E-02
RMM:  13    -0.867667757125E+03   -0.53247E-05   -0.40281E-05 43494   0.898E-03    0.388E-02
RMM:  14    -0.867667751674E+03    0.54506E-05   -0.97420E-06 32948   0.674E-03    0.184E-02
RMM:  15    -0.867667750931E+03    0.74277E-06   -0.37808E-06 25498   0.344E-03
   4 F= -.86766775E+03 E0= -.86765147E+03  d E =-.488326E-01
       N       E                     dE             d eps       ncg     rms          rms(c)
DAV:   1    -0.867660487631E+03    0.72640E-02   -0.13944E+01 33792   0.462E+00    0.850E-01
RMM:   2    -0.868012767038E+03   -0.35228E+00   -0.64578E-01 34572   0.182E+00    0.897E+00
RMM:   3    -0.867692228749E+03    0.32054E+00   -0.15418E-01 33792   0.109E+00    0.200E+00
RMM:   4    -0.867671515753E+03    0.20713E-01   -0.32846E-02 36655   0.333E-01    0.696E-01
RMM:   5    -0.867672995807E+03   -0.14801E-02   -0.22328E-02 44598   0.218E-01    0.898E-01
RMM:   6    -0.867670357026E+03    0.26388E-02   -0.82229E-03 38233   0.156E-01    0.689E-01
RMM:   7    -0.867668755747E+03    0.16013E-02   -0.59706E-03 34875   0.170E-01    0.484E-01
RMM:   8    -0.867670260469E+03   -0.15047E-02   -0.74028E-03 36211   0.168E-01    0.694E-01
RMM:   9    -0.867667824770E+03    0.24357E-02   -0.23644E-03 33810   0.131E-01    0.142E-01
RMM:  10    -0.867667821536E+03    0.32342E-05   -0.10938E-03 46922   0.412E-02    0.128E-01
RMM:  11    -0.867667822682E+03   -0.11460E-05   -0.30996E-04 38048   0.317E-02    0.131E-01
RMM:  12    -0.867667754103E+03    0.68579E-04   -0.11705E-04 36461   0.226E-02    0.421E-02
RMM:  13    -0.867667774904E+03   -0.20801E-04   -0.11187E-04 42023   0.165E-02    0.752E-02
RMM:  14    -0.867667751074E+03    0.23830E-04   -0.30334E-05 35004   0.129E-02    0.247E-02
RMM:  15    -0.867667752371E+03   -0.12969E-05   -0.20482E-05 39707   0.597E-03    0.246E-02
RMM:  16    -0.867667751733E+03    0.63849E-06   -0.49416E-06 25769   0.432E-03
   5 F= -.86766775E+03 E0= -.86765148E+03  d E =-.488182E-01
       N       E                     dE             d eps       ncg     rms          rms(c)
DAV:   1    -0.867669872321E+03   -0.21199E-02   -0.69552E+00 33936   0.324E+00    0.505E-01
RMM:   2    -0.867787489527E+03   -0.11762E+00   -0.22180E-01 34445   0.109E+00    0.530E+00
RMM:   3    -0.867684189568E+03    0.10330E+00   -0.53492E-02 33792   0.645E-01    0.144E+00
RMM:   4    -0.867674972387E+03    0.92172E-02   -0.12173E-02 35951   0.213E-01    0.445E-01
RMM:   5    -0.867675449131E+03   -0.47674E-03   -0.97571E-03 44727   0.143E-01    0.562E-01
RMM:   6    -0.867674407861E+03    0.10413E-02   -0.35813E-03 37714   0.106E-01    0.455E-01
RMM:   7    -0.867673618925E+03    0.78894E-03   -0.25008E-03 34633   0.113E-01    0.277E-01
RMM:   8    -0.867674374561E+03   -0.75564E-03   -0.31290E-03 36795   0.107E-01    0.461E-01
RMM:   9    -0.867673305269E+03    0.10693E-02   -0.98904E-04 33811   0.843E-02    0.893E-02
RMM:  10    -0.867673301907E+03    0.33617E-05   -0.46445E-04 46523   0.266E-02    0.708E-02
RMM:  11    -0.867673312771E+03   -0.10864E-04   -0.13320E-04 38912   0.195E-02    0.859E-02
RMM:  12    -0.867673281253E+03    0.31518E-04   -0.46016E-05 36029   0.146E-02    0.250E-02
RMM:  13    -0.867673287019E+03   -0.57657E-05   -0.41810E-05 43602   0.917E-03    0.402E-02
RMM:  14    -0.867673281050E+03    0.59688E-05   -0.10103E-05 32889   0.692E-03    0.182E-02
RMM:  15    -0.867673280495E+03    0.55500E-06   -0.41314E-06 26079   0.340E-03
   6 F= -.86767328E+03 E0= -.86765701E+03  d E =-.488192E-01
       N       E                     dE             d eps       ncg     rms          rms(c)
DAV:   1    -0.867663630773E+03    0.96503E-02   -0.14002E+01 33792   0.460E+00    0.726E-01
RMM:   2    -0.867947429500E+03   -0.28380E+00   -0.53250E-01 34221   0.167E+00    0.819E+00
RMM:   3    -0.867692105080E+03    0.25532E+00   -0.12000E-01 33792   0.961E-01    0.168E+00
RMM:   4    -0.867676421242E+03    0.15684E-01   -0.24205E-02 36462   0.291E-01    0.646E-01
RMM:   5    -0.867676719272E+03   -0.29803E-03   -0.15643E-02 45736   0.176E-01    0.674E-01
RMM:   6    -0.867674789557E+03    0.19297E-02   -0.51295E-03 38086   0.123E-01    0.497E-01
RMM:   7    -0.867674157373E+03    0.63218E-03   -0.39726E-03 35194   0.135E-01    0.421E-01
RMM:   8    -0.867675659095E+03   -0.15017E-02   -0.60290E-03 35388   0.156E-01    0.679E-01
RMM:   9    -0.867673326171E+03    0.23329E-02   -0.21506E-03 33795   0.128E-01    0.105E-01
RMM:  10    -0.867673358506E+03   -0.32335E-04   -0.86774E-04 46914   0.381E-02    0.134E-01
RMM:  11    -0.867673332675E+03    0.25831E-04   -0.22783E-04 37829   0.271E-02    0.106E-01
RMM:  12    -0.867673282354E+03    0.50321E-04   -0.98343E-05 36642   0.206E-02    0.289E-02
RMM:  13    -0.867673294378E+03   -0.12024E-04   -0.80233E-05 46746   0.113E-02    0.539E-02
RMM:  14    -0.867673282683E+03    0.11695E-04   -0.17999E-05 35696   0.872E-03    0.238E-02
RMM:  15    -0.867673282500E+03    0.18255E-06   -0.12513E-05 36129   0.513E-03    0.194E-02
RMM:  16    -0.867673283926E+03   -0.14261E-05   -0.78279E-06 32748   0.550E-03    0.242E-02
RMM:  17    -0.867673281355E+03    0.25708E-05   -0.28079E-06 21495   0.474E-03    0.689E-03
RMM:  18    -0.867673281675E+03   -0.31963E-06   -0.15439E-06 19364   0.274E-03
   7 F= -.86767328E+03 E0= -.86765701E+03  d E =-.488281E-01
