<?xml version="1.0" encoding="ISO-8859-1"?>
<modeling>
 <generator>
  <i name="program" type="string">vasp </i>
  <i name="version" type="string">5.4.1  </i>
  <i name="subversion" type="string">24Jun15 (build Jun 21 2019 17:19:10) complex                          parallel </i>
  <i name="platform" type="string">IFC91_ompi </i>
  <i name="date" type="string">2019 07 19 </i>
  <i name="time" type="string">16:12:34 </i>
 </generator>
 <incar>
  <i type="string" name="SYSTEM">Vib</i>
  <i type="int" name="ISTART">     0</i>
  <i type="string" name="PREC">accurate</i>
  <i type="string" name="ALGO"> Fast</i>
  <i type="int" name="ISPIN">     1</i>
  <i type="int" name="ICHARG">     2</i>
  <i type="int" name="NELM">   400</i>
  <i type="int" name="IBRION">     5</i>
  <i type="int" name="NFREE">     2</i>
  <i name="EDIFF">      0.00000100</i>
  <i name="EDIFFG">     -0.01000000</i>
  <i type="int" name="NSW">     1</i>
  <i type="int" name="ISIF">     2</i>
  <i type="int" name="ISYM">     0</i>
  <i name="ENCUT">    400.00000000</i>
  <i type="int" name="NGX">    72</i>
  <i type="int" name="NGY">    72</i>
  <i type="int" name="NGZ">    72</i>
  <i name="POTIM">      0.03000000</i>
  <i type="string" name="LREAL">Auto</i>
  <i type="logical" name="LWAVE"> F  </i>
  <i type="logical" name="LCHARG"> F  </i>
  <v type="int" name="KPOINT_BSE">    -1     0     0     0</v>
  <i type="int" name="NELM">   400</i>
 </incar>
 <kpoints>
  <generation param="Monkhorst-Pack">
   <v type="int" name="divisions">       4        4        4 </v>
   <v name="usershift">      0.00000000       0.00000000       0.00000000 </v>
   <v name="genvec1">      0.25000000       0.00000000       0.00000000 </v>
   <v name="genvec2">      0.00000000       0.25000000       0.00000000 </v>
   <v name="genvec3">      0.00000000       0.00000000       0.25000000 </v>
   <v name="shift">      0.50000000       0.50000000       0.50000000 </v>
  </generation>
  <varray name="kpointlist" >
   <v>       0.12500000       0.12500000       0.12500000 </v>
   <v>       0.37500000       0.12500000       0.12500000 </v>
   <v>      -0.37500000       0.12500000       0.12500000 </v>
   <v>      -0.12500000       0.12500000       0.12500000 </v>
   <v>       0.12500000       0.37500000       0.12500000 </v>
   <v>       0.37500000       0.37500000       0.12500000 </v>
   <v>      -0.37500000       0.37500000       0.12500000 </v>
   <v>      -0.12500000       0.37500000       0.12500000 </v>
   <v>       0.12500000      -0.37500000       0.12500000 </v>
   <v>       0.37500000      -0.37500000       0.12500000 </v>
   <v>      -0.37500000      -0.37500000       0.12500000 </v>
   <v>      -0.12500000      -0.37500000       0.12500000 </v>
   <v>       0.12500000      -0.12500000       0.12500000 </v>
   <v>       0.37500000      -0.12500000       0.12500000 </v>
   <v>      -0.37500000      -0.12500000       0.12500000 </v>
   <v>      -0.12500000      -0.12500000       0.12500000 </v>
   <v>       0.12500000       0.12500000       0.37500000 </v>
   <v>       0.37500000       0.12500000       0.37500000 </v>
   <v>      -0.37500000       0.12500000       0.37500000 </v>
   <v>      -0.12500000       0.12500000       0.37500000 </v>
   <v>       0.12500000       0.37500000       0.37500000 </v>
   <v>       0.37500000       0.37500000       0.37500000 </v>
   <v>      -0.37500000       0.37500000       0.37500000 </v>
   <v>      -0.12500000       0.37500000       0.37500000 </v>
   <v>       0.12500000      -0.37500000       0.37500000 </v>
   <v>       0.37500000      -0.37500000       0.37500000 </v>
   <v>      -0.37500000      -0.37500000       0.37500000 </v>
   <v>      -0.12500000      -0.37500000       0.37500000 </v>
   <v>       0.12500000      -0.12500000       0.37500000 </v>
   <v>       0.37500000      -0.12500000       0.37500000 </v>
   <v>      -0.37500000      -0.12500000       0.37500000 </v>
   <v>      -0.12500000      -0.12500000       0.37500000 </v>
  </varray>
  <varray name="weights" >
   <v>       0.03125000 </v>
   <v>       0.03125000 </v>
   <v>       0.03125000 </v>
   <v>       0.03125000 </v>
   <v>       0.03125000 </v>
   <v>       0.03125000 </v>
   <v>       0.03125000 </v>
   <v>       0.03125000 </v>
   <v>       0.03125000 </v>
   <v>       0.03125000 </v>
   <v>       0.03125000 </v>
   <v>       0.03125000 </v>
   <v>       0.03125000 </v>
   <v>       0.03125000 </v>
   <v>       0.03125000 </v>
   <v>       0.03125000 </v>
   <v>       0.03125000 </v>
   <v>       0.03125000 </v>
   <v>       0.03125000 </v>
   <v>       0.03125000 </v>
   <v>       0.03125000 </v>
   <v>       0.03125000 </v>
   <v>       0.03125000 </v>
   <v>       0.03125000 </v>
   <v>       0.03125000 </v>
   <v>       0.03125000 </v>
   <v>       0.03125000 </v>
   <v>       0.03125000 </v>
   <v>       0.03125000 </v>
   <v>       0.03125000 </v>
   <v>       0.03125000 </v>
   <v>       0.03125000 </v>
  </varray>
 </kpoints>
 <parameters>
  <separator name="general" >
   <i type="string" name="SYSTEM">Vib</i>
   <i type="logical" name="LCOMPAT"> F  </i>
  </separator>
  <separator name="electronic" >
   <i type="string" name="PREC">accura</i>
   <i name="ENMAX">    400.00000000</i>
   <i name="ENAUG">    511.36800000</i>
   <i name="EDIFF">      0.00000100</i>
   <i type="int" name="IALGO">    68</i>
   <i type="int" name="IWAVPR">    11</i>
   <i type="int" name="NBANDS">   528</i>
   <i name="NELECT">    856.00000000</i>
   <i type="int" name="TURBO">     0</i>
   <i type="int" name="IRESTART">     0</i>
   <i type="int" name="NREBOOT">     0</i>
   <i type="int" name="NMIN">     0</i>
   <i name="EREF">      0.00000000</i>
   <separator name="electronic smearing" >
    <i type="int" name="ISMEAR">     1</i>
    <i name="SIGMA">      0.20000000</i>
    <i name="KSPACING">      0.50000000</i>
    <i type="logical" name="KGAMMA"> T  </i>
   </separator>
   <separator name="electronic projectors" >
    <i type="logical" name="LREAL"> T  </i>
    <v name="ROPT">     -0.00025000</v>
    <i type="int" name="LMAXPAW">  -100</i>
    <i type="int" name="LMAXMIX">     2</i>
    <i type="logical" name="NLSPLINE"> F  </i>
   </separator>
   <separator name="electronic startup" >
    <i type="int" name="ISTART">     0</i>
    <i type="int" name="ICHARG">     2</i>
    <i type="int" name="INIWAV">     1</i>
   </separator>
   <separator name="electronic spin" >
    <i type="int" name="ISPIN">     1</i>
    <i type="logical" name="LNONCOLLINEAR"> F  </i>
    <v name="MAGMOM">      1.00000000      1.00000000      1.00000000      1.00000000      1.00000000      1.00000000      1.00000000      1.00000000      1.00000000      1.00000000      1.00000000      1.00000000      1.00000000      1.00000000      1.00000000      1.00000000      1.00000000      1.00000000      1.00000000      1.00000000
      1.00000000      1.00000000      1.00000000      1.00000000      1.00000000      1.00000000      1.00000000      1.00000000      1.00000000      1.00000000      1.00000000      1.00000000      1.00000000      1.00000000      1.00000000      1.00000000      1.00000000      1.00000000      1.00000000      1.00000000
      1.00000000      1.00000000      1.00000000      1.00000000      1.00000000      1.00000000      1.00000000      1.00000000      1.00000000      1.00000000      1.00000000      1.00000000      1.00000000      1.00000000      1.00000000      1.00000000      1.00000000      1.00000000      1.00000000      1.00000000
      1.00000000      1.00000000      1.00000000      1.00000000      1.00000000      1.00000000      1.00000000      1.00000000      1.00000000      1.00000000      1.00000000      1.00000000      1.00000000      1.00000000      1.00000000      1.00000000      1.00000000      1.00000000      1.00000000      1.00000000
      1.00000000      1.00000000      1.00000000      1.00000000      1.00000000      1.00000000      1.00000000      1.00000000      1.00000000      1.00000000      1.00000000      1.00000000      1.00000000      1.00000000      1.00000000      1.00000000      1.00000000      1.00000000      1.00000000      1.00000000
      1.00000000      1.00000000      1.00000000      1.00000000      1.00000000      1.00000000      1.00000000</v>
    <i name="NUPDOWN">     -1.00000000</i>
    <i type="logical" name="LSORBIT"> F  </i>
    <v name="SAXIS">      0.00000000      0.00000000      1.00000000</v>
    <i type="logical" name="LSPIRAL"> F  </i>
    <v name="QSPIRAL">      0.00000000      0.00000000      0.00000000</v>
    <i type="logical" name="LZEROZ"> F  </i>
   </separator>
   <separator name="electronic exchange-correlation" >
    <i type="logical" name="LASPH"> F  </i>
    <i type="logical" name="LMETAGGA"> F  </i>
   </separator>
   <separator name="electronic convergence" >
    <i type="int" name="NELM">   400</i>
    <i type="int" name="NELMDL">    -5</i>
    <i type="int" name="NELMIN">     2</i>
    <i name="ENINI">    400.00000000</i>
    <separator name="electronic convergence detail" >
     <i type="logical" name="LDIAG"> T  </i>
     <i type="logical" name="LSUBROT"> F  </i>
     <i name="WEIMIN">      0.00100000</i>
     <i name="EBREAK">      0.00000000</i>
     <i name="DEPER">      0.30000000</i>
     <i type="int" name="NRMM">     4</i>
     <i name="TIME">      0.40000000</i>
    </separator>
   </separator>
   <separator name="electronic mixer" >
    <i name="AMIX">      0.40000000</i>
    <i name="BMIX">      1.00000000</i>
    <i name="AMIN">      0.10000000</i>
    <i name="AMIX_MAG">      1.60000000</i>
    <i name="BMIX_MAG">      1.00000000</i>
    <separator name="electronic mixer details" >
     <i type="int" name="IMIX">     4</i>
     <i type="logical" name="MIXFIRST"> F  </i>
     <i type="int" name="MAXMIX">   -45</i>
     <i name="WC">    100.00000000</i>
     <i type="int" name="INIMIX">     1</i>
     <i type="int" name="MIXPRE">     1</i>
     <i type="int" name="MREMOVE">     5</i>
    </separator>
   </separator>
   <separator name="electronic dipolcorrection" >
    <i type="logical" name="LDIPOL"> F  </i>
    <i type="logical" name="LMONO"> F  </i>
    <i type="int" name="IDIPOL">     0</i>
    <i name="EPSILON">      1.00000000</i>
    <v name="DIPOL">   -100.00000000   -100.00000000   -100.00000000</v>
    <i name="EFIELD">      0.00000000</i>
   </separator>
  </separator>
  <separator name="grids" >
   <i type="int" name="NGX">    72</i>
   <i type="int" name="NGY">    72</i>
   <i type="int" name="NGZ">    72</i>
   <i type="int" name="NGXF">   144</i>
   <i type="int" name="NGYF">   144</i>
   <i type="int" name="NGZF">   144</i>
   <i type="logical" name="ADDGRID"> F  </i>
  </separator>
  <separator name="ionic" >
   <i type="int" name="NSW">  1321</i>
   <i type="int" name="IBRION">     5</i>
   <i type="int" name="ISIF">     2</i>
   <i name="PSTRESS">      0.00000000</i>
   <i name="EDIFFG">     -0.01000000</i>
   <i type="int" name="NFREE">     2</i>
   <i name="POTIM">      0.03000000</i>
   <i name="SMASS">     -3.00000000</i>
   <i name="SCALEE">      1.00000000</i>
  </separator>
  <separator name="ionic md" >
   <i name="TEBEG">      0.00010000</i>
   <i name="TEEND">      0.00010000</i>
   <i type="int" name="NBLOCK">     1</i>
   <i type="int" name="KBLOCK">     1</i>
   <i type="int" name="NPACO">   256</i>
   <i name="APACO">     16.00000000</i>
  </separator>
  <separator name="symmetry" >
   <i type="int" name="ISYM">     0</i>
   <i name="SYMPREC">      0.00001000</i>
  </separator>
  <separator name="dos" >
   <i type="logical" name="LORBIT"> F  </i>
   <v name="RWIGS">     -1.00000000</v>
   <i type="int" name="NEDOS">   301</i>
   <i name="EMIN">     10.00000000</i>
   <i name="EMAX">    -10.00000000</i>
   <i name="EFERMI">      0.00000000</i>
  </separator>
  <separator name="writing" >
   <i type="int" name="NWRITE">     2</i>
   <i type="logical" name="LWAVE"> F  </i>
   <i type="logical" name="LCHARG"> F  </i>
   <i type="logical" name="LPARD"> F  </i>
   <i type="logical" name="LVTOT"> F  </i>
   <i type="logical" name="LVHAR"> F  </i>
   <i type="logical" name="LELF"> F  </i>
   <i type="logical" name="LOPTICS"> F  </i>
   <v name="STM">      0.00000000      0.00000000      0.00000000      0.00000000      0.00000000      0.00000000      0.00000000</v>
  </separator>
  <separator name="performance" >
   <i type="int" name="NPAR">    24</i>
   <i type="int" name="NSIM">     4</i>
   <i type="int" name="NBLK">    -1</i>
   <i type="logical" name="LPLANE"> T  </i>
   <i type="logical" name="LSCALAPACK"> T  </i>
   <i type="logical" name="LSCAAWARE"> F  </i>
   <i type="logical" name="LSCALU"> F  </i>
   <i type="logical" name="LASYNC"> F  </i>
   <i type="logical" name="LORBITALREAL"> F  </i>
  </separator>
  <separator name="miscellaneous" >
   <i type="int" name="IDIOT">     3</i>
   <i type="logical" name="LMUSIC"> F  </i>
   <v name="POMASS">     55.84700000</v>
   <v name="DARWINR">      0.00000000</v>
   <v name="DARWINV">      1.00000000</v>
   <i type="logical" name="LCORR"> T  </i>
  </separator>
  <i type="logical" name="GGA_COMPAT"> T  </i>
  <i type="logical" name="LBERRY"> F  </i>
  <i type="int" name="ICORELEVEL">     0</i>
  <i type="logical" name="LDAU"> F  </i>
  <i type="int" name="I_CONSTRAINED_M">     0</i>
  <separator name="electronic exchange-correlation" >
   <i type="string" name="GGA">--</i>
   <i type="int" name="VOSKOWN">     0</i>
   <i type="logical" name="LHFCALC"> F  </i>
   <i type="string" name="PRECFOCK"></i>
   <i type="logical" name="LSYMGRAD"> F  </i>
   <i type="logical" name="LHFONE"> F  </i>
   <i type="logical" name="LRHFCALC"> F  </i>
   <i type="logical" name="LTHOMAS"> F  </i>
   <i type="logical" name="LMODELHF"> F  </i>
   <i name="ENCUT4O">     -1.00000000</i>
   <i type="int" name="EXXOEP">     0</i>
   <i type="int" name="FOURORBIT">     0</i>
   <i name="AEXX">      0.00000000</i>
   <i name="HFALPHA">      0.00000000</i>
   <i name="MCALPHA">      0.00000000</i>
   <i name="ALDAX">      1.00000000</i>
   <i name="AGGAX">      1.00000000</i>
   <i name="ALDAC">      1.00000000</i>
   <i name="AGGAC">      1.00000000</i>
   <i type="int" name="NKREDX">     1</i>
   <i type="int" name="NKREDY">     1</i>
   <i type="int" name="NKREDZ">     1</i>
   <i type="logical" name="SHIFTRED"> F  </i>
   <i type="logical" name="ODDONLY"> F  </i>
   <i type="logical" name="EVENONLY"> F  </i>
   <i type="int" name="LMAXFOCK">     0</i>
   <i type="int" name="NMAXFOCKAE">     0</i>
   <i type="logical" name="LFOCKAEDFT"> F  </i>
   <i name="HFSCREEN">      0.00000000</i>
   <i name="HFSCREENC">      0.00000000</i>
   <i type="int" name="NBANDSGWLOW">     0</i>
  </separator>
  <separator name="vdW DFT" >
   <i type="logical" name="LUSE_VDW"> F  </i>
   <i name="Zab_VDW">     -0.84910000</i>
   <i name="PARAM1">      0.12340000</i>
   <i name="PARAM2">      1.00000000</i>
   <i name="PARAM3">      0.00000000</i>
  </separator>
  <separator name="model GW" >
   <i type="int" name="MODEL_GW">     0</i>
   <i name="MODEL_EPS0">      6.18984300</i>
   <i name="MODEL_ALPHA">      1.00000000</i>
  </separator>
  <separator name="linear response parameters" >
   <i type="logical" name="LEPSILON"> F  </i>
   <i type="logical" name="LRPA"> F  </i>
   <i type="logical" name="LNABLA"> F  </i>
   <i type="logical" name="LVEL"> F  </i>
   <i type="int" name="KINTER">     0</i>
   <i name="CSHIFT">      0.10000000</i>
   <i name="OMEGAMAX">     -1.00000000</i>
   <i name="DEG_THRESHOLD">      0.00200000</i>
  </separator>
  <separator name="orbital magnetization" >
   <i type="logical" name="NUCIND"> F  </i>
   <v name="MAGPOS">      0.00000000      0.00000000      0.00000000</v>
   <i type="logical" name="LNICSALL"> T  </i>
   <i type="logical" name="ORBITALMAG"> F  </i>
   <i type="logical" name="LMAGBLOCH"> F  </i>
   <i type="logical" name="LCHIMAG"> F  </i>
   <i type="logical" name="LGAUGE"> T  </i>
   <i type="int" name="MAGATOM">     0</i>
   <v name="MAGDIPOL">      0.00000000      0.00000000      0.00000000</v>
   <v name="AVECCONST">      0.00000000      0.00000000      0.00000000</v>
  </separator>
  <separator name="response functions" >
   <i type="logical" name="LADDER"> F  </i>
   <i type="logical" name="LFXC"> F  </i>
   <i type="logical" name="LHARTREE"> T  </i>
   <i type="int" name="IBSE">     0</i>
   <v type="int" name="KPOINT">    -1     0     0     0</v>
   <i type="logical" name="LTCTE"> F  </i>
   <i type="logical" name="LTETE"> F  </i>
   <i type="logical" name="LTRIPLET"> F  </i>
   <i type="logical" name="LFXCEPS"> F  </i>
   <i type="logical" name="LFXHEG"> F  </i>
   <i type="int" name="NATURALO">     0</i>
   <i type="logical" name="L2ORDER"> F  </i>
   <i type="logical" name="LUSEW"> F  </i>
   <i name="ENCUTGW">     -2.00000000</i>
   <i name="ENCUTGWSOFT">     -2.00000000</i>
   <i name="ENCUTLF">     -1.00000000</i>
   <i type="int" name="LMAXMP2">    -1</i>
   <i name="SCISSOR">      0.00000000</i>
   <i type="int" name="NOMEGA">     0</i>
   <i type="int" name="NOMEGAR">     0</i>
   <i type="int" name="NBANDSGW">    -1</i>
   <i type="int" name="NBANDSO">    -1</i>
   <i type="int" name="NBANDSV">    -1</i>
   <i type="int" name="NELM">   400</i>
   <i type="int" name="NELMHF">     1</i>
   <i type="int" name="DIM">     3</i>
   <i type="int" name="ANTIRES">     0</i>
   <i name="OMEGAMAX">    -30.00000000</i>
   <i name="OMEGAMIN">    -30.00000000</i>
   <i name="OMEGATL">   -200.00000000</i>
   <i type="int" name="OMEGAGRID">     0</i>
   <i name="CSHIFT">     -0.10000000</i>
   <i type="logical" name="SELFENERGY"> F  </i>
   <i type="logical" name="LSPECTRAL"> F  </i>
   <i type="logical" name="LSPECTRALGW"> F  </i>
   <i type="logical" name="LSINGLES"> F  </i>
   <i type="logical" name="LFERMIGW"> F  </i>
   <i type="logical" name="ODDONLYGW"> F  </i>
   <i type="logical" name="EVENONLYGW"> F  </i>
   <i type="int" name="NKREDLFX">     1</i>
   <i type="int" name="NKREDLFY">     1</i>
   <i type="int" name="NKREDLFZ">     1</i>
   <i type="int" name="MAXMEM">  1800</i>
   <i type="int" name="TELESCOPE">     0</i>
   <i type="int" name="TAUPAR">     1</i>
   <i type="int" name="OMEGAPAR">    -1</i>
   <i name="LAMBDA">      1.00000000</i>
  </separator>
  <separator name="External order field" >
   <i name="OFIELD_KAPPA">      0.00000000</i>
   <v name="OFIELD_K">      0.00000000      0.00000000      0.00000000</v>
   <i name="OFIELD_Q6_NEAR">      0.00000000</i>
   <i name="OFIELD_Q6_FAR">      0.00000000</i>
   <i name="OFIELD_A">      0.00000000</i>
  </separator>
 </parameters>
 <atominfo>
  <atoms>     107 </atoms>
  <types>       1 </types>
  <array name="atoms" >
   <dimension dim="1">ion</dimension>
   <field type="string">element</field>
   <field type="int">atomtype</field>
   <set>
    <rc><c>Fe</c><c>   1</c></rc>
    <rc><c>Fe</c><c>   1</c></rc>
    <rc><c>Fe</c><c>   1</c></rc>
    <rc><c>Fe</c><c>   1</c></rc>
    <rc><c>Fe</c><c>   1</c></rc>
    <rc><c>Fe</c><c>   1</c></rc>
    <rc><c>Fe</c><c>   1</c></rc>
    <rc><c>Fe</c><c>   1</c></rc>
    <rc><c>Fe</c><c>   1</c></rc>
    <rc><c>Fe</c><c>   1</c></rc>
    <rc><c>Fe</c><c>   1</c></rc>
    <rc><c>Fe</c><c>   1</c></rc>
    <rc><c>Fe</c><c>   1</c></rc>
    <rc><c>Fe</c><c>   1</c></rc>
    <rc><c>Fe</c><c>   1</c></rc>
    <rc><c>Fe</c><c>   1</c></rc>
    <rc><c>Fe</c><c>   1</c></rc>
    <rc><c>Fe</c><c>   1</c></rc>
    <rc><c>Fe</c><c>   1</c></rc>
    <rc><c>Fe</c><c>   1</c></rc>
    <rc><c>Fe</c><c>   1</c></rc>
    <rc><c>Fe</c><c>   1</c></rc>
    <rc><c>Fe</c><c>   1</c></rc>
    <rc><c>Fe</c><c>   1</c></rc>
    <rc><c>Fe</c><c>   1</c></rc>
    <rc><c>Fe</c><c>   1</c></rc>
    <rc><c>Fe</c><c>   1</c></rc>
    <rc><c>Fe</c><c>   1</c></rc>
    <rc><c>Fe</c><c>   1</c></rc>
    <rc><c>Fe</c><c>   1</c></rc>
    <rc><c>Fe</c><c>   1</c></rc>
    <rc><c>Fe</c><c>   1</c></rc>
    <rc><c>Fe</c><c>   1</c></rc>
    <rc><c>Fe</c><c>   1</c></rc>
    <rc><c>Fe</c><c>   1</c></rc>
    <rc><c>Fe</c><c>   1</c></rc>
    <rc><c>Fe</c><c>   1</c></rc>
    <rc><c>Fe</c><c>   1</c></rc>
    <rc><c>Fe</c><c>   1</c></rc>
    <rc><c>Fe</c><c>   1</c></rc>
    <rc><c>Fe</c><c>   1</c></rc>
    <rc><c>Fe</c><c>   1</c></rc>
    <rc><c>Fe</c><c>   1</c></rc>
    <rc><c>Fe</c><c>   1</c></rc>
    <rc><c>Fe</c><c>   1</c></rc>
    <rc><c>Fe</c><c>   1</c></rc>
    <rc><c>Fe</c><c>   1</c></rc>
    <rc><c>Fe</c><c>   1</c></rc>
    <rc><c>Fe</c><c>   1</c></rc>
    <rc><c>Fe</c><c>   1</c></rc>
    <rc><c>Fe</c><c>   1</c></rc>
    <rc><c>Fe</c><c>   1</c></rc>
    <rc><c>Fe</c><c>   1</c></rc>
    <rc><c>Fe</c><c>   1</c></rc>
    <rc><c>Fe</c><c>   1</c></rc>
    <rc><c>Fe</c><c>   1</c></rc>
    <rc><c>Fe</c><c>   1</c></rc>
    <rc><c>Fe</c><c>   1</c></rc>
    <rc><c>Fe</c><c>   1</c></rc>
    <rc><c>Fe</c><c>   1</c></rc>
    <rc><c>Fe</c><c>   1</c></rc>
    <rc><c>Fe</c><c>   1</c></rc>
    <rc><c>Fe</c><c>   1</c></rc>
    <rc><c>Fe</c><c>   1</c></rc>
    <rc><c>Fe</c><c>   1</c></rc>
    <rc><c>Fe</c><c>   1</c></rc>
    <rc><c>Fe</c><c>   1</c></rc>
    <rc><c>Fe</c><c>   1</c></rc>
    <rc><c>Fe</c><c>   1</c></rc>
    <rc><c>Fe</c><c>   1</c></rc>
    <rc><c>Fe</c><c>   1</c></rc>
    <rc><c>Fe</c><c>   1</c></rc>
    <rc><c>Fe</c><c>   1</c></rc>
    <rc><c>Fe</c><c>   1</c></rc>
    <rc><c>Fe</c><c>   1</c></rc>
    <rc><c>Fe</c><c>   1</c></rc>
    <rc><c>Fe</c><c>   1</c></rc>
    <rc><c>Fe</c><c>   1</c></rc>
    <rc><c>Fe</c><c>   1</c></rc>
    <rc><c>Fe</c><c>   1</c></rc>
    <rc><c>Fe</c><c>   1</c></rc>
    <rc><c>Fe</c><c>   1</c></rc>
    <rc><c>Fe</c><c>   1</c></rc>
    <rc><c>Fe</c><c>   1</c></rc>
    <rc><c>Fe</c><c>   1</c></rc>
    <rc><c>Fe</c><c>   1</c></rc>
    <rc><c>Fe</c><c>   1</c></rc>
    <rc><c>Fe</c><c>   1</c></rc>
    <rc><c>Fe</c><c>   1</c></rc>
    <rc><c>Fe</c><c>   1</c></rc>
    <rc><c>Fe</c><c>   1</c></rc>
    <rc><c>Fe</c><c>   1</c></rc>
    <rc><c>Fe</c><c>   1</c></rc>
    <rc><c>Fe</c><c>   1</c></rc>
    <rc><c>Fe</c><c>   1</c></rc>
    <rc><c>Fe</c><c>   1</c></rc>
    <rc><c>Fe</c><c>   1</c></rc>
    <rc><c>Fe</c><c>   1</c></rc>
    <rc><c>Fe</c><c>   1</c></rc>
    <rc><c>Fe</c><c>   1</c></rc>
    <rc><c>Fe</c><c>   1</c></rc>
    <rc><c>Fe</c><c>   1</c></rc>
    <rc><c>Fe</c><c>   1</c></rc>
    <rc><c>Fe</c><c>   1</c></rc>
    <rc><c>Fe</c><c>   1</c></rc>
    <rc><c>Fe</c><c>   1</c></rc>
    <rc><c>Fe</c><c>   1</c></rc>
   </set>
  </array>
  <array name="atomtypes" >
   <dimension dim="1">type</dimension>
   <field type="int">atomspertype</field>
   <field type="string">element</field>
   <field>mass</field>
   <field>valence</field>
   <field type="string">pseudopotential</field>
   <set>
    <rc><c> 107</c><c>Fe</c><c>     55.84700000</c><c>      8.00000000</c><c> PAW_PBE Fe 06Sep2000                   </c></rc>
   </set>
  </array>
 </atominfo>
 <structure name="initialpos" >
  <crystal>
   <varray name="basis" >
    <v>      10.33484705       0.00000000       0.00000000 </v>
    <v>       0.00000000      10.33484705       0.00000000 </v>
    <v>       0.00000000       0.00000000      10.33484705 </v>
   </varray>
   <i name="volume">   1103.85533447 </i>
   <varray name="rec_basis" >
    <v>       0.09676002       0.00000000       0.00000000 </v>
    <v>       0.00000000       0.09676002       0.00000000 </v>
    <v>       0.00000000       0.00000000       0.09676002 </v>
   </varray>
  </crystal>
  <varray name="positions" >
   <v>       0.99996032       0.00000006       0.00003988 </v>
   <v>       0.99951163       0.16637446       0.16617785 </v>
   <v>       0.99964970       0.33458973       0.00035038 </v>
   <v>       0.00263857       0.49999981       0.16930446 </v>
   <v>       0.99964954       0.66541014       0.00035022 </v>
   <v>       0.99951162       0.83362559       0.16617789 </v>
   <v>       0.00060545       0.00000007       0.33343285 </v>
   <v>       0.00218254       0.16991331       0.50006403 </v>
   <v>       0.99956083       0.33328464       0.33341760 </v>
   <v>       0.00153806       0.49999988       0.49998713 </v>
   <v>       0.99956084       0.66671528       0.33341754 </v>
   <v>       0.00218259       0.83008674       0.50006394 </v>
   <v>       0.99822701       0.00000015       0.66649844 </v>
   <v>       0.99948960       0.16696218       0.83347462 </v>
   <v>       0.00106435       0.33463678       0.66680270 </v>
   <v>       0.00318036       0.49999990       0.83125749 </v>
   <v>       0.00106453       0.66536311       0.66680257 </v>
   <v>       0.99948952       0.83303781       0.83347465 </v>
   <v>       0.16676677       0.00000009       0.16727178 </v>
   <v>       0.16652636       0.16696246       0.00051044 </v>
   <v>       0.16652632       0.83303757       0.00051026 </v>
   <v>       0.16881723       0.33502876       0.50010161 </v>
   <v>       0.16626907       0.49999998       0.33293467 </v>
   <v>       0.16881729       0.66497127       0.50010161 </v>
   <v>       0.16640249       0.00000019       0.83359816 </v>
   <v>       0.17142227       0.49999977       0.66390123 </v>
   <v>       0.16675180       0.33328448       0.16622690 </v>
   <v>       0.16675163       0.66671541       0.16622670 </v>
   <v>       0.16586542       0.16672246       0.33253130 </v>
   <v>       0.16586542       0.83327756       0.33253130 </v>
   <v>       0.16449066       0.16505218       0.66694991 </v>
   <v>       0.16646602       0.33231870       0.83353486 </v>
   <v>       0.16646609       0.66768113       0.83353485 </v>
   <v>       0.16449055       0.83494815       0.66695016 </v>
   <v>       0.16874338       0.49999991       0.99681949 </v>
   <v>       0.16486206       0.00000004       0.49994892 </v>
   <v>       0.33350238       0.00000016       0.00177246 </v>
   <v>       0.33339766       0.16991314       0.16884853 </v>
   <v>       0.33339760       0.83008695       0.16884815 </v>
   <v>       0.33343506       0.33502812       0.33548268 </v>
   <v>       0.33343492       0.66497237       0.33548189 </v>
   <v>       0.33305089       0.16505221       0.83550995 </v>
   <v>       0.33076651       0.31935130       0.66923453 </v>
   <v>       0.33076611       0.68064868       0.66923463 </v>
   <v>       0.33305088       0.83494781       0.83551001 </v>
   <v>       0.33319927       0.33463719       0.99893540 </v>
   <v>       0.33332051       0.49999983       0.16820449 </v>
   <v>       0.33319929       0.66536259       0.99893519 </v>
   <v>       0.33328163       0.00000000       0.33152506 </v>
   <v>       0.33196456       0.16593681       0.49863068 </v>
   <v>       0.33196445       0.83406313       0.49863077 </v>
   <v>       0.33322080       0.99999996       0.66678042 </v>
   <v>       0.33609984       0.49999976       0.82857801 </v>
   <v>       0.49983136       0.00000004       0.16489339 </v>
   <v>       0.49993626       0.16991334       0.99781745 </v>
   <v>       0.50013513       0.33463733       0.16773059 </v>
   <v>       0.50001342       0.49999990       0.99846128 </v>
   <v>       0.50013516       0.66536264       0.16773054 </v>
   <v>       0.49993629       0.83008662       0.99781732 </v>
   <v>       0.50011315       0.99999997       0.49988696 </v>
   <v>       0.50028277       0.16505245       0.33115677 </v>
   <v>       0.50256722       0.31935192       0.49743297 </v>
   <v>       0.49723348       0.49999997       0.33808872 </v>
   <v>       0.50256704       0.68064819       0.49743276 </v>
   <v>       0.50028268       0.83494755       0.33115675 </v>
   <v>       0.50005224       0.99999998       0.83514151 </v>
   <v>       0.50136948       0.16593701       0.66803661 </v>
   <v>       0.49989875       0.33502848       0.83118328 </v>
   <v>       0.49989863       0.66497143       0.83118309 </v>
   <v>       0.50136931       0.83406294       0.66803662 </v>
   <v>       0.66658166       0.33328458       0.00043883 </v>
   <v>       0.66459011       0.49999995       0.16984655 </v>
   <v>       0.66658176       0.66671533       0.00043874 </v>
   <v>       0.66693070       0.00000001       0.33306851 </v>
   <v>       0.66884242       0.16505229       0.49971734 </v>
   <v>       0.66884243       0.83494774       0.49971740 </v>
   <v>       0.66847268       0.00000062       0.66671910 </v>
   <v>       0.66706420       0.49999992       0.83373140 </v>
   <v>       0.66680724       0.16696252       0.16615587 </v>
   <v>       0.66680725       0.83303745       0.16615586 </v>
   <v>       0.66686729       0.33231915       0.33313212 </v>
   <v>       0.66686732       0.66768089       0.33313218 </v>
   <v>       0.66746779       0.16672271       0.83413523 </v>
   <v>       0.66451659       0.33502844       0.66656584 </v>
   <v>       0.66451649       0.66497154       0.66656560 </v>
   <v>       0.66746777       0.83327729       0.83413514 </v>
   <v>       0.66656673       0.00000003       0.99939442 </v>
   <v>       0.66191087       0.49999997       0.50276655 </v>
   <v>       0.83069440       0.49999981       0.99736132 </v>
   <v>       0.83510519       0.00000020       0.50016864 </v>
   <v>       0.83368329       0.33458985       0.16631574 </v>
   <v>       0.83368332       0.66541006       0.16631565 </v>
   <v>       0.83384337       0.16696244       0.33319211 </v>
   <v>       0.83384338       0.83303761       0.33319206 </v>
   <v>       0.83115032       0.16991322       0.66660340 </v>
   <v>       0.83377197       0.33328461       0.83324887 </v>
   <v>       0.83377197       0.66671535       0.83324886 </v>
   <v>       0.83115045       0.83008680       0.66660328 </v>
   <v>       0.83337276       0.00000006       0.16662633 </v>
   <v>       0.83382117       0.16637444       0.00048826 </v>
   <v>       0.83382107       0.83362563       0.00048836 </v>
   <v>       0.83226856       0.33463692       0.49986488 </v>
   <v>       0.83015257       0.49999990       0.33540936 </v>
   <v>       0.83226862       0.66536312       0.49986476 </v>
   <v>       0.83272728       0.00000004       0.83323389 </v>
   <v>       0.83179482       0.49999995       0.66668019 </v>
   <v>       0.41666601       0.50000008       0.58333378 </v>
  </varray>
  <varray name="selective"  type="logical" >
   <v type="logical" >  F  F  F </v>
   <v type="logical" >  F  F  F </v>
   <v type="logical" >  F  F  F </v>
   <v type="logical" >  F  F  F </v>
   <v type="logical" >  F  F  F </v>
   <v type="logical" >  F  F  F </v>
   <v type="logical" >  F  F  F </v>
   <v type="logical" >  F  F  F </v>
   <v type="logical" >  F  F  F </v>
   <v type="logical" >  F  F  F </v>
   <v type="logical" >  F  F  F </v>
   <v type="logical" >  F  F  F </v>
   <v type="logical" >  F  F  F </v>
   <v type="logical" >  F  F  F </v>
   <v type="logical" >  F  F  F </v>
   <v type="logical" >  F  F  F </v>
   <v type="logical" >  F  F  F </v>
   <v type="logical" >  F  F  F </v>
   <v type="logical" >  F  F  F </v>
   <v type="logical" >  F  F  F </v>
   <v type="logical" >  F  F  F </v>
   <v type="logical" >  F  F  F </v>
   <v type="logical" >  F  F  F </v>
   <v type="logical" >  F  F  F </v>
   <v type="logical" >  F  F  F </v>
   <v type="logical" >  F  F  F </v>
   <v type="logical" >  F  F  F </v>
   <v type="logical" >  F  F  F </v>
   <v type="logical" >  F  F  F </v>
   <v type="logical" >  F  F  F </v>
   <v type="logical" >  F  F  F </v>
   <v type="logical" >  F  F  F </v>
   <v type="logical" >  F  F  F </v>
   <v type="logical" >  F  F  F </v>
   <v type="logical" >  F  F  F </v>
   <v type="logical" >  F  F  F </v>
   <v type="logical" >  F  F  F </v>
   <v type="logical" >  F  F  F </v>
   <v type="logical" >  F  F  F </v>
   <v type="logical" >  F  F  F </v>
   <v type="logical" >  F  F  F </v>
   <v type="logical" >  F  F  F </v>
   <v type="logical" >  F  F  F </v>
   <v type="logical" >  F  F  F </v>
   <v type="logical" >  F  F  F </v>
   <v type="logical" >  F  F  F </v>
   <v type="logical" >  F  F  F </v>
   <v type="logical" >  F  F  F </v>
   <v type="logical" >  F  F  F </v>
   <v type="logical" >  F  F  F </v>
   <v type="logical" >  F  F  F </v>
   <v type="logical" >  F  F  F </v>
   <v type="logical" >  F  F  F </v>
   <v type="logical" >  F  F  F </v>
   <v type="logical" >  F  F  F </v>
   <v type="logical" >  F  F  F </v>
   <v type="logical" >  F  F  F </v>
   <v type="logical" >  F  F  F </v>
   <v type="logical" >  F  F  F </v>
   <v type="logical" >  F  F  F </v>
   <v type="logical" >  F  F  F </v>
   <v type="logical" >  F  F  F </v>
   <v type="logical" >  F  F  F </v>
   <v type="logical" >  F  F  F </v>
   <v type="logical" >  F  F  F </v>
   <v type="logical" >  F  F  F </v>
   <v type="logical" >  F  F  F </v>
   <v type="logical" >  F  F  F </v>
   <v type="logical" >  F  F  F </v>
   <v type="logical" >  F  F  F </v>
   <v type="logical" >  F  F  F </v>
   <v type="logical" >  F  F  F </v>
   <v type="logical" >  F  F  F </v>
   <v type="logical" >  F  F  F </v>
   <v type="logical" >  F  F  F </v>
   <v type="logical" >  F  F  F </v>
   <v type="logical" >  F  F  F </v>
   <v type="logical" >  F  F  F </v>
   <v type="logical" >  F  F  F </v>
   <v type="logical" >  F  F  F </v>
   <v type="logical" >  F  F  F </v>
   <v type="logical" >  F  F  F </v>
   <v type="logical" >  F  F  F </v>
   <v type="logical" >  F  F  F </v>
   <v type="logical" >  F  F  F </v>
   <v type="logical" >  F  F  F </v>
   <v type="logical" >  F  F  F </v>
   <v type="logical" >  F  F  F </v>
   <v type="logical" >  F  F  F </v>
   <v type="logical" >  F  F  F </v>
   <v type="logical" >  F  F  F </v>
   <v type="logical" >  F  F  F </v>
   <v type="logical" >  F  F  F </v>
   <v type="logical" >  F  F  F </v>
   <v type="logical" >  F  F  F </v>
   <v type="logical" >  F  F  F </v>
   <v type="logical" >  F  F  F </v>
   <v type="logical" >  F  F  F </v>
   <v type="logical" >  F  F  F </v>
   <v type="logical" >  F  F  F </v>
   <v type="logical" >  F  F  F </v>
   <v type="logical" >  F  F  F </v>
   <v type="logical" >  F  F  F </v>
   <v type="logical" >  F  F  F </v>
   <v type="logical" >  F  F  F </v>
   <v type="logical" >  F  F  F </v>
   <v type="logical" >  T  T  T </v>
  </varray>
  <nose>
   <v>      -3.00000000       0.00000000       0.00010000       0.00010000 </v>
  </nose>
 </structure>
 <calculation>
  <scstep>
   <time name="dav">  182.26  182.36</time>
   <time name="total">  182.39  182.49</time>
   <energy>
    <i name="alphaZ">   7165.75404585 </i>
    <i name="ewald"> -65190.96264172 </i>
    <i name="hartreedc"> -11363.48074343 </i>
    <i name="XCdc">    440.34888731 </i>
    <i name="pawpsdc">  51244.96395782 </i>
    <i name="pawaedc"> -52061.72305433 </i>
    <i name="eentropy">     -0.00217671 </i>
    <i name="bandstr">  13476.94389424 </i>
    <i name="atom">  63607.21096501 </i>
    <i name="e_fr_energy">   7319.05313404 </i>
    <i name="e_wo_entrp">   7319.05531076 </i>
    <i name="e_0_energy">   7319.05385961 </i>
   </energy>
  </scstep>
  <scstep>
   <time name="dav">  181.93  182.01</time>
   <time name="total">  181.94  182.03</time>
   <energy>
    <i name="e_fr_energy">    -99.87711393 </i>
    <i name="e_wo_entrp">    -99.87870016 </i>
    <i name="e_0_energy">    -99.87764267 </i>
   </energy>
  </scstep>
  <scstep>
   <time name="dav">  182.15  182.27</time>
   <time name="total">  182.15  182.28</time>
   <energy>
    <i name="e_fr_energy">   -869.34293298 </i>
    <i name="e_wo_entrp">   -869.35985754 </i>
    <i name="e_0_energy">   -869.34857450 </i>
   </energy>
  </scstep>
  <scstep>
   <time name="dav">  297.70  297.91</time>
   <time name="total">  297.70  297.92</time>
   <energy>
    <i name="e_fr_energy">  -1020.22090766 </i>
    <i name="e_wo_entrp">  -1020.23101202 </i>
    <i name="e_0_energy">  -1020.22427578 </i>
   </energy>
  </scstep>
  <scstep>
   <time name="dav">  265.87  265.94</time>
   <time name="total">  273.83  273.92</time>
   <energy>
    <i name="e_fr_energy">  -1031.40979837 </i>
    <i name="e_wo_entrp">  -1031.41990893 </i>
    <i name="e_0_energy">  -1031.41316856 </i>
   </energy>
  </scstep>
  <scstep>
   <time name="diag">   21.41   21.43</time>
   <time name="diis">   99.16   99.20</time>
   <time name="orth">    3.55    3.55</time>
   <time name="total">  132.20  132.27</time>
   <energy>
    <i name="e_fr_energy">   -923.03405089 </i>
    <i name="e_wo_entrp">   -923.02770082 </i>
    <i name="e_0_energy">   -923.03193420 </i>
   </energy>
  </scstep>
  <scstep>
   <time name="diag">   21.42   21.43</time>
   <time name="diis">  119.81  119.86</time>
   <time name="orth">    3.57    3.57</time>
   <time name="total">  152.87  152.94</time>
   <energy>
    <i name="e_fr_energy">  -1190.83633027 </i>
    <i name="e_wo_entrp">  -1190.83564954 </i>
    <i name="e_0_energy">  -1190.83610336 </i>
   </energy>
  </scstep>
  <scstep>
   <time name="diag">   21.43   21.44</time>
   <time name="diis">   99.31   99.33</time>
   <time name="orth">    3.56    3.56</time>
   <time name="total">  132.37  132.40</time>
   <energy>
    <i name="e_fr_energy">   -911.97578828 </i>
    <i name="e_wo_entrp">   -911.90753270 </i>
    <i name="e_0_energy">   -911.95303642 </i>
   </energy>
  </scstep>
  <scstep>
   <time name="diag">   21.41   21.42</time>
   <time name="diis">   99.16   99.21</time>
   <time name="orth">    3.55    3.55</time>
   <time name="total">  132.19  132.26</time>
   <energy>
    <i name="e_fr_energy">   -876.38327374 </i>
    <i name="e_wo_entrp">   -876.38129916 </i>
    <i name="e_0_energy">   -876.38261555 </i>
   </energy>
  </scstep>
  <scstep>
   <time name="diag">   21.41   21.41</time>
   <time name="diis">  111.09  111.12</time>
   <time name="orth">    3.55    3.55</time>
   <time name="total">  144.13  144.17</time>
   <energy>
    <i name="e_fr_energy">   -874.94729129 </i>
    <i name="e_wo_entrp">   -874.90099919 </i>
    <i name="e_0_energy">   -874.93186059 </i>
   </energy>
  </scstep>
  <scstep>
   <time name="diag">   21.43   21.44</time>
   <time name="diis">  120.87  120.92</time>
   <time name="orth">    3.55    3.55</time>
   <time name="total">  153.90  153.96</time>
   <energy>
    <i name="e_fr_energy">   -873.79662823 </i>
    <i name="e_wo_entrp">   -873.74827945 </i>
    <i name="e_0_energy">   -873.78051197 </i>
   </energy>
  </scstep>
  <scstep>
   <time name="diag">   21.43   21.43</time>
   <time name="diis">  104.39  104.45</time>
   <time name="orth">    3.57    3.57</time>
   <time name="total">  137.45  137.51</time>
   <energy>
    <i name="e_fr_energy">   -869.58079068 </i>
    <i name="e_wo_entrp">   -869.52563884 </i>
    <i name="e_0_energy">   -869.56240673 </i>
   </energy>
  </scstep>
  <scstep>
   <time name="diag">   21.43   21.44</time>
   <time name="diis">  148.30  148.39</time>
   <time name="orth">    3.54    3.54</time>
   <time name="total">  181.34  181.44</time>
   <energy>
    <i name="e_fr_energy">   -869.34194834 </i>
    <i name="e_wo_entrp">   -869.29195693 </i>
    <i name="e_0_energy">   -869.32528454 </i>
   </energy>
  </scstep>
  <scstep>
   <time name="diag">   21.42   21.44</time>
   <time name="diis">  105.41  105.45</time>
   <time name="orth">    3.55    3.55</time>
   <time name="total">  138.45  138.51</time>
   <energy>
    <i name="e_fr_energy">   -868.43315896 </i>
    <i name="e_wo_entrp">   -868.41895430 </i>
    <i name="e_0_energy">   -868.42842407 </i>
   </energy>
  </scstep>
  <scstep>
   <time name="diag">   21.43   21.44</time>
   <time name="diis">  134.75  134.81</time>
   <time name="orth">    3.55    3.55</time>
   <time name="total">  167.80  167.88</time>
   <energy>
    <i name="e_fr_energy">   -868.27521575 </i>
    <i name="e_wo_entrp">   -868.25756110 </i>
    <i name="e_0_energy">   -868.26933086 </i>
   </energy>
  </scstep>
  <scstep>
   <time name="diag">   21.45   21.46</time>
   <time name="diis">  104.02  104.04</time>
   <time name="orth">    3.55    3.55</time>
   <time name="total">  137.10  137.13</time>
   <energy>
    <i name="e_fr_energy">   -867.94929501 </i>
    <i name="e_wo_entrp">   -867.91779012 </i>
    <i name="e_0_energy">   -867.93879338 </i>
   </energy>
  </scstep>
  <scstep>
   <time name="diag">   21.42   21.43</time>
   <time name="diis">  102.42  102.47</time>
   <time name="orth">    3.55    3.55</time>
   <time name="total">  135.49  135.55</time>
   <energy>
    <i name="e_fr_energy">   -867.78542673 </i>
    <i name="e_wo_entrp">   -867.73267126 </i>
    <i name="e_0_energy">   -867.76784157 </i>
   </energy>
  </scstep>
  <scstep>
   <time name="diag">   21.42   21.43</time>
   <time name="diis">  107.43  107.51</time>
   <time name="orth">    3.54    3.54</time>
   <time name="total">  140.47  140.57</time>
   <energy>
    <i name="e_fr_energy">   -867.75786903 </i>
    <i name="e_wo_entrp">   -867.70608807 </i>
    <i name="e_0_energy">   -867.74060871 </i>
   </energy>
  </scstep>
  <scstep>
   <time name="diag">   21.40   21.43</time>
   <time name="diis">  101.85  101.88</time>
   <time name="orth">    3.54    3.54</time>
   <time name="total">  134.88  134.94</time>
   <energy>
    <i name="e_fr_energy">   -867.68135712 </i>
    <i name="e_wo_entrp">   -867.62918143 </i>
    <i name="e_0_energy">   -867.66396523 </i>
   </energy>
  </scstep>
  <scstep>
   <time name="diag">   21.43   21.45</time>
   <time name="diis">  115.37  115.40</time>
   <time name="orth">    3.54    3.54</time>
   <time name="total">  148.41  148.49</time>
   <energy>
    <i name="e_fr_energy">   -867.70854171 </i>
    <i name="e_wo_entrp">   -867.66559716 </i>
    <i name="e_0_energy">   -867.69422686 </i>
   </energy>
  </scstep>
  <scstep>
   <time name="diag">   21.41   21.42</time>
   <time name="diis">  103.55  103.59</time>
   <time name="orth">    3.54    3.54</time>
   <time name="total">  136.58  136.63</time>
   <energy>
    <i name="e_fr_energy">   -867.68133902 </i>
    <i name="e_wo_entrp">   -867.63452682 </i>
    <i name="e_0_energy">   -867.66573495 </i>
   </energy>
  </scstep>
  <scstep>
   <time name="diag">   21.40   21.41</time>
   <time name="diis">  126.95  127.00</time>
   <time name="orth">    3.54    3.55</time>
   <time name="total">  159.98  160.03</time>
   <energy>
    <i name="e_fr_energy">   -867.68288713 </i>
    <i name="e_wo_entrp">   -867.63793537 </i>
    <i name="e_0_energy">   -867.66790321 </i>
   </energy>
  </scstep>
  <scstep>
   <time name="diag">   21.40   21.40</time>
   <time name="diis">  107.03  107.06</time>
   <time name="orth">    3.54    3.54</time>
   <time name="total">  140.03  140.08</time>
   <energy>
    <i name="e_fr_energy">   -867.67811712 </i>
    <i name="e_wo_entrp">   -867.62924795 </i>
    <i name="e_0_energy">   -867.66182740 </i>
   </energy>
  </scstep>
  <scstep>
   <time name="diag">   21.40   21.43</time>
   <time name="diis">  106.61  106.64</time>
   <time name="orth">    3.55    3.55</time>
   <time name="total">  139.62  139.68</time>
   <energy>
    <i name="e_fr_energy">   -867.67769236 </i>
    <i name="e_wo_entrp">   -867.62533625 </i>
    <i name="e_0_energy">   -867.66024032 </i>
   </energy>
  </scstep>
  <scstep>
   <time name="diag">   21.46   21.46</time>
   <time name="diis">  136.32  136.39</time>
   <time name="orth">    3.54    3.54</time>
   <time name="total">  169.38  169.47</time>
   <energy>
    <i name="e_fr_energy">   -867.67499946 </i>
    <i name="e_wo_entrp">   -867.62460440 </i>
    <i name="e_0_energy">   -867.65820111 </i>
   </energy>
  </scstep>
  <scstep>
   <time name="diag">   21.44   21.45</time>
   <time name="diis">  103.52  103.56</time>
   <time name="orth">    3.54    3.55</time>
   <time name="total">  136.59  136.64</time>
   <energy>
    <i name="e_fr_energy">   -867.67304255 </i>
    <i name="e_wo_entrp">   -867.62319850 </i>
    <i name="e_0_energy">   -867.65642787 </i>
   </energy>
  </scstep>
  <scstep>
   <time name="diag">   21.44   21.44</time>
   <time name="diis">  124.55  124.58</time>
   <time name="orth">    3.54    3.54</time>
   <time name="total">  157.61  157.65</time>
   <energy>
    <i name="e_fr_energy">   -867.67277779 </i>
    <i name="e_wo_entrp">   -867.62374892 </i>
    <i name="e_0_energy">   -867.65643484 </i>
   </energy>
  </scstep>
  <scstep>
   <time name="diag">   21.44   21.45</time>
   <time name="diis">  114.72  114.75</time>
   <time name="orth">    3.55    3.55</time>
   <time name="total">  147.78  147.82</time>
   <energy>
    <i name="e_fr_energy">   -867.67283720 </i>
    <i name="e_wo_entrp">   -867.62388330 </i>
    <i name="e_0_energy">   -867.65651923 </i>
   </energy>
  </scstep>
  <scstep>
   <time name="diag">   21.47   21.48</time>
   <time name="diis">  107.85  107.87</time>
   <time name="orth">    3.56    3.56</time>
   <time name="total">  140.97  141.00</time>
   <energy>
    <i name="e_fr_energy">   -867.67272273 </i>
    <i name="e_wo_entrp">   -867.62378927 </i>
    <i name="e_0_energy">   -867.65641158 </i>
   </energy>
  </scstep>
  <scstep>
   <time name="diag">   21.45   21.45</time>
   <time name="diis">  129.62  129.69</time>
   <time name="orth">    3.59    3.59</time>
   <time name="total">  162.71  162.79</time>
   <energy>
    <i name="e_fr_energy">   -867.67273048 </i>
    <i name="e_wo_entrp">   -867.62375615 </i>
    <i name="e_0_energy">   -867.65640570 </i>
   </energy>
  </scstep>
  <scstep>
   <time name="diag">   21.43   21.43</time>
   <time name="diis">  108.23  108.25</time>
   <time name="orth">    3.54    3.55</time>
   <time name="total">  141.28  141.31</time>
   <energy>
    <i name="e_fr_energy">   -867.67267561 </i>
    <i name="e_wo_entrp">   -867.62375319 </i>
    <i name="e_0_energy">   -867.65636813 </i>
   </energy>
  </scstep>
  <scstep>
   <time name="diag">   21.42   21.43</time>
   <time name="diis">  134.45  134.52</time>
   <time name="orth">    3.55    3.55</time>
   <time name="total">  167.50  167.57</time>
   <energy>
    <i name="e_fr_energy">   -867.67266947 </i>
    <i name="e_wo_entrp">   -867.62375183 </i>
    <i name="e_0_energy">   -867.65636359 </i>
   </energy>
  </scstep>
  <scstep>
   <time name="diag">   21.43   21.43</time>
   <time name="diis">  112.24  112.31</time>
   <time name="orth">    3.54    3.54</time>
   <time name="total">  145.29  145.37</time>
   <energy>
    <i name="e_fr_energy">   -867.67265072 </i>
    <i name="e_wo_entrp">   -867.62358019 </i>
    <i name="e_0_energy">   -867.65629388 </i>
   </energy>
  </scstep>
  <scstep>
   <time name="diag">   21.44   21.45</time>
   <time name="diis">  104.87  104.91</time>
   <time name="orth">    3.54    3.54</time>
   <time name="total">  137.92  137.98</time>
   <energy>
    <i name="e_fr_energy">   -867.67264507 </i>
    <i name="e_wo_entrp">   -867.62355796 </i>
    <i name="e_0_energy">   -867.65628270 </i>
   </energy>
  </scstep>
  <scstep>
   <time name="diag">   21.46   21.47</time>
   <time name="diis">   80.60   80.65</time>
   <time name="orth">    3.53    3.53</time>
   <time name="total">  105.72  105.78</time>
   <energy>
    <i name="alphaZ">   7165.75404585 </i>
    <i name="ewald"> -65190.96264172 </i>
    <i name="hartreedc">  -9550.19974088 </i>
    <i name="XCdc">    355.71774278 </i>
    <i name="pawpsdc">  57429.34328542 </i>
    <i name="pawaedc"> -58355.59863512 </i>
    <i name="eentropy">     -0.04907369 </i>
    <i name="bandstr">   3671.11140634 </i>
    <i name="atom">  63607.21096501 </i>
    <i name="e_fr_energy">   -867.67264600 </i>
    <i name="e_wo_entrp">   -867.62357231 </i>
    <i name="e_0_energy">   -867.65628810 </i>
   </energy>
  </scstep>
  <structure>
   <crystal>
    <varray name="basis" >
     <v>      10.33484705       0.00000000       0.00000000 </v>
     <v>       0.00000000      10.33484705       0.00000000 </v>
     <v>       0.00000000       0.00000000      10.33484705 </v>
    </varray>
    <i name="volume">   1103.85533447 </i>
    <varray name="rec_basis" >
     <v>       0.09676002       0.00000000       0.00000000 </v>
     <v>       0.00000000       0.09676002       0.00000000 </v>
     <v>       0.00000000       0.00000000       0.09676002 </v>
    </varray>
   </crystal>
   <varray name="positions" >
    <v>       0.99996032       0.00000006       0.00003988 </v>
    <v>       0.99951163       0.16637446       0.16617785 </v>
    <v>       0.99964970       0.33458973       0.00035038 </v>
    <v>       0.00263857       0.49999981       0.16930446 </v>
    <v>       0.99964954       0.66541014       0.00035022 </v>
    <v>       0.99951162       0.83362559       0.16617789 </v>
    <v>       0.00060545       0.00000007       0.33343285 </v>
    <v>       0.00218254       0.16991331       0.50006403 </v>
    <v>       0.99956083       0.33328464       0.33341760 </v>
    <v>       0.00153806       0.49999988       0.49998713 </v>
    <v>       0.99956084       0.66671528       0.33341754 </v>
    <v>       0.00218259       0.83008674       0.50006394 </v>
    <v>       0.99822701       0.00000015       0.66649844 </v>
    <v>       0.99948960       0.16696218       0.83347462 </v>
    <v>       0.00106435       0.33463678       0.66680270 </v>
    <v>       0.00318036       0.49999990       0.83125749 </v>
    <v>       0.00106453       0.66536311       0.66680257 </v>
    <v>       0.99948952       0.83303781       0.83347465 </v>
    <v>       0.16676677       0.00000009       0.16727178 </v>
    <v>       0.16652636       0.16696246       0.00051044 </v>
    <v>       0.16652632       0.83303757       0.00051026 </v>
    <v>       0.16881723       0.33502876       0.50010161 </v>
    <v>       0.16626907       0.49999998       0.33293467 </v>
    <v>       0.16881729       0.66497127       0.50010161 </v>
    <v>       0.16640249       0.00000019       0.83359816 </v>
    <v>       0.17142227       0.49999977       0.66390123 </v>
    <v>       0.16675180       0.33328448       0.16622690 </v>
    <v>       0.16675163       0.66671541       0.16622670 </v>
    <v>       0.16586542       0.16672246       0.33253130 </v>
    <v>       0.16586542       0.83327756       0.33253130 </v>
    <v>       0.16449066       0.16505218       0.66694991 </v>
    <v>       0.16646602       0.33231870       0.83353486 </v>
    <v>       0.16646609       0.66768113       0.83353485 </v>
    <v>       0.16449055       0.83494815       0.66695016 </v>
    <v>       0.16874338       0.49999991       0.99681949 </v>
    <v>       0.16486206       0.00000004       0.49994892 </v>
    <v>       0.33350238       0.00000016       0.00177246 </v>
    <v>       0.33339766       0.16991314       0.16884853 </v>
    <v>       0.33339760       0.83008695       0.16884815 </v>
    <v>       0.33343506       0.33502812       0.33548268 </v>
    <v>       0.33343492       0.66497237       0.33548189 </v>
    <v>       0.33305089       0.16505221       0.83550995 </v>
    <v>       0.33076651       0.31935130       0.66923453 </v>
    <v>       0.33076611       0.68064868       0.66923463 </v>
    <v>       0.33305088       0.83494781       0.83551001 </v>
    <v>       0.33319927       0.33463719       0.99893540 </v>
    <v>       0.33332051       0.49999983       0.16820449 </v>
    <v>       0.33319929       0.66536259       0.99893519 </v>
    <v>       0.33328163       0.00000000       0.33152506 </v>
    <v>       0.33196456       0.16593681       0.49863068 </v>
    <v>       0.33196445       0.83406313       0.49863077 </v>
    <v>       0.33322080       0.99999996       0.66678042 </v>
    <v>       0.33609984       0.49999976       0.82857801 </v>
    <v>       0.49983136       0.00000004       0.16489339 </v>
    <v>       0.49993626       0.16991334       0.99781745 </v>
    <v>       0.50013513       0.33463733       0.16773059 </v>
    <v>       0.50001342       0.49999990       0.99846128 </v>
    <v>       0.50013516       0.66536264       0.16773054 </v>
    <v>       0.49993629       0.83008662       0.99781732 </v>
    <v>       0.50011315       0.99999997       0.49988696 </v>
    <v>       0.50028277       0.16505245       0.33115677 </v>
    <v>       0.50256722       0.31935192       0.49743297 </v>
    <v>       0.49723348       0.49999997       0.33808872 </v>
    <v>       0.50256704       0.68064819       0.49743276 </v>
    <v>       0.50028268       0.83494755       0.33115675 </v>
    <v>       0.50005224       0.99999998       0.83514151 </v>
    <v>       0.50136948       0.16593701       0.66803661 </v>
    <v>       0.49989875       0.33502848       0.83118328 </v>
    <v>       0.49989863       0.66497143       0.83118309 </v>
    <v>       0.50136931       0.83406294       0.66803662 </v>
    <v>       0.66658166       0.33328458       0.00043883 </v>
    <v>       0.66459011       0.49999995       0.16984655 </v>
    <v>       0.66658176       0.66671533       0.00043874 </v>
    <v>       0.66693070       0.00000001       0.33306851 </v>
    <v>       0.66884242       0.16505229       0.49971734 </v>
    <v>       0.66884243       0.83494774       0.49971740 </v>
    <v>       0.66847268       0.00000062       0.66671910 </v>
    <v>       0.66706420       0.49999992       0.83373140 </v>
    <v>       0.66680724       0.16696252       0.16615587 </v>
    <v>       0.66680725       0.83303745       0.16615586 </v>
    <v>       0.66686729       0.33231915       0.33313212 </v>
    <v>       0.66686732       0.66768089       0.33313218 </v>
    <v>       0.66746779       0.16672271       0.83413523 </v>
    <v>       0.66451659       0.33502844       0.66656584 </v>
    <v>       0.66451649       0.66497154       0.66656560 </v>
    <v>       0.66746777       0.83327729       0.83413514 </v>
    <v>       0.66656673       0.00000003       0.99939442 </v>
    <v>       0.66191087       0.49999997       0.50276655 </v>
    <v>       0.83069440       0.49999981       0.99736132 </v>
    <v>       0.83510519       0.00000020       0.50016864 </v>
    <v>       0.83368329       0.33458985       0.16631574 </v>
    <v>       0.83368332       0.66541006       0.16631565 </v>
    <v>       0.83384337       0.16696244       0.33319211 </v>
    <v>       0.83384338       0.83303761       0.33319206 </v>
    <v>       0.83115032       0.16991322       0.66660340 </v>
    <v>       0.83377197       0.33328461       0.83324887 </v>
    <v>       0.83377197       0.66671535       0.83324886 </v>
    <v>       0.83115045       0.83008680       0.66660328 </v>
    <v>       0.83337276       0.00000006       0.16662633 </v>
    <v>       0.83382117       0.16637444       0.00048826 </v>
    <v>       0.83382107       0.83362563       0.00048836 </v>
    <v>       0.83226856       0.33463692       0.49986488 </v>
    <v>       0.83015257       0.49999990       0.33540936 </v>
    <v>       0.83226862       0.66536312       0.49986476 </v>
    <v>       0.83272728       0.00000004       0.83323389 </v>
    <v>       0.83179482       0.49999995       0.66668019 </v>
    <v>       0.41666601       0.50000008       0.58333378 </v>
   </varray>
  </structure>
  <varray name="forces" >
   <v>      -0.00094249      -0.00032437       0.00072320 </v>
   <v>      -0.00113665       0.00009789      -0.00113803 </v>
   <v>       0.00024442      -0.00017781      -0.00029432 </v>
   <v>       0.00097153       0.00019013       0.00097012 </v>
   <v>       0.00010890       0.00052401      -0.00041662 </v>
   <v>      -0.00133022      -0.00026809      -0.00139844 </v>
   <v>      -0.00191811      -0.00008237      -0.00088399 </v>
   <v>      -0.00072565       0.00010763      -0.00107246 </v>
   <v>      -0.00210737       0.00016764      -0.00026910 </v>
   <v>       0.00370331       0.00003628      -0.00005885 </v>
   <v>      -0.00229476      -0.00008010      -0.00041723 </v>
   <v>      -0.00089922      -0.00009655      -0.00097517 </v>
   <v>      -0.00048195      -0.00018549      -0.00095743 </v>
   <v>      -0.00020828       0.00072390      -0.00099228 </v>
   <v>       0.00157229       0.00180467      -0.00171084 </v>
   <v>       0.00110798       0.00032487      -0.00029297 </v>
   <v>       0.00143736      -0.00163166      -0.00143548 </v>
   <v>      -0.00035854      -0.00101247      -0.00083011 </v>
   <v>      -0.00093254      -0.00007468      -0.00194641 </v>
   <v>       0.00102507       0.00079151       0.00014568 </v>
   <v>       0.00077724      -0.00095303      -0.00000347 </v>
   <v>      -0.00148399      -0.00072512      -0.00184185 </v>
   <v>      -0.00057502      -0.00000580      -0.00060757 </v>
   <v>      -0.00134394       0.00075263      -0.00169944 </v>
   <v>       0.00047346      -0.00021692      -0.00047273 </v>
   <v>       0.00357953       0.00018458      -0.00415597 </v>
   <v>      -0.00021596       0.00014895      -0.00211702 </v>
   <v>      -0.00041122      -0.00008034      -0.00228232 </v>
   <v>      -0.00340461      -0.00031611      -0.00344132 </v>
   <v>      -0.00344063       0.00034893      -0.00348268 </v>
   <v>      -0.00249191      -0.00046301      -0.00148553 </v>
   <v>       0.00123054      -0.00056070      -0.00116941 </v>
   <v>       0.00112941       0.00077777      -0.00115599 </v>
   <v>      -0.00241893       0.00028321      -0.00130207 </v>
   <v>       0.00030471       0.00018534      -0.00129620 </v>
   <v>      -0.00462606      -0.00001833       0.00047691 </v>
   <v>       0.00107963      -0.00009084       0.00028831 </v>
   <v>      -0.00103524       0.00018707      -0.00075008 </v>
   <v>      -0.00104499      -0.00015008      -0.00078589 </v>
   <v>      -0.00177442      -0.00072816      -0.00152158 </v>
   <v>      -0.00162275       0.00073764      -0.00132501 </v>
   <v>       0.00153940      -0.00051243       0.00255401 </v>
   <v>       0.00225928      -0.00300096      -0.00227997 </v>
   <v>       0.00257716       0.00316090      -0.00217023 </v>
   <v>       0.00160342       0.00024483       0.00239069 </v>
   <v>       0.00171059       0.00177901      -0.00156349 </v>
   <v>      -0.00001309       0.00000821       0.00371735 </v>
   <v>       0.00168382      -0.00168899      -0.00184403 </v>
   <v>       0.00063340      -0.00000429      -0.00435768 </v>
   <v>      -0.00166807      -0.00299701      -0.00171250 </v>
   <v>      -0.00140720       0.00283540      -0.00151652 </v>
   <v>      -0.00109160      -0.00017604       0.00129741 </v>
   <v>       0.00437629       0.00027469      -0.00350374 </v>
   <v>      -0.00089750      -0.00005144      -0.00037252 </v>
   <v>       0.00110751       0.00010234       0.00077768 </v>
   <v>      -0.00167061       0.00173408       0.00156500 </v>
   <v>       0.00021645       0.00016522      -0.00389709 </v>
   <v>      -0.00145324      -0.00169257       0.00161818 </v>
   <v>       0.00132979      -0.00021810       0.00048418 </v>
   <v>       0.00141693      -0.00023566      -0.00115768 </v>
   <v>      -0.00143286      -0.00047579      -0.00254002 </v>
   <v>      -0.00225094      -0.00298631       0.00219474 </v>
   <v>      -0.00411421       0.00017799       0.00361311 </v>
   <v>      -0.00200767       0.00319537       0.00251168 </v>
   <v>      -0.00123663       0.00029545      -0.00228515 </v>
   <v>      -0.00032789      -0.00027072       0.00430808 </v>
   <v>       0.00175137      -0.00319744       0.00169314 </v>
   <v>       0.00184532      -0.00057382       0.00161500 </v>
   <v>       0.00210873       0.00088803       0.00128778 </v>
   <v>       0.00198635       0.00270514       0.00174243 </v>
   <v>       0.00025749       0.00027415       0.00214928 </v>
   <v>      -0.00033680       0.00021503       0.00116090 </v>
   <v>       0.00043687       0.00002661       0.00188677 </v>
   <v>      -0.00052579      -0.00019117       0.00056262 </v>
   <v>       0.00248888      -0.00061765       0.00148922 </v>
   <v>       0.00238432       0.00021114       0.00167462 </v>
   <v>       0.00449767      -0.00044231      -0.00041796 </v>
   <v>       0.00057048       0.00046856       0.00055382 </v>
   <v>      -0.00102136       0.00077130      -0.00017363 </v>
   <v>      -0.00080680      -0.00096121      -0.00022441 </v>
   <v>      -0.00123686      -0.00058967       0.00115769 </v>
   <v>      -0.00121471       0.00080780       0.00129981 </v>
   <v>       0.00345856      -0.00057403       0.00345203 </v>
   <v>       0.00150200      -0.00056668       0.00183391 </v>
   <v>       0.00137227       0.00098951       0.00197419 </v>
   <v>       0.00351583       0.00010851       0.00328607 </v>
   <v>       0.00097119      -0.00029810       0.00174050 </v>
   <v>      -0.00359868       0.00038255       0.00429879 </v>
   <v>      -0.00113370       0.00036060      -0.00115245 </v>
   <v>       0.00022800      -0.00021254       0.00116499 </v>
   <v>      -0.00034847      -0.00021953       0.00026688 </v>
   <v>      -0.00036298       0.00050175       0.00011078 </v>
   <v>       0.00008587       0.00077121       0.00097889 </v>
   <v>      -0.00006954      -0.00093529       0.00093480 </v>
   <v>       0.00057308      -0.00016375       0.00110931 </v>
   <v>       0.00209585       0.00029241       0.00030613 </v>
   <v>       0.00193041       0.00009832       0.00032810 </v>
   <v>       0.00027794      -0.00012238       0.00130464 </v>
   <v>       0.00076104      -0.00026285      -0.00091654 </v>
   <v>       0.00106797       0.00000865       0.00111532 </v>
   <v>       0.00110398      -0.00034414       0.00095729 </v>
   <v>      -0.00158731       0.00181246       0.00170731 </v>
   <v>      -0.00133524       0.00019076       0.00032012 </v>
   <v>      -0.00196565      -0.00161710       0.00185969 </v>
   <v>       0.00174982      -0.00040267       0.00089860 </v>
   <v>      -0.00394449       0.00035581       0.00023429 </v>
   <v>       0.00006461       0.00025621      -0.00002054 </v>
  </varray>
  <varray name="stress" >
   <v>      -7.92101092       0.00276657      -0.46261945 </v>
   <v>       0.00276666       2.93402665       0.00139619 </v>
   <v>      -0.46261925       0.00139600      -7.91935927 </v>
  </varray>
  <energy>
   <i name="e_fr_energy">   -867.67264600 </i>
   <i name="e_wo_entrp">   -867.65628810 </i>
   <i name="e_0_energy">     -0.04907369 </i>
  </energy>
  <time name="totalsc"> 5690.25 5692.75</time>
 </calculation>
 <calculation>
  <scstep>
   <time name="dav">  191.10  191.17</time>
   <time name="total">  199.16  199.23</time>
   <energy>
    <i name="alphaZ">   7165.75404585 </i>
    <i name="ewald"> -65190.83461086 </i>
    <i name="hartreedc">  -9550.33029139 </i>
    <i name="XCdc">    355.71948607 </i>
    <i name="pawpsdc">  57429.35919026 </i>
    <i name="pawaedc"> -58355.62506236 </i>
    <i name="eentropy">     -0.04857713 </i>
    <i name="bandstr">   3671.12353497 </i>
    <i name="atom">  63607.21096501 </i>
    <i name="e_fr_energy">   -867.67131958 </i>
    <i name="e_wo_entrp">   -867.62274245 </i>
    <i name="e_0_energy">   -867.65512721 </i>
   </energy>
  </scstep>
  <scstep>
   <time name="diag">   21.43   21.44</time>
   <time name="diis">  100.76  100.80</time>
   <time name="orth">    3.54    3.54</time>
   <time name="total">  133.83  133.87</time>
   <energy>
    <i name="e_fr_energy">   -867.70958233 </i>
    <i name="e_wo_entrp">   -867.65682045 </i>
    <i name="e_0_energy">   -867.69199504 </i>
   </energy>
  </scstep>
  <scstep>
   <time name="diag">   21.46   21.46</time>
   <time name="diis">   99.18   99.23</time>
   <time name="orth">    3.55    3.55</time>
   <time name="total">  132.25  132.30</time>
   <energy>
    <i name="e_fr_energy">   -867.67668678 </i>
    <i name="e_wo_entrp">   -867.63006916 </i>
    <i name="e_0_energy">   -867.66114757 </i>
   </energy>
  </scstep>
  <scstep>
   <time name="diag">   21.43   21.44</time>
   <time name="diis">  111.65  111.68</time>
   <time name="orth">    3.54    3.54</time>
   <time name="total">  144.69  144.74</time>
   <energy>
    <i name="e_fr_energy">   -867.67395182 </i>
    <i name="e_wo_entrp">   -867.62449418 </i>
    <i name="e_0_energy">   -867.65746594 </i>
   </energy>
  </scstep>
  <scstep>
   <time name="diag">   21.41   21.42</time>
   <time name="diis">  131.43  131.49</time>
   <time name="orth">    3.54    3.54</time>
   <time name="total">  164.45  164.52</time>
   <energy>
    <i name="e_fr_energy">   -867.67405935 </i>
    <i name="e_wo_entrp">   -867.62555096 </i>
    <i name="e_0_energy">   -867.65788989 </i>
   </energy>
  </scstep>
  <scstep>
   <time name="diag">   21.44   21.45</time>
   <time name="diis">  111.39  111.43</time>
   <time name="orth">    3.54    3.54</time>
   <time name="total">  144.44  144.50</time>
   <energy>
    <i name="e_fr_energy">   -867.67370720 </i>
    <i name="e_wo_entrp">   -867.62488046 </i>
    <i name="e_0_energy">   -867.65743162 </i>
   </energy>
  </scstep>
  <scstep>
   <time name="diag">   21.43   21.44</time>
   <time name="diis">  100.85  100.87</time>
   <time name="orth">    3.54    3.54</time>
   <time name="total">  133.88  133.90</time>
   <energy>
    <i name="e_fr_energy">   -867.67340876 </i>
    <i name="e_wo_entrp">   -867.62481128 </i>
    <i name="e_0_energy">   -867.65720960 </i>
   </energy>
  </scstep>
  <scstep>
   <time name="diag">   21.46   21.47</time>
   <time name="diis">  105.27  105.31</time>
   <time name="orth">    3.54    3.54</time>
   <time name="total">  138.34  138.41</time>
   <energy>
    <i name="e_fr_energy">   -867.67370530 </i>
    <i name="e_wo_entrp">   -867.62480951 </i>
    <i name="e_0_energy">   -867.65740670 </i>
   </energy>
  </scstep>
  <scstep>
   <time name="diag">   21.45   21.46</time>
   <time name="diis">   99.25   99.26</time>
   <time name="orth">    3.54    3.54</time>
   <time name="total">  132.30  132.34</time>
   <energy>
    <i name="e_fr_energy">   -867.67328237 </i>
    <i name="e_wo_entrp">   -867.62449612 </i>
    <i name="e_0_energy">   -867.65702029 </i>
   </energy>
  </scstep>
  <scstep>
   <time name="diag">   21.40   21.43</time>
   <time name="diis">  141.69  141.73</time>
   <time name="orth">    3.55    3.55</time>
   <time name="total">  174.72  174.79</time>
   <energy>
    <i name="e_fr_energy">   -867.67328904 </i>
    <i name="e_wo_entrp">   -867.62442961 </i>
    <i name="e_0_energy">   -867.65700256 </i>
   </energy>
  </scstep>
  <scstep>
   <time name="diag">   21.41   21.43</time>
   <time name="diis">  114.11  114.18</time>
   <time name="orth">    3.54    3.54</time>
   <time name="total">  147.13  147.22</time>
   <energy>
    <i name="e_fr_energy">   -867.67328887 </i>
    <i name="e_wo_entrp">   -867.62450368 </i>
    <i name="e_0_energy">   -867.65702714 </i>
   </energy>
  </scstep>
  <scstep>
   <time name="diag">   21.42   21.42</time>
   <time name="diis">  104.57  104.61</time>
   <time name="orth">    3.54    3.54</time>
   <time name="total">  137.61  137.65</time>
   <energy>
    <i name="e_fr_energy">   -867.67328054 </i>
    <i name="e_wo_entrp">   -867.62446021 </i>
    <i name="e_0_energy">   -867.65700710 </i>
   </energy>
  </scstep>
  <scstep>
   <time name="diag">   21.43   21.45</time>
   <time name="diis">  108.05  108.10</time>
   <time name="orth">    3.55    3.56</time>
   <time name="total">  141.10  141.18</time>
   <energy>
    <i name="e_fr_energy">   -867.67328309 </i>
    <i name="e_wo_entrp">   -867.62444645 </i>
    <i name="e_0_energy">   -867.65700421 </i>
   </energy>
  </scstep>
  <scstep>
   <time name="diag">   21.41   21.42</time>
   <time name="diis">   69.74   69.78</time>
   <time name="orth">    3.54    3.54</time>
   <time name="total">  102.75  102.82</time>
   <energy>
    <i name="e_fr_energy">   -867.67328046 </i>
    <i name="e_wo_entrp">   -867.62446050 </i>
    <i name="e_0_energy">   -867.65700714 </i>
   </energy>
  </scstep>
  <scstep>
   <time name="diag">   21.43   21.43</time>
   <time name="diis">   60.92   60.96</time>
   <time name="orth">    3.54    3.54</time>
   <time name="total">   86.02   86.07</time>
   <energy>
    <i name="alphaZ">   7165.75404585 </i>
    <i name="ewald"> -65190.83461086 </i>
    <i name="hartreedc">  -9550.27970041 </i>
    <i name="XCdc">    355.71685009 </i>
    <i name="pawpsdc">  57429.50569815 </i>
    <i name="pawaedc"> -58355.80094549 </i>
    <i name="eentropy">     -0.04882875 </i>
    <i name="bandstr">   3671.10324605 </i>
    <i name="atom">  63607.21096501 </i>
    <i name="e_fr_energy">   -867.67328037 </i>
    <i name="e_wo_entrp">   -867.62445162 </i>
    <i name="e_0_energy">   -867.65700412 </i>
   </energy>
  </scstep>
  <structure>
   <crystal>
    <varray name="basis" >
     <v>      10.33484705       0.00000000       0.00000000 </v>
     <v>       0.00000000      10.33484705       0.00000000 </v>
     <v>       0.00000000       0.00000000      10.33484705 </v>
    </varray>
    <i name="volume">   1103.85533447 </i>
    <varray name="rec_basis" >
     <v>       0.09676002       0.00000000       0.00000000 </v>
     <v>       0.00000000       0.09676002       0.00000000 </v>
     <v>       0.00000000       0.00000000       0.09676002 </v>
    </varray>
   </crystal>
   <varray name="positions" >
    <v>       0.99996032       0.00000006       0.00003988 </v>
    <v>       0.99951163       0.16637446       0.16617785 </v>
    <v>       0.99964970       0.33458973       0.00035038 </v>
    <v>       0.00263857       0.49999981       0.16930446 </v>
    <v>       0.99964954       0.66541014       0.00035022 </v>
    <v>       0.99951162       0.83362559       0.16617789 </v>
    <v>       0.00060545       0.00000007       0.33343285 </v>
    <v>       0.00218254       0.16991331       0.50006403 </v>
    <v>       0.99956083       0.33328464       0.33341760 </v>
    <v>       0.00153806       0.49999988       0.49998713 </v>
    <v>       0.99956084       0.66671528       0.33341754 </v>
    <v>       0.00218259       0.83008674       0.50006394 </v>
    <v>       0.99822701       0.00000015       0.66649844 </v>
    <v>       0.99948960       0.16696218       0.83347462 </v>
    <v>       0.00106435       0.33463678       0.66680270 </v>
    <v>       0.00318036       0.49999990       0.83125749 </v>
    <v>       0.00106453       0.66536311       0.66680257 </v>
    <v>       0.99948952       0.83303781       0.83347465 </v>
    <v>       0.16676677       0.00000009       0.16727178 </v>
    <v>       0.16652636       0.16696246       0.00051044 </v>
    <v>       0.16652632       0.83303757       0.00051026 </v>
    <v>       0.16881723       0.33502876       0.50010161 </v>
    <v>       0.16626907       0.49999998       0.33293467 </v>
    <v>       0.16881729       0.66497127       0.50010161 </v>
    <v>       0.16640249       0.00000019       0.83359816 </v>
    <v>       0.17142227       0.49999977       0.66390123 </v>
    <v>       0.16675180       0.33328448       0.16622690 </v>
    <v>       0.16675163       0.66671541       0.16622670 </v>
    <v>       0.16586542       0.16672246       0.33253130 </v>
    <v>       0.16586542       0.83327756       0.33253130 </v>
    <v>       0.16449066       0.16505218       0.66694991 </v>
    <v>       0.16646602       0.33231870       0.83353486 </v>
    <v>       0.16646609       0.66768113       0.83353485 </v>
    <v>       0.16449055       0.83494815       0.66695016 </v>
    <v>       0.16874338       0.49999991       0.99681949 </v>
    <v>       0.16486206       0.00000004       0.49994892 </v>
    <v>       0.33350238       0.00000016       0.00177246 </v>
    <v>       0.33339766       0.16991314       0.16884853 </v>
    <v>       0.33339760       0.83008695       0.16884815 </v>
    <v>       0.33343506       0.33502812       0.33548268 </v>
    <v>       0.33343492       0.66497237       0.33548189 </v>
    <v>       0.33305089       0.16505221       0.83550995 </v>
    <v>       0.33076651       0.31935130       0.66923453 </v>
    <v>       0.33076611       0.68064868       0.66923463 </v>
    <v>       0.33305088       0.83494781       0.83551001 </v>
    <v>       0.33319927       0.33463719       0.99893540 </v>
    <v>       0.33332051       0.49999983       0.16820449 </v>
    <v>       0.33319929       0.66536259       0.99893519 </v>
    <v>       0.33328163       0.00000000       0.33152506 </v>
    <v>       0.33196456       0.16593681       0.49863068 </v>
    <v>       0.33196445       0.83406313       0.49863077 </v>
    <v>       0.33322080       0.99999996       0.66678042 </v>
    <v>       0.33609984       0.49999976       0.82857801 </v>
    <v>       0.49983136       0.00000004       0.16489339 </v>
    <v>       0.49993626       0.16991334       0.99781745 </v>
    <v>       0.50013513       0.33463733       0.16773059 </v>
    <v>       0.50001342       0.49999990       0.99846128 </v>
    <v>       0.50013516       0.66536264       0.16773054 </v>
    <v>       0.49993629       0.83008662       0.99781732 </v>
    <v>       0.50011315       0.99999997       0.49988696 </v>
    <v>       0.50028277       0.16505245       0.33115677 </v>
    <v>       0.50256722       0.31935192       0.49743297 </v>
    <v>       0.49723348       0.49999997       0.33808872 </v>
    <v>       0.50256704       0.68064819       0.49743276 </v>
    <v>       0.50028268       0.83494755       0.33115675 </v>
    <v>       0.50005224       0.99999998       0.83514151 </v>
    <v>       0.50136948       0.16593701       0.66803661 </v>
    <v>       0.49989875       0.33502848       0.83118328 </v>
    <v>       0.49989863       0.66497143       0.83118309 </v>
    <v>       0.50136931       0.83406294       0.66803662 </v>
    <v>       0.66658166       0.33328458       0.00043883 </v>
    <v>       0.66459011       0.49999995       0.16984655 </v>
    <v>       0.66658176       0.66671533       0.00043874 </v>
    <v>       0.66693070       0.00000001       0.33306851 </v>
    <v>       0.66884242       0.16505229       0.49971734 </v>
    <v>       0.66884243       0.83494774       0.49971740 </v>
    <v>       0.66847268       0.00000062       0.66671910 </v>
    <v>       0.66706420       0.49999992       0.83373140 </v>
    <v>       0.66680724       0.16696252       0.16615587 </v>
    <v>       0.66680725       0.83303745       0.16615586 </v>
    <v>       0.66686729       0.33231915       0.33313212 </v>
    <v>       0.66686732       0.66768089       0.33313218 </v>
    <v>       0.66746779       0.16672271       0.83413523 </v>
    <v>       0.66451659       0.33502844       0.66656584 </v>
    <v>       0.66451649       0.66497154       0.66656560 </v>
    <v>       0.66746777       0.83327729       0.83413514 </v>
    <v>       0.66656673       0.00000003       0.99939442 </v>
    <v>       0.66191087       0.49999997       0.50276655 </v>
    <v>       0.83069440       0.49999981       0.99736132 </v>
    <v>       0.83510519       0.00000020       0.50016864 </v>
    <v>       0.83368329       0.33458985       0.16631574 </v>
    <v>       0.83368332       0.66541006       0.16631565 </v>
    <v>       0.83384337       0.16696244       0.33319211 </v>
    <v>       0.83384338       0.83303761       0.33319206 </v>
    <v>       0.83115032       0.16991322       0.66660340 </v>
    <v>       0.83377197       0.33328461       0.83324887 </v>
    <v>       0.83377197       0.66671535       0.83324886 </v>
    <v>       0.83115045       0.83008680       0.66660328 </v>
    <v>       0.83337276       0.00000006       0.16662633 </v>
    <v>       0.83382117       0.16637444       0.00048826 </v>
    <v>       0.83382107       0.83362563       0.00048836 </v>
    <v>       0.83226856       0.33463692       0.49986488 </v>
    <v>       0.83015257       0.49999990       0.33540936 </v>
    <v>       0.83226862       0.66536312       0.49986476 </v>
    <v>       0.83272728       0.00000004       0.83323389 </v>
    <v>       0.83179482       0.49999995       0.66668019 </v>
    <v>       0.41956881       0.50000008       0.58333378 </v>
   </varray>
  </structure>
  <varray name="forces" >
   <v>      -0.00271921      -0.00000545       0.00044577 </v>
   <v>      -0.00018350       0.00039895      -0.00222122 </v>
   <v>      -0.00060368      -0.00036167      -0.00046366 </v>
   <v>      -0.00046178       0.00001607       0.00043352 </v>
   <v>      -0.00059675       0.00036788      -0.00046022 </v>
   <v>      -0.00018043      -0.00040573      -0.00222376 </v>
   <v>       0.00020107      -0.00000148      -0.00044735 </v>
   <v>       0.00000566      -0.00132648      -0.00000318 </v>
   <v>      -0.00242958       0.00022532      -0.00311777 </v>
   <v>       0.00540926       0.00001214       0.00110955 </v>
   <v>      -0.00242794      -0.00022020      -0.00311682 </v>
   <v>       0.00000341       0.00131880      -0.00000368 </v>
   <v>       0.00373420      -0.00001246       0.00010185 </v>
   <v>      -0.00272943      -0.00072488       0.00030119 </v>
   <v>      -0.00292518      -0.00204394      -0.00317647 </v>
   <v>       0.00695339       0.00000832      -0.00879002 </v>
   <v>      -0.00294229       0.00205505      -0.00317837 </v>
   <v>      -0.00273034       0.00072672       0.00029189 </v>
   <v>      -0.00161939      -0.00000771      -0.00336183 </v>
   <v>      -0.00019709       0.00027867      -0.00028407 </v>
   <v>      -0.00019489      -0.00027929      -0.00027474 </v>
   <v>      -0.01286150      -0.01026579      -0.00533940 </v>
   <v>       0.00211844       0.00000916       0.00758277 </v>
   <v>      -0.01286816       0.01026402      -0.00535103 </v>
   <v>       0.00205322      -0.00001183       0.00146183 </v>
   <v>       0.02562266       0.00001256      -0.00303285 </v>
   <v>      -0.00089293       0.00013676      -0.00229557 </v>
   <v>      -0.00088336      -0.00012698      -0.00228632 </v>
   <v>      -0.00422655      -0.00031095      -0.00112489 </v>
   <v>      -0.00422701       0.00030102      -0.00113128 </v>
   <v>      -0.00009742       0.00061998      -0.00303715 </v>
   <v>       0.00533514       0.00326636      -0.00395602 </v>
   <v>       0.00532238      -0.00326171      -0.00394436 </v>
   <v>      -0.00009698      -0.00063931      -0.00305191 </v>
   <v>       0.00161280       0.00000349       0.00483286 </v>
   <v>      -0.00388636      -0.00000093      -0.00172682 </v>
   <v>       0.00145752      -0.00001170       0.00418692 </v>
   <v>      -0.00047028       0.00150787       0.00038631 </v>
   <v>      -0.00046633      -0.00151433       0.00039282 </v>
   <v>      -0.00522396      -0.00495167      -0.00883794 </v>
   <v>      -0.00522204       0.00493170      -0.00881337 </v>
   <v>       0.00230891       0.00755127      -0.00738369 </v>
   <v>      -0.00786433       0.03677413      -0.01721757 </v>
   <v>      -0.00784127      -0.03677216      -0.01722375 </v>
   <v>       0.00231032      -0.00754873      -0.00737315 </v>
   <v>       0.00211255       0.00244738       0.00037596 </v>
   <v>       0.00081356       0.00001580       0.00492611 </v>
   <v>       0.00211598      -0.00243425       0.00038596 </v>
   <v>       0.00131912      -0.00000227      -0.00399403 </v>
   <v>      -0.00454725      -0.00199084      -0.00201009 </v>
   <v>      -0.00454931       0.00198967      -0.00201464 </v>
   <v>      -0.00110026       0.00000828      -0.00038989 </v>
   <v>      -0.00108804       0.00001269      -0.03044127 </v>
   <v>      -0.00047174      -0.00000561       0.00386953 </v>
   <v>       0.00142622      -0.00168953       0.00182432 </v>
   <v>      -0.00103877       0.00071080       0.00408550 </v>
   <v>       0.00119488       0.00000800      -0.00339379 </v>
   <v>      -0.00104085      -0.00070740       0.00407769 </v>
   <v>       0.00142469       0.00168674       0.00182570 </v>
   <v>       0.00138548       0.00000646      -0.00307931 </v>
[...]
       <r>     1.8940    75.6829    57.9627 </r>
       <r>     1.9396    86.7689    61.9142 </r>
       <r>     1.9851    95.6078    66.2682 </r>
       <r>     2.0306   101.5753    70.8941 </r>
       <r>     2.0762   104.4536    75.6509 </r>
       <r>     2.1217   104.6171    80.4153 </r>
       <r>     2.1673   103.1274    85.1118 </r>
       <r>     2.2128   101.4997    89.7341 </r>
       <r>     2.2583   101.1340    94.3399 </r>
       <r>     2.3039   102.6991    99.0168 </r>
       <r>     2.3494   105.8593   103.8377 </r>
       <r>     2.3950   109.5802   108.8281 </r>
       <r>     2.4405   112.8901   113.9692 </r>
       <r>     2.4861   115.6053   119.2339 </r>
       <r>     2.5316   118.4528   124.6284 </r>
       <r>     2.5771   122.4345   130.2041 </r>
       <r>     2.6227   127.9269   136.0300 </r>
       <r>     2.6682   134.2982   142.1460 </r>
       <r>     2.7138   140.3882   148.5394 </r>
       <r>     2.7593   145.4051   155.1612 </r>
       <r>     2.8048   149.4273   161.9663 </r>
       <r>     2.8504   153.1054   168.9388 </r>
       <r>     2.8959   156.9194   176.0850 </r>
       <r>     2.9415   160.6945   183.4032 </r>
       <r>     2.9870   163.7437   190.8602 </r>
       <r>     3.0325   165.4012   198.3926 </r>
       <r>     3.0781   165.4386   205.9268 </r>
       <r>     3.1236   164.0821   213.3992 </r>
       <r>     3.1692   161.7688   220.7663 </r>
       <r>     3.2147   158.9473   228.0049 </r>
       <r>     3.2602   156.0574   235.1118 </r>
       <r>     3.3058   153.5540   242.1048 </r>
       <r>     3.3513   151.8017   249.0179 </r>
       <r>     3.3969   150.8601   255.8882 </r>
       <r>     3.4424   150.3731   262.7363 </r>
       <r>     3.4879   149.7163   269.5545 </r>
       <r>     3.5335   148.3273   276.3094 </r>
       <r>     3.5790   145.9904   282.9579 </r>
       <r>     3.6246   142.9195   289.4666 </r>
       <r>     3.6701   139.6456   295.8261 </r>
       <r>     3.7157   136.7987   302.0560 </r>
       <r>     3.7612   134.8466   308.1970 </r>
       <r>     3.8067   133.8607   314.2931 </r>
       <r>     3.8523   133.4413   320.3701 </r>
       <r>     3.8978   132.9380   326.4242 </r>
       <r>     3.9434   131.9230   332.4321 </r>
       <r>     3.9889   130.6253   338.3809 </r>
       <r>     4.0344   129.9647   344.2995 </r>
       <r>     4.0800   131.0771   350.2689 </r>
       <r>     4.1255   134.6424   356.4006 </r>
       <r>     4.1711   140.5236   362.8001 </r>
       <r>     4.2166   147.9715   369.5389 </r>
       <r>     4.2621   156.1431   376.6497 </r>
       <r>     4.3077   164.4143   384.1373 </r>
       <r>     4.3532   172.2298   391.9807 </r>
       <r>     4.3988   178.7586   400.1215 </r>
       <r>     4.4443   182.8697   408.4495 </r>
       <r>     4.4898   183.6555   416.8133 </r>
       <r>     4.5354   181.1948   425.0651 </r>
       <r>     4.5809   176.9699   433.1244 </r>
       <r>     4.6265   173.5314   441.0271 </r>
       <r>     4.6720   173.4797   448.9275 </r>
       <r>     4.7175   178.2700   457.0461 </r>
       <r>     4.7631   187.4917   465.5846 </r>
       <r>     4.8086   199.0330   474.6487 </r>
       <r>     4.8542   210.0449   484.2142 </r>
       <r>     4.8997   218.1660   494.1497 </r>
       <r>     4.9452   222.3702   504.2766 </r>
       <r>     4.9908   223.1085   514.4371 </r>
       <r>     5.0363   221.8757   524.5415 </r>
       <r>     5.0819   220.5722   534.5865 </r>
       <r>     5.1274   220.9466   544.6485 </r>
       <r>     5.1730   224.1790   554.8578 </r>
       <r>     5.2185   230.5385   565.3567 </r>
       <r>     5.2640   239.1183   576.2463 </r>
       <r>     5.3096   247.8087   587.5317 </r>
       <r>     5.3551   253.7298   599.0867 </r>
       <r>     5.4007   254.1697   610.6618 </r>
       <r>     5.4462   247.7081   621.9426 </r>
       <r>     5.4917   234.9352   632.6417 </r>
       <r>     5.5373   218.2867   642.5826 </r>
       <r>     5.5828   201.0114   651.7368 </r>
       <r>     5.6284   185.8310   660.1997 </r>
       <r>     5.6739   174.0298   668.1251 </r>
       <r>     5.7194   165.4095   675.6580 </r>
       <r>     5.7650   158.9856   682.8983 </r>
       <r>     5.8105   153.8832   689.9062 </r>
       <r>     5.8561   149.8837   696.7320 </r>
       <r>     5.9016   147.4137   703.4453 </r>
       <r>     5.9471   147.1442   710.1464 </r>
       <r>     5.9927   149.5168   716.9555 </r>
       <r>     6.0382   154.4320   723.9884 </r>
       <r>     6.0838   161.2051   731.3298 </r>
       <r>     6.1293   168.8107   739.0176 </r>
       <r>     6.1748   176.3332   747.0479 </r>
       <r>     6.2204   183.3654   755.3985 </r>
       <r>     6.2659   190.0204   764.0522 </r>
       <r>     6.3115   196.4672   772.9994 </r>
       <r>     6.3570   202.3579   782.2149 </r>
       <r>     6.4026   206.7335   791.6297 </r>
       <r>     6.4481   208.6333   801.1310 </r>
       <r>     6.4936   207.9434   810.6009 </r>
       <r>     6.5392   205.6775   819.9676 </r>
       <r>     6.5847   203.2997   829.2260 </r>
       <r>     6.6303   201.5670   838.4055 </r>
       <r>     6.6758   199.8904   847.5087 </r>
       <r>     6.7213   196.8500   856.4733 </r>
       <r>     6.7669   191.5227   865.1954 </r>
       <r>     6.8124   184.5468   873.5998 </r>
       <r>     6.8580   178.0113   881.7066 </r>
       <r>     6.9035   174.1961   889.6396 </r>
       <r>     6.9490   174.1105   897.5687 </r>
       <r>     6.9946   176.9149   905.6255 </r>
       <r>     7.0401   180.6002   913.8502 </r>
       <r>     7.0857   183.3488   922.2000 </r>
       <r>     7.1312   184.5859   930.6062 </r>
       <r>     7.1767   185.1108   939.0362 </r>
       <r>     7.2223   186.4596   947.5277 </r>
       <r>     7.2678   190.1269   956.1862 </r>
       <r>     7.3134   197.1314   965.1637 </r>
       <r>     7.3589   207.8896   974.6312 </r>
       <r>     7.4044   221.9855   984.7405 </r>
       <r>     7.4500   237.5564   995.5590 </r>
       <r>     7.4955   250.6090  1006.9719 </r>
       <r>     7.5411   255.1633  1018.5922 </r>
       <r>     7.5866   245.0074  1029.7501 </r>
       <r>     7.6321   216.7515  1039.6211 </r>
       <r>     7.6777   172.4632  1047.4752 </r>
       <r>     7.7232   119.8320  1052.9324 </r>
       <r>     7.7688    69.2526  1056.0862 </r>
       <r>     7.8143    29.4484  1057.4273 </r>
       <r>     7.8599     4.3126  1057.6237 </r>
       <r>     7.9054    -7.3994  1057.2867 </r>
       <r>     7.9509    -9.9906  1056.8317 </r>
       <r>     7.9965    -8.1478  1056.4607 </r>
       <r>     8.0420    -5.2109  1056.2234 </r>
       <r>     8.0876    -2.7998  1056.0959 </r>
       <r>     8.1331    -1.3004  1056.0367 </r>
       <r>     8.1786    -0.5297  1056.0125 </r>
       <r>     8.2242    -0.1908  1056.0038 </r>
       <r>     8.2697    -0.0611  1056.0011 </r>
       <r>     8.3153    -0.0175  1056.0003 </r>
       <r>     8.3608    -0.0045  1056.0001 </r>
       <r>     8.4063    -0.0010  1056.0000 </r>
       <r>     8.4519    -0.0002  1056.0000 </r>
       <r>     8.4974    -0.0000  1056.0000 </r>
       <r>     8.5430    -0.0000  1056.0000 </r>
       <r>     8.5885    -0.0000  1056.0000 </r>
       <r>     8.6340    -0.0000  1056.0000 </r>
       <r>     8.6796    -0.0000  1056.0000 </r>
       <r>     8.7251    -0.0000  1056.0000 </r>
       <r>     8.7707    -0.0000  1056.0000 </r>
       <r>     8.8162    -0.0000  1056.0000 </r>
       <r>     8.8617    -0.0000  1056.0000 </r>
       <r>     8.9073    -0.0000  1056.0000 </r>
       <r>     8.9528     0.0000  1056.0000 </r>
       <r>     8.9984     0.0000  1056.0000 </r>
       <r>     9.0439     0.0000  1056.0000 </r>
       <r>     9.0895     0.0000  1056.0000 </r>
       <r>     9.1350     0.0000  1056.0000 </r>
       <r>     9.1805     0.0000  1056.0000 </r>
       <r>     9.2261     0.0000  1056.0000 </r>
       <r>     9.2716     0.0000  1056.0000 </r>
       <r>     9.3172     0.0000  1056.0000 </r>
       <r>     9.3627     0.0000  1056.0000 </r>
       <r>     9.4082     0.0000  1056.0000 </r>
       <r>     9.4538     0.0000  1056.0000 </r>
       <r>     9.4993     0.0000  1056.0000 </r>
       <r>     9.5449     0.0000  1056.0000 </r>
       <r>     9.5904     0.0000  1056.0000 </r>
       <r>     9.6359     0.0000  1056.0000 </r>
       <r>     9.6815     0.0000  1056.0000 </r>
      </set>
     </set>
    </array>
   </total>
  </dos>
 </calculation>
 <structure name="finalpos" >
  <crystal>
   <varray name="basis" >
    <v>      10.33484705       0.00000000       0.00000000 </v>
    <v>       0.00000000      10.33484705       0.00000000 </v>
    <v>       0.00000000       0.00000000      10.33484705 </v>
   </varray>
   <i name="volume">   1103.85533447 </i>
   <varray name="rec_basis" >
    <v>       0.09676002       0.00000000       0.00000000 </v>
    <v>       0.00000000       0.09676002       0.00000000 </v>
    <v>       0.00000000       0.00000000       0.09676002 </v>
   </varray>
  </crystal>
  <varray name="positions" >
   <v>       0.99996032       0.00000006       0.00003988 </v>
   <v>       0.99951163       0.16637446       0.16617785 </v>
   <v>       0.99964970       0.33458973       0.00035038 </v>
   <v>       0.00263857       0.49999981       0.16930446 </v>
   <v>       0.99964954       0.66541014       0.00035022 </v>
   <v>       0.99951162       0.83362559       0.16617789 </v>
   <v>       0.00060545       0.00000007       0.33343285 </v>
   <v>       0.00218254       0.16991331       0.50006403 </v>
   <v>       0.99956083       0.33328464       0.33341760 </v>
   <v>       0.00153806       0.49999988       0.49998713 </v>
   <v>       0.99956084       0.66671528       0.33341754 </v>
   <v>       0.00218259       0.83008674       0.50006394 </v>
   <v>       0.99822701       0.00000015       0.66649844 </v>
   <v>       0.99948960       0.16696218       0.83347462 </v>
   <v>       0.00106435       0.33463678       0.66680270 </v>
   <v>       0.00318036       0.49999990       0.83125749 </v>
   <v>       0.00106453       0.66536311       0.66680257 </v>
   <v>       0.99948952       0.83303781       0.83347465 </v>
   <v>       0.16676677       0.00000009       0.16727178 </v>
   <v>       0.16652636       0.16696246       0.00051044 </v>
   <v>       0.16652632       0.83303757       0.00051026 </v>
   <v>       0.16881723       0.33502876       0.50010161 </v>
   <v>       0.16626907       0.49999998       0.33293467 </v>
   <v>       0.16881729       0.66497127       0.50010161 </v>
   <v>       0.16640249       0.00000019       0.83359816 </v>
   <v>       0.17142227       0.49999977       0.66390123 </v>
   <v>       0.16675180       0.33328448       0.16622690 </v>
   <v>       0.16675163       0.66671541       0.16622670 </v>
   <v>       0.16586542       0.16672246       0.33253130 </v>
   <v>       0.16586542       0.83327756       0.33253130 </v>
   <v>       0.16449066       0.16505218       0.66694991 </v>
   <v>       0.16646602       0.33231870       0.83353486 </v>
   <v>       0.16646609       0.66768113       0.83353485 </v>
   <v>       0.16449055       0.83494815       0.66695016 </v>
   <v>       0.16874338       0.49999991       0.99681949 </v>
   <v>       0.16486206       0.00000004       0.49994892 </v>
   <v>       0.33350238       0.00000016       0.00177246 </v>
   <v>       0.33339766       0.16991314       0.16884853 </v>
   <v>       0.33339760       0.83008695       0.16884815 </v>
   <v>       0.33343506       0.33502812       0.33548268 </v>
   <v>       0.33343492       0.66497237       0.33548189 </v>
   <v>       0.33305089       0.16505221       0.83550995 </v>
   <v>       0.33076651       0.31935130       0.66923453 </v>
   <v>       0.33076611       0.68064868       0.66923463 </v>
   <v>       0.33305088       0.83494781       0.83551001 </v>
   <v>       0.33319927       0.33463719       0.99893540 </v>
   <v>       0.33332051       0.49999983       0.16820449 </v>
   <v>       0.33319929       0.66536259       0.99893519 </v>
   <v>       0.33328163       0.00000000       0.33152506 </v>
   <v>       0.33196456       0.16593681       0.49863068 </v>
   <v>       0.33196445       0.83406313       0.49863077 </v>
   <v>       0.33322080       0.99999996       0.66678042 </v>
   <v>       0.33609984       0.49999976       0.82857801 </v>
   <v>       0.49983136       0.00000004       0.16489339 </v>
   <v>       0.49993626       0.16991334       0.99781745 </v>
   <v>       0.50013513       0.33463733       0.16773059 </v>
   <v>       0.50001342       0.49999990       0.99846128 </v>
   <v>       0.50013516       0.66536264       0.16773054 </v>
   <v>       0.49993629       0.83008662       0.99781732 </v>
   <v>       0.50011315       0.99999997       0.49988696 </v>
   <v>       0.50028277       0.16505245       0.33115677 </v>
   <v>       0.50256722       0.31935192       0.49743297 </v>
   <v>       0.49723348       0.49999997       0.33808872 </v>
   <v>       0.50256704       0.68064819       0.49743276 </v>
   <v>       0.50028268       0.83494755       0.33115675 </v>
   <v>       0.50005224       0.99999998       0.83514151 </v>
   <v>       0.50136948       0.16593701       0.66803661 </v>
   <v>       0.49989875       0.33502848       0.83118328 </v>
   <v>       0.49989863       0.66497143       0.83118309 </v>
   <v>       0.50136931       0.83406294       0.66803662 </v>
   <v>       0.66658166       0.33328458       0.00043883 </v>
   <v>       0.66459011       0.49999995       0.16984655 </v>
   <v>       0.66658176       0.66671533       0.00043874 </v>
   <v>       0.66693070       0.00000001       0.33306851 </v>
   <v>       0.66884242       0.16505229       0.49971734 </v>
   <v>       0.66884243       0.83494774       0.49971740 </v>
   <v>       0.66847268       0.00000062       0.66671910 </v>
   <v>       0.66706420       0.49999992       0.83373140 </v>
   <v>       0.66680724       0.16696252       0.16615587 </v>
   <v>       0.66680725       0.83303745       0.16615586 </v>
   <v>       0.66686729       0.33231915       0.33313212 </v>
   <v>       0.66686732       0.66768089       0.33313218 </v>
   <v>       0.66746779       0.16672271       0.83413523 </v>
   <v>       0.66451659       0.33502844       0.66656584 </v>
   <v>       0.66451649       0.66497154       0.66656560 </v>
   <v>       0.66746777       0.83327729       0.83413514 </v>
   <v>       0.66656673       0.00000003       0.99939442 </v>
   <v>       0.66191087       0.49999997       0.50276655 </v>
   <v>       0.83069440       0.49999981       0.99736132 </v>
   <v>       0.83510519       0.00000020       0.50016864 </v>
   <v>       0.83368329       0.33458985       0.16631574 </v>
   <v>       0.83368332       0.66541006       0.16631565 </v>
   <v>       0.83384337       0.16696244       0.33319211 </v>
   <v>       0.83384338       0.83303761       0.33319206 </v>
   <v>       0.83115032       0.16991322       0.66660340 </v>
   <v>       0.83377197       0.33328461       0.83324887 </v>
   <v>       0.83377197       0.66671535       0.83324886 </v>
   <v>       0.83115045       0.83008680       0.66660328 </v>
   <v>       0.83337276       0.00000006       0.16662633 </v>
   <v>       0.83382117       0.16637444       0.00048826 </v>
   <v>       0.83382107       0.83362563       0.00048836 </v>
   <v>       0.83226856       0.33463692       0.49986488 </v>
   <v>       0.83015257       0.49999990       0.33540936 </v>
   <v>       0.83226862       0.66536312       0.49986476 </v>
   <v>       0.83272728       0.00000004       0.83323389 </v>
   <v>       0.83179482       0.49999995       0.66668019 </v>
   <v>       0.41666601       0.50000008       0.58043098 </v>
  </varray>
  <varray name="selective"  type="logical" >
   <v type="logical" >  F  F  F </v>
   <v type="logical" >  F  F  F </v>
   <v type="logical" >  F  F  F </v>
   <v type="logical" >  F  F  F </v>
   <v type="logical" >  F  F  F </v>
   <v type="logical" >  F  F  F </v>
   <v type="logical" >  F  F  F </v>
   <v type="logical" >  F  F  F </v>
   <v type="logical" >  F  F  F </v>
   <v type="logical" >  F  F  F </v>
   <v type="logical" >  F  F  F </v>
   <v type="logical" >  F  F  F </v>
   <v type="logical" >  F  F  F </v>
   <v type="logical" >  F  F  F </v>
   <v type="logical" >  F  F  F </v>
   <v type="logical" >  F  F  F </v>
   <v type="logical" >  F  F  F </v>
   <v type="logical" >  F  F  F </v>
   <v type="logical" >  F  F  F </v>
   <v type="logical" >  F  F  F </v>
   <v type="logical" >  F  F  F </v>
   <v type="logical" >  F  F  F </v>
   <v type="logical" >  F  F  F </v>
   <v type="logical" >  F  F  F </v>
   <v type="logical" >  F  F  F </v>
   <v type="logical" >  F  F  F </v>
   <v type="logical" >  F  F  F </v>
   <v type="logical" >  F  F  F </v>
   <v type="logical" >  F  F  F </v>
   <v type="logical" >  F  F  F </v>
   <v type="logical" >  F  F  F </v>
   <v type="logical" >  F  F  F </v>
   <v type="logical" >  F  F  F </v>
   <v type="logical" >  F  F  F </v>
   <v type="logical" >  F  F  F </v>
   <v type="logical" >  F  F  F </v>
   <v type="logical" >  F  F  F </v>
   <v type="logical" >  F  F  F </v>
   <v type="logical" >  F  F  F </v>
   <v type="logical" >  F  F  F </v>
   <v type="logical" >  F  F  F </v>
   <v type="logical" >  F  F  F </v>
   <v type="logical" >  F  F  F </v>
   <v type="logical" >  F  F  F </v>
   <v type="logical" >  F  F  F </v>
   <v type="logical" >  F  F  F </v>
   <v type="logical" >  F  F  F </v>
   <v type="logical" >  F  F  F </v>
   <v type="logical" >  F  F  F </v>
   <v type="logical" >  F  F  F </v>
   <v type="logical" >  F  F  F </v>
   <v type="logical" >  F  F  F </v>
   <v type="logical" >  F  F  F </v>
   <v type="logical" >  F  F  F </v>
   <v type="logical" >  F  F  F </v>
   <v type="logical" >  F  F  F </v>
   <v type="logical" >  F  F  F </v>
   <v type="logical" >  F  F  F </v>
   <v type="logical" >  F  F  F </v>
   <v type="logical" >  F  F  F </v>
   <v type="logical" >  F  F  F </v>
   <v type="logical" >  F  F  F </v>
   <v type="logical" >  F  F  F </v>
   <v type="logical" >  F  F  F </v>
   <v type="logical" >  F  F  F </v>
   <v type="logical" >  F  F  F </v>
   <v type="logical" >  F  F  F </v>
   <v type="logical" >  F  F  F </v>
   <v type="logical" >  F  F  F </v>
   <v type="logical" >  F  F  F </v>
   <v type="logical" >  F  F  F </v>
   <v type="logical" >  F  F  F </v>
   <v type="logical" >  F  F  F </v>
   <v type="logical" >  F  F  F </v>
   <v type="logical" >  F  F  F </v>
   <v type="logical" >  F  F  F </v>
   <v type="logical" >  F  F  F </v>
   <v type="logical" >  F  F  F </v>
   <v type="logical" >  F  F  F </v>
   <v type="logical" >  F  F  F </v>
   <v type="logical" >  F  F  F </v>
   <v type="logical" >  F  F  F </v>
   <v type="logical" >  F  F  F </v>
   <v type="logical" >  F  F  F </v>
   <v type="logical" >  F  F  F </v>
   <v type="logical" >  F  F  F </v>
   <v type="logical" >  F  F  F </v>
   <v type="logical" >  F  F  F </v>
   <v type="logical" >  F  F  F </v>
   <v type="logical" >  F  F  F </v>
   <v type="logical" >  F  F  F </v>
   <v type="logical" >  F  F  F </v>
   <v type="logical" >  F  F  F </v>
   <v type="logical" >  F  F  F </v>
   <v type="logical" >  F  F  F </v>
   <v type="logical" >  F  F  F </v>
   <v type="logical" >  F  F  F </v>
   <v type="logical" >  F  F  F </v>
   <v type="logical" >  F  F  F </v>
   <v type="logical" >  F  F  F </v>
   <v type="logical" >  F  F  F </v>
   <v type="logical" >  F  F  F </v>
   <v type="logical" >  F  F  F </v>
   <v type="logical" >  F  F  F </v>
   <v type="logical" >  F  F  F </v>
   <v type="logical" >  F  F  F </v>
   <v type="logical" >  T  T  T </v>
  </varray>
  <nose>
   <v>      -3.00000000       0.00000000       0.00010000       0.00010000 </v>
  </nose>
 </structure>
</modeling>
