 108 108   0   0
  0.1022088E+02  0.1033485E-08  0.1033485E-08  0.1033485E-08  0.5000000E-15
  1.000000000000000E-004
  CAR 
 Opt                                     
      9.78920505     -3.92714251  301      6.80761152      1.00000000
     -3.927  0.0000E+00  0.0000E+00
     -3.881  0.0000E+00  0.0000E+00
     -3.836  0.0000E+00  0.0000E+00
     -3.790  0.0000E+00  0.0000E+00
     -3.744  0.0000E+00  0.0000E+00
     -3.699  0.0000E+00  0.0000E+00
     -3.653  0.0000E+00  0.0000E+00
     -3.607  0.0000E+00  0.0000E+00
     -3.561 -0.1270E-29 -0.5804E-31
     -3.516 -0.4783E-28 -0.2245E-29
     -3.470 -0.1660E-26 -0.7816E-28
     -3.424 -0.5185E-25 -0.2449E-26
     -3.378 -0.1456E-23 -0.6903E-25
     -3.333 -0.3680E-22 -0.1751E-23
     -3.287 -0.8362E-21 -0.3998E-22
     -3.241 -0.1709E-19 -0.8212E-21
     -3.196 -0.3140E-18 -0.1518E-19
     -3.150 -0.5186E-17 -0.2523E-18
     -3.104 -0.7395E-16 -0.3633E-17
     -3.058 -0.9967E-15 -0.4920E-16
     -3.013 -0.1189E-13 -0.5930E-15
     -2.967 -0.1276E-12 -0.6429E-14
     -2.921 -0.1229E-11 -0.6264E-13
     -2.876 -0.1062E-10 -0.5482E-12
     -2.830 -0.8227E-10 -0.4310E-11
     -2.784 -0.5710E-09 -0.3041E-10
     -2.738 -0.3548E-08 -0.1926E-09
     -2.693 -0.1972E-07 -0.1094E-08
     -2.647 -0.9793E-07 -0.5572E-08
     -2.601 -0.4339E-06 -0.2541E-07
     -2.556 -0.1712E-05 -0.1037E-06
     -2.510 -0.6003E-05 -0.3782E-06
     -2.464 -0.1864E-04 -0.1231E-05
     -2.418 -0.5106E-04 -0.3565E-05
     -2.373 -0.1226E-03 -0.9168E-05
     -2.327 -0.2554E-03 -0.2084E-04
     -2.281 -0.4546E-03 -0.4163E-04
     -2.235 -0.6698E-03 -0.7225E-04
     -2.190 -0.7553E-03 -0.1068E-03
     -2.144 -0.4682E-03 -0.1282E-03
     -2.098  0.4620E-03 -0.1071E-03
     -2.053  0.2221E-02 -0.5545E-05
     -2.007  0.4848E-02  0.2161E-03
     -1.961  0.8310E-02  0.5961E-03
     -1.915  0.1262E-01  0.1173E-02
     -1.870  0.1779E-01  0.1986E-02
     -1.824  0.2361E-01  0.3066E-02
     -1.778  0.2942E-01  0.4411E-02
     -1.733  0.3426E-01  0.5977E-02
     -1.687  0.3741E-01  0.7688E-02
     -1.641  0.3889E-01  0.9466E-02
     -1.595  0.3936E-01  0.1127E-01
     -1.550  0.3971E-01  0.1308E-01
     -1.504  0.4065E-01  0.1494E-01
     -1.458  0.4263E-01  0.1689E-01
     -1.412  0.4586E-01  0.1899E-01
     -1.367  0.5042E-01  0.2129E-01
     -1.321  0.5619E-01  0.2386E-01
     -1.275  0.6268E-01  0.2673E-01
     -1.230  0.6876E-01  0.2987E-01
     -1.184  0.7267E-01  0.3319E-01
     -1.138  0.7266E-01  0.3651E-01
     -1.092  0.6825E-01  0.3963E-01
     -1.047  0.6091E-01  0.4242E-01
     -1.001  0.5379E-01  0.4488E-01
     -0.955  0.5018E-01  0.4717E-01
     -0.910  0.5216E-01  0.4956E-01
     -0.864  0.5987E-01  0.5230E-01
     -0.818  0.7193E-01  0.5558E-01
     -0.772  0.8612E-01  0.5952E-01
     -0.727  0.9983E-01  0.6409E-01
     -0.681  0.1102E+00  0.6912E-01
     -0.635  0.1141E+00  0.7434E-01
     -0.589  0.1097E+00  0.7936E-01
     -0.544  0.9776E-01  0.8383E-01
     -0.498  0.8214E-01  0.8758E-01
     -0.452  0.6882E-01  0.9073E-01
     -0.407  0.6300E-01  0.9361E-01
     -0.361  0.6680E-01  0.9666E-01
     -0.315  0.7872E-01  0.1003E+00
     -0.269  0.9475E-01  0.1046E+00
     -0.224  0.1103E+00  0.1096E+00
     -0.178  0.1215E+00  0.1152E+00
     -0.132  0.1264E+00  0.1210E+00
     -0.087  0.1251E+00  0.1267E+00
     -0.041  0.1197E+00  0.1322E+00
      0.005  0.1141E+00  0.1374E+00
      0.051  0.1115E+00  0.1425E+00
      0.096  0.1135E+00  0.1477E+00
      0.142  0.1195E+00  0.1531E+00
      0.188  0.1270E+00  0.1589E+00
      0.233  0.1338E+00  0.1651E+00
      0.279  0.1386E+00  0.1714E+00
      0.325  0.1411E+00  0.1778E+00
      0.371  0.1412E+00  0.1843E+00
      0.416  0.1391E+00  0.1907E+00
      0.462  0.1346E+00  0.1968E+00
      0.508  0.1285E+00  0.2027E+00
      0.554  0.1226E+00  0.2083E+00
      0.599  0.1199E+00  0.2138E+00
      0.645  0.1243E+00  0.2195E+00
      0.691  0.1382E+00  0.2258E+00
      0.736  0.1605E+00  0.2331E+00
      0.782  0.1858E+00  0.2416E+00
      0.828  0.2062E+00  0.2510E+00
      0.874  0.2158E+00  0.2609E+00
      0.919  0.2141E+00  0.2707E+00
      0.965  0.2055E+00  0.2801E+00
      1.011  0.1960E+00  0.2891E+00
      1.056  0.1885E+00  0.2977E+00
      1.102  0.1819E+00  0.3060E+00
      1.148  0.1737E+00  0.3139E+00
      1.194  0.1648E+00  0.3215E+00
      1.239  0.1610E+00  0.3288E+00
      1.285  0.1702E+00  0.3366E+00
      1.331  0.1969E+00  0.3456E+00
      1.377  0.2381E+00  0.3565E+00
      1.422  0.2837E+00  0.3695E+00
      1.468  0.3201E+00  0.3841E+00
      1.514  0.3360E+00  0.3995E+00
      1.559  0.3279E+00  0.4145E+00
      1.605  0.3016E+00  0.4283E+00
      1.651  0.2711E+00  0.4407E+00
      1.697  0.2547E+00  0.4523E+00
      1.742  0.2687E+00  0.4646E+00
      1.788  0.3221E+00  0.4793E+00
      1.834  0.4138E+00  0.4982E+00
      1.879  0.5327E+00  0.5226E+00
      1.925  0.6624E+00  0.5529E+00
      1.971  0.7866E+00  0.5888E+00
      2.017  0.8935E+00  0.6297E+00
      2.062  0.9761E+00  0.6743E+00
      2.108  0.1030E+01  0.7214E+00
      2.154  0.1054E+01  0.7696E+00
      2.199  0.1051E+01  0.8177E+00
      2.245  0.1032E+01  0.8648E+00
      2.291  0.1013E+01  0.9111E+00
      2.337  0.1008E+01  0.9573E+00
      2.382  0.1027E+01  0.1004E+01
      2.428  0.1063E+01  0.1053E+01
      2.474  0.1104E+01  0.1103E+01
      2.520  0.1139E+01  0.1155E+01
      2.565  0.1163E+01  0.1209E+01
      2.611  0.1186E+01  0.1263E+01
      2.657  0.1221E+01  0.1319E+01
      2.702  0.1274E+01  0.1377E+01
      2.748  0.1339E+01  0.1438E+01
      2.794  0.1403E+01  0.1502E+01
      2.840  0.1457E+01  0.1569E+01
      2.885  0.1503E+01  0.1637E+01
      2.931  0.1551E+01  0.1708E+01
      2.977  0.1604E+01  0.1782E+01
      3.022  0.1658E+01  0.1858E+01
      3.068  0.1698E+01  0.1935E+01
      3.114  0.1710E+01  0.2013E+01
      3.160  0.1691E+01  0.2091E+01
      3.205  0.1653E+01  0.2166E+01
      3.251  0.1610E+01  0.2240E+01
      3.297  0.1570E+01  0.2312E+01
      3.343  0.1535E+01  0.2382E+01
      3.388  0.1508E+01  0.2451E+01
      3.434  0.1490E+01  0.2519E+01
      3.480  0.1487E+01  0.2587E+01
      3.525  0.1497E+01  0.2655E+01
      3.571  0.1509E+01  0.2724E+01
      3.617  0.1508E+01  0.2793E+01
      3.663  0.1483E+01  0.2861E+01
      3.708  0.1438E+01  0.2927E+01
      3.754  0.1386E+01  0.2990E+01
      3.800  0.1343E+01  0.3052E+01
      3.845  0.1323E+01  0.3112E+01
      3.891  0.1324E+01  0.3173E+01
      3.937  0.1331E+01  0.3234E+01
      3.983  0.1326E+01  0.3294E+01
      4.028  0.1301E+01  0.3354E+01
      4.074  0.1267E+01  0.3412E+01
      4.120  0.1245E+01  0.3468E+01
      4.166  0.1258E+01  0.3526E+01
      4.211  0.1307E+01  0.3586E+01
      4.257  0.1379E+01  0.3649E+01
      4.303  0.1460E+01  0.3716E+01
      4.348  0.1542E+01  0.3786E+01
      4.394  0.1630E+01  0.3861E+01
      4.440  0.1725E+01  0.3939E+01
      4.486  0.1814E+01  0.4022E+01
      4.531  0.1874E+01  0.4108E+01
      4.577  0.1884E+01  0.4194E+01
      4.623  0.1842E+01  0.4278E+01
      4.668  0.1771E+01  0.4359E+01
      4.714  0.1709E+01  0.4438E+01
      4.760  0.1692E+01  0.4515E+01
      4.806  0.1745E+01  0.4595E+01
      4.851  0.1864E+01  0.4680E+01
      4.897  0.2022E+01  0.4772E+01
      4.943  0.2175E+01  0.4872E+01
      4.988  0.2284E+01  0.4976E+01
      5.034  0.2332E+01  0.5083E+01
      5.080  0.2324E+01  0.5189E+01
      5.126  0.2285E+01  0.5294E+01
      5.171  0.2243E+01  0.5396E+01
      5.217  0.2221E+01  0.5498E+01
      5.263  0.2236E+01  0.5600E+01
      5.309  0.2296E+01  0.5705E+01
      5.354  0.2401E+01  0.5815E+01
      5.400  0.2529E+01  0.5930E+01
      5.446  0.2641E+01  0.6051E+01
      5.491  0.2687E+01  0.6174E+01
      5.537  0.2632E+01  0.6294E+01
      5.583  0.2478E+01  0.6408E+01
      5.629  0.2261E+01  0.6511E+01
      5.674  0.2040E+01  0.6604E+01
      5.720  0.1857E+01  0.6689E+01
      5.766  0.1729E+01  0.6768E+01
      5.811  0.1640E+01  0.6843E+01
      5.857  0.1566E+01  0.6915E+01
      5.903  0.1494E+01  0.6983E+01
      5.949  0.1430E+01  0.7048E+01
      5.994  0.1394E+01  0.7112E+01
      6.040  0.1402E+01  0.7176E+01
      6.086  0.1458E+01  0.7243E+01
      6.132  0.1546E+01  0.7314E+01
      6.177  0.1644E+01  0.7389E+01
      6.223  0.1731E+01  0.7468E+01
      6.269  0.1800E+01  0.7550E+01
      6.314  0.1858E+01  0.7635E+01
      6.360  0.1917E+01  0.7723E+01
      6.406  0.1986E+01  0.7814E+01
      6.452  0.2057E+01  0.7908E+01
      6.497  0.2110E+01  0.8004E+01
      6.543  0.2126E+01  0.8101E+01
      6.589  0.2106E+01  0.8198E+01
      6.634  0.2069E+01  0.8292E+01
      6.680  0.2039E+01  0.8385E+01
      6.726  0.2022E+01  0.8478E+01
      6.772  0.2002E+01  0.8569E+01
      6.817  0.1953E+01  0.8659E+01
      6.863  0.1866E+01  0.8744E+01
      6.909  0.1761E+01  0.8825E+01
      6.954  0.1675E+01  0.8901E+01
      7.000  0.1642E+01  0.8976E+01
      7.046  0.1666E+01  0.9052E+01
      7.092  0.1725E+01  0.9131E+01
      7.137  0.1785E+01  0.9213E+01
      7.183  0.1825E+01  0.9296E+01
      7.229  0.1840E+01  0.9380E+01
      7.275  0.1842E+01  0.9465E+01
      7.320  0.1843E+01  0.9549E+01
      7.366  0.1853E+01  0.9634E+01
      7.412  0.1875E+01  0.9719E+01
      7.457  0.1906E+01  0.9806E+01
      7.503  0.1933E+01  0.9895E+01
      7.549  0.1938E+01  0.9983E+01
      7.595  0.1892E+01  0.1007E+02
      7.640  0.1770E+01  0.1015E+02
      7.686  0.1560E+01  0.1022E+02
      7.732  0.1270E+01  0.1028E+02
      7.777  0.9326E+00  0.1032E+02
      7.823  0.5973E+00  0.1035E+02
      7.869  0.3128E+00  0.1036E+02
      7.915  0.1100E+00  0.1037E+02
      7.960 -0.6151E-02  0.1037E+02
      8.006 -0.5297E-01  0.1037E+02
      8.052 -0.5720E-01  0.1036E+02
      8.098 -0.4318E-01  0.1036E+02
      8.143 -0.2649E-01  0.1036E+02
      8.189 -0.1387E-01  0.1036E+02
      8.235 -0.6337E-02  0.1036E+02
      8.280 -0.2554E-02  0.1036E+02
      8.326 -0.9142E-03  0.1036E+02
      8.372 -0.2920E-03  0.1036E+02
      8.418 -0.8345E-04  0.1036E+02
      8.463 -0.2138E-04  0.1036E+02
      8.509 -0.4917E-05  0.1036E+02
      8.555 -0.1016E-05  0.1036E+02
      8.600 -0.1889E-06  0.1036E+02
      8.646 -0.3158E-07  0.1036E+02
      8.692 -0.4753E-08  0.1036E+02
      8.738 -0.6440E-09  0.1036E+02
      8.783 -0.7856E-10  0.1036E+02
      8.829 -0.8631E-11  0.1036E+02
      8.875 -0.8539E-12  0.1036E+02
      8.921 -0.7614E-13  0.1036E+02
      8.966 -0.6131E-14  0.1036E+02
      9.012 -0.4371E-15  0.1036E+02
      9.058  0.0000E+00  0.1036E+02
      9.103  0.0000E+00  0.1036E+02
      9.149  0.0000E+00  0.1036E+02
      9.195  0.0000E+00  0.1036E+02
      9.241  0.0000E+00  0.1036E+02
      9.286  0.0000E+00  0.1036E+02
      9.332  0.0000E+00  0.1036E+02
      9.378  0.0000E+00  0.1036E+02
      9.423  0.0000E+00  0.1036E+02
      9.469  0.0000E+00  0.1036E+02
      9.515  0.0000E+00  0.1036E+02
      9.561  0.0000E+00  0.1036E+02
      9.606  0.0000E+00  0.1036E+02
      9.652  0.0000E+00  0.1036E+02
      9.698  0.0000E+00  0.1036E+02
      9.743  0.0000E+00  0.1036E+02
      9.789  0.0000E+00  0.1036E+02
