  108  108  100    1
  0.1022088E+02  0.1033485E-08  0.1033485E-08  0.1033485E-08  0.5000000E-15
  1.000000000000000E-004
  CAR 
 Opt                                     
    864      4    518
 
  0.1250000E+00  0.1250000E+00  0.1250000E+00  0.1250000E+00
    1       -1.927143   1.000000
    2       -0.794307   1.000000
    3       -0.794307   1.000000
    4       -0.794307   1.000000
    5       -0.110615   1.000000
    6       -0.110615   1.000000
    7       -0.110615   1.000000
    8        0.222173   1.000000
    9        0.222173   1.000000
   10        0.222173   1.000000
   11        0.829347   1.000000
   12        0.829347   1.000000
   13        0.829347   1.000000
   14        0.829347   1.000000
   15        0.829347   1.000000
   16        0.829347   1.000000
   17        0.935871   1.000000
   18        1.331866   1.000000
   19        1.331866   1.000000
   20        1.331866   1.000000
   21        1.379140   1.000000
   22        1.379140   1.000000
   23        1.379140   1.000000
   24        1.600282   1.000000
   25        1.600283   1.000000
   26        1.600283   1.000000
   27        1.733816   1.000000
   28        1.805480   1.000000
   29        1.805480   1.000000
   30        1.805480   1.000000
   31        1.905232   1.000000
   32        1.905232   1.000000
   33        1.905232   1.000000
   34        2.001274   1.000000
   35        2.001274   1.000000
   36        2.001274   1.000000
   37        2.358981   1.000000
   38        2.358981   1.000000
   39        2.358981   1.000000
   40        2.481799   1.000000
   41        2.481799   1.000000
   42        2.481799   1.000000
   43        2.481800   1.000000
   44        2.481800   1.000000
   45        2.481800   1.000000
   46        2.496710   1.000000
   47        2.496710   1.000000
   48        2.496710   1.000000
   49        2.541115   1.000000
   50        2.541115   1.000000
   51        2.541116   1.000000
   52        2.541116   1.000000
   53        2.541116   1.000000
   54        2.541116   1.000000
   55        2.565937   1.000000
   56        2.565937   1.000000
   57        2.565937   1.000000
   58        2.565937   1.000000
   59        2.565937   1.000000
   60        2.565937   1.000000
   61        2.641793   1.000000
   62        2.641793   1.000000
   63        2.641793   1.000000
   64        2.644773   1.000000
   65        2.644773   1.000000
   66        2.644773   1.000000
   67        2.736821   1.000000
   68        2.736822   1.000000
   69        2.736822   1.000000
   70        2.736822   1.000000
   71        2.736822   1.000000
   72        2.736822   1.000000
   73        2.776307   1.000000
   74        2.776307   1.000000
   75        2.776307   1.000000
   76        2.776307   1.000000
   77        2.776307   1.000000
   78        2.776307   1.000000
   79        2.779129   1.000000
   80        2.779129   1.000000
   81        2.779129   1.000000
   82        2.834096   1.000000
   83        2.834096   1.000000
   84        2.834096   1.000000
   85        2.834097   1.000000
   86        2.834097   1.000000
   87        2.834097   1.000000
   88        2.945741   1.000000
   89        2.945741   1.000000
   90        2.945741   1.000000
   91        2.945742   1.000000
   92        2.945742   1.000000
   93        2.945742   1.000000
   94        3.059986   1.000000
   95        3.059986   1.000000
   96        3.059986   1.000000
   97        3.077561   1.000000
   98        3.077561   1.000000
   99        3.077561   1.000000
  100        3.109927   1.000000
  101        3.109927   1.000000
  102        3.109927   1.000000
  103        3.109927   1.000000
  104        3.109927   1.000000
  105        3.109927   1.000000
  106        3.171728   1.000000
  107        3.171728   1.000000
  108        3.171728   1.000000
  109        3.171728   1.000000
  110        3.171728   1.000000
  111        3.171728   1.000000
  112        3.336285   1.000000
  113        3.336285   1.000000
  114        3.336285   1.000000
  115        3.336290   1.000000
  116        3.336290   1.000000
  117        3.336290   1.000000
  118        3.344728   1.000000
  119        3.344728   1.000000
  120        3.344728   1.000000
  121        3.448886   1.000000
  122        3.448886   1.000000
  123        3.448886   1.000000
  124        3.451822   1.000000
  125        3.451822   1.000000
  126        3.451822   1.000000
  127        3.497151   1.000000
  128        3.497151   1.000000
  129        3.497151   1.000000
  130        3.497151   1.000000
  131        3.497151   1.000000
  132        3.497151   1.000000
  133        3.521669   1.000000
  134        3.521669   1.000000
  135        3.521669   1.000000
  136        3.521669   1.000000
  137        3.521669   1.000000
  138        3.521669   1.000000
  139        3.575571   1.000000
  140        3.575571   1.000000
  141        3.575571   1.000000
  142        3.575573   1.000000
  143        3.575573   1.000000
  144        3.575574   1.000000
  145        3.694717   1.000000
  146        3.694717   1.000000
  147        3.694717   1.000000
  148        3.694717   1.000000
  149        3.694717   1.000000
  150        3.694717   1.000000
  151        3.732726   1.000000
  152        3.732726   1.000000
  153        3.732726   1.000000
  154        3.757193   1.000000
  155        3.757193   1.000000
  156        3.757193   1.000000
  157        3.757193   1.000000
  158        3.757193   1.000000
  159        3.757193   1.000000
  160        3.910725   1.000000
  161        3.910725   1.000000
  162        3.910725   1.000000
  163        3.910725   1.000000
  164        3.910725   1.000000
  165        3.910725   1.000000
  166        3.927240   1.000000
  167        3.927241   1.000000
  168        3.927241   1.000000
  169        4.118613   1.000000
  170        4.118613   1.000000
  171        4.118613   1.000000
  172        4.118613   1.000000
  173        4.118613   1.000000
  174        4.118613   1.000000
  175        4.258862   1.000000
  176        4.258862   1.000000
  177        4.258862   1.000000
  178        4.277845   1.000000
  179        4.277845   1.000000
  180        4.277845   1.000000
  181        4.310397   1.000000
  182        4.310397   1.000000
  183        4.310397   1.000000
  184        4.325547   1.000000
  185        4.325547   1.000000
  186        4.325547   1.000000
  187        4.325548   1.000000
  188        4.325548   1.000000
  189        4.325548   1.000000
  190        4.333373   1.000000
  191        4.333373   1.000000
  192        4.333373   1.000000
  193        4.458184   1.000000
  194        4.458184   1.000000
  195        4.458184   1.000000
  196        4.458184   1.000000
  197        4.458184   1.000000
  198        4.458184   1.000000
  199        4.479170   1.000000
  200        4.479170   1.000000
  201        4.479170   1.000000
  202        4.485681   1.000000
  203        4.485682   1.000000
  204        4.485682   1.000000
  205        4.485682   1.000000
  206        4.485682   1.000000
  207        4.485682   1.000000
  208        4.498046   1.000000
  209        4.498046   1.000000
  210        4.498046   1.000000
  211        4.498046   1.000000
  212        4.498046   1.000000
  213        4.498046   1.000000
  214        4.616097   1.000000
  215        4.616097   1.000000
  216        4.616097   1.000000
  217        4.640918   1.000000
  218        4.640919   1.000000
  219        4.640919   1.000000
  220        4.655550   1.000000
  221        4.655550   1.000000
  222        4.655550   1.000000
  223        4.746085   1.000000
  224        4.828172   1.000000
  225        4.828172   1.000000
  226        4.828172   1.000000
  227        4.828173   1.000000
  228        4.828173   1.000000
  229        4.828173   1.000000
  230        4.836012   1.000000
  231        4.836012   1.000000
  232        4.836012   1.000000
  233        4.836014   1.000000
  234        4.836015   1.000000
  235        4.836015   1.000000
  236        4.841526   1.000000
  237        4.841526   1.000000
  238        4.841527   1.000000
  239        4.978729   1.000000
  240        4.978729   1.000000
  241        4.978729   1.000000
  242        4.978730   1.000000
  243        4.978730   1.000000
  244        4.978730   1.000000
  245        5.073555   1.000000
  246        5.073555   1.000000
  247        5.073555   1.000000
  248        5.078711   1.000000
  249        5.078711   1.000000
  250        5.078711   1.000000
  251        5.083024   1.000000
  252        5.083024   1.000000
  253        5.083024   1.000000
  254        5.083025   1.000000
  255        5.083025   1.000000
  256        5.083025   1.000000
  257        5.108212   1.000000
  258        5.108212   1.000000
  259        5.108213   1.000000
  260        5.136281   1.000000
  261        5.136281   1.000000
  262        5.136281   1.000000
  263        5.136282   1.000000
  264        5.136282   1.000000
  265        5.136282   1.000000
  266        5.151350   1.000000
  267        5.179902   1.000000
  268        5.179902   1.000000
  269        5.179902   1.000000
  270        5.180377   1.000000
  271        5.180377   1.000000
  272        5.180378   1.000000
  273        5.201575   1.000000
  274        5.201575   1.000000
  275        5.220148   1.000000
  276        5.220148   1.000000
  277        5.236567   1.000000
  278        5.236568   1.000000
  279        5.236568   1.000000
  280        5.236568   1.000000
  281        5.236568   1.000000
  282        5.236568   1.000000
  283        5.253228   1.000000
  284        5.253230   1.000000
  285        5.253230   1.000000
  286        5.299289   1.000000
  287        5.299289   1.000000
  288        5.299314   1.000000
  289        5.301347   1.000000
  290        5.301373   1.000000
  291        5.301373   1.000000
  292        5.318532   1.000000
  293        5.318532   1.000000
  294        5.318532   1.000000
  295        5.318532   1.000000
  296        5.318532   1.000000
  297        5.318532   1.000000
  298        5.346057   1.000000
  299        5.346057   1.000000
  300        5.346057   1.000000
  301        5.377807   1.000000
  302        5.377807   1.000000
  303        5.377808   1.000000
  304        5.390558   1.000000
  305        5.390558   1.000000
  306        5.431432   1.000000
  307        5.431433   1.000000
  308        5.431433   1.000000
  309        5.433167   1.000000
  310        5.433167   1.000000
  311        5.433167   1.000000
  312        5.567395   1.000000
  313        5.584670   1.000000
  314        5.584670   1.000000
  315        5.584670   1.000000
  316        5.602011   1.000000
  317        5.602011   1.000000
  318        5.602011   1.000000
  319        5.609585   1.000000
  320        5.609586   1.000000
  321        5.609586   1.000000
  322        5.609587   1.000000
  323        5.609587   1.000000
  324        5.609587   1.000000
  325        5.611488   1.000000
  326        5.611488   1.000000
  327        5.611488   1.000000
  328        5.636188   1.000000
  329        5.636188   1.000000
  330        5.636188   1.000000
  331        5.751986   1.000000
  332        5.751986   1.000000
  333        5.751986   1.000000
  334        5.754630   1.000000
  335        5.754630   1.000000
  336        5.754630   1.000000
  337        5.760502   1.000000
  338        5.760502   1.000000
  339        5.760502   1.000000
  340        5.760503   1.000000
  341        5.760503   1.000000
  342        5.760503   1.000000
  343        5.779023   1.000000
  344        5.779023   1.000000
  345        5.779023   1.000000
  346        5.828946   1.000000
  347        5.828946   1.000000
  348        5.828946   1.000000
  349        5.828946   1.000000
  350        5.828946   1.000000
  351        5.828947   1.000000
  352        5.873384   1.000000
  353        5.873384   1.000000
  354        5.873384   1.000000
  355        5.910901   1.000000
  356        5.910901   1.000000
  357        5.910901   1.000000
  358        5.910903   1.000000
  359        5.910903   1.000000
  360        5.910903   1.000000
  361        5.943432   1.000000
  362        5.943432   1.000000
  363        5.943432   1.000000
  364        5.989682   1.000000
  365        5.989682   1.000000
  366        5.989682   1.000000
  367        6.090890   1.000002
  368        6.090890   1.000002
  369        6.090891   1.000002
  370        6.118919   1.000006
  371        6.118919   1.000006
  372        6.118919   1.000006
  373        6.253783   1.000320
  374        6.253783   1.000320
  375        6.253783   1.000320
  376        6.253901   1.000321
  377        6.253901   1.000321
  378        6.253901   1.000321
  379        6.255389   1.000334
  380        6.255389   1.000334
  381        6.255389   1.000334
  382        6.258458   1.000360
  383        6.258458   1.000360
  384        6.258458   1.000360
  385        6.260203   1.000376
  386        6.260203   1.000376
  387        6.260203   1.000376
  388        6.337806   1.002213
  389        6.337808   1.002213
  390        6.337808   1.002213
  391        6.441013   1.013196
  392        6.441013   1.013196
  393        6.441013   1.013196
  394        6.441013   1.013196
  395        6.441014   1.013196
  396        6.441014   1.013196
  397        6.509120   1.027987
  398        6.509120   1.027987
  399        6.509121   1.027987
  400        6.509121   1.027987
  401        6.509121   1.027987
  402        6.509121   1.027987
  403        6.633844   1.005623
  404        6.633844   1.005623
  405        6.633844   1.005623
  406        6.633845   1.005622
  407        6.633845   1.005622
  408        6.633845   1.005622
  409        6.653841   0.981644
  410        6.653841   0.981644
  411        6.653841   0.981644
  412        6.653842   0.981643
  413        6.653842   0.981643
  414        6.653842   0.981643
  415        6.700253   0.889633
  416        6.700253   0.889633
  417        6.700272   0.889585
  418        6.708620   0.867315
  419        6.708638   0.867266
  420        6.708638   0.867266
  421        6.728807   0.806483
  422        6.728807   0.806483
  423        6.814976   0.468860
  424        6.814976   0.468860
  425        6.814976   0.468860
  426        6.814977   0.468858
  427        6.814977   0.468858
  428        6.814977   0.468858
  429        6.887542   0.189874
  430        6.887542   0.189874
  431        6.887542   0.189874
  432        6.887543   0.189870
  433        6.887543   0.189870
  434        6.887543   0.189870
  435        6.897331   0.159427
  436        6.897332   0.159425
  437        6.897332   0.159425
  438        6.933658   0.066880
  439        6.933658   0.066880
  440        6.933658   0.066880
  441        7.045786  -0.035273
  442        7.045786  -0.035273
  443        7.045786  -0.035273
  444        7.045787  -0.035273
  445        7.045787  -0.035273
  446        7.045787  -0.035273
  447        7.056300  -0.035405
  448        7.056300  -0.035405
  449        7.056300  -0.035405
  450        7.060692  -0.035217
  451        7.060692  -0.035217
  452        7.084774  -0.032278
  453        7.084774  -0.032278
  454        7.084774  -0.032278
  455        7.084775  -0.032278
  456        7.084775  -0.032278
  457        7.084775  -0.032278
  458        7.110473  -0.027009
  459        7.110473  -0.027009
  460        7.110474  -0.027009
  461        7.110474  -0.027009
  462        7.110474  -0.027009
  463        7.110474  -0.027009
  464        7.148223  -0.018414
  465        7.148223  -0.018414
  466        7.148224  -0.018414
  467        7.160996  -0.015735
  468        7.160996  -0.015735
  469        7.160996  -0.015735
  470        7.223865  -0.006095
  471        7.223867  -0.006094
  472        7.223867  -0.006094
  473        7.243366  -0.004303
  474        7.243367  -0.004302
  475        7.243367  -0.004302
  476        7.271408  -0.002501
  477        7.271408  -0.002501
  478        7.271408  -0.002501
  479        7.276523  -0.002254
  480        7.276523  -0.002254
  481        7.276523  -0.002254
  482        7.335652  -0.000605
  483        7.337133  -0.000584
  484        7.339229  -0.000555
  485        7.373997  -0.000232
  486        7.374653  -0.000228
  487        7.375293  -0.000224
  488        7.376111  -0.000219
  489        7.376553  -0.000217
  490        7.379136  -0.000202
  491        7.406933  -0.000095
  492        7.408289  -0.000092
  493        7.408906  -0.000090
  494        7.410512  -0.000086
  495        7.412184  -0.000082
  496        7.417248  -0.000071
  497        7.469733  -0.000015
  498        7.471852  -0.000014
  499        7.474635  -0.000013
  500        7.478329  -0.000011
  501        7.479612  -0.000011
  502        7.486528  -0.000009
  503        7.491123  -0.000007
  504        7.498664  -0.000006
  505        7.503195  -0.000005
  506        7.517836  -0.000003
  507        7.532366  -0.000002
  508        7.582470  -0.000000
  509        7.584875  -0.000000
  510        7.589979  -0.000000
  511        7.596201  -0.000000
  512        7.601861  -0.000000
  513        7.618065  -0.000000
  514        7.637275  -0.000000
  515        7.651623  -0.000000
  516        7.681277  -0.000000
  517        7.708776  -0.000000
  518        7.773539  -0.000000
 
  0.3750000E+00  0.1250000E+00  0.1250000E+00  0.3750000E+00
    1       -1.730710   1.000000
    2       -1.346580   1.000000
    3       -0.617026   1.000000
    4       -0.617026   1.000000
    5       -0.271582   1.000000
    6       -0.271582   1.000000
    7        0.054921   1.000000
    8        0.054921   1.000000
    9        0.351482   1.000000
   10        0.375618   1.000000
   11        0.375618   1.000000
   12        0.597612   1.000000
   13        0.636853   1.000000
   14        0.923468   1.000000
   15        0.923468   1.000000
   16        1.098412   1.000000
   17        1.098412   1.000000
   18        1.328102   1.000000
   19        1.420113   1.000000
   20        1.492131   1.000000
   21        1.492131   1.000000
   22        1.495791   1.000000
   23        1.746782   1.000000
   24        1.886702   1.000000
   25        1.886705   1.000000
   26        1.901791   1.000000
   27        1.946292   1.000000
   28        1.946293   1.000000
   29        1.950159   1.000000
   30        1.969981   1.000000
   31        1.969981   1.000000
   32        2.007721   1.000000
   33        2.025610   1.000000
   34        2.025610   1.000000
   35        2.109701   1.000000
   36        2.116647   1.000000
   37        2.116647   1.000000
   38        2.137106   1.000000
   39        2.137106   1.000000
   40        2.144747   1.000000
   41        2.182314   1.000000
   42        2.182316   1.000000
   43        2.211835   1.000000
   44        2.211835   1.000000
   45        2.249934   1.000000
   46        2.249935   1.000000
   47        2.294034   1.000000
   48        2.294034   1.000000
   49        2.393503   1.000000
   50        2.393503   1.000000
   51        2.496170   1.000000
   52        2.496170   1.000000
   53        2.525675   1.000000
   54        2.525675   1.000000
   55        2.526321   1.000000
   56        2.526321   1.000000
   57        2.549411   1.000000
   58        2.549411   1.000000
   59        2.552262   1.000000
   60        2.552262   1.000000
   61        2.606067   1.000000
   62        2.606067   1.000000
   63        2.639255   1.000000
   64        2.639255   1.000000
   65        2.646308   1.000000
   66        2.646308   1.000000
   67        2.700946   1.000000
   68        2.700946   1.000000
   69        2.717337   1.000000
   70        2.730431   1.000000
   71        2.730431   1.000000
   72        2.756123   1.000000
   73        2.756124   1.000000
   74        2.773211   1.000000
   75        2.773211   1.000000
   76        2.774203   1.000000
   77        2.774204   1.000000
   78        2.820607   1.000000
   79        2.820607   1.000000
   80        2.820770   1.000000
   81        2.820770   1.000000
   82        2.864926   1.000000
   83        2.907438   1.000000
   84        2.907438   1.000000
   85        2.915103   1.000000
   86        2.915103   1.000000
   87        2.925382   1.000000
   88        2.925382   1.000000
   89        2.935602   1.000000
   90        2.935603   1.000000
   91        2.951262   1.000000
   92        2.971100   1.000000
   93        3.028548   1.000000
   94        3.028549   1.000000
   95        3.041970   1.000000
   96        3.041970   1.000000
   97        3.046594   1.000000
   98        3.046594   1.000000
   99        3.051013   1.000000
  100        3.051013   1.000000
  101        3.055571   1.000000
  102        3.120452   1.000000
  103        3.120453   1.000000
  104        3.148627   1.000000
  105        3.148627   1.000000
  106        3.219188   1.000000
  107        3.219188   1.000000
  108        3.227880   1.000000
  109        3.227880   1.000000
  110        3.244953   1.000000
  111        3.253539   1.000000
  112        3.253547   1.000000
  113        3.260538   1.000000
  114        3.260538   1.000000
  115        3.289701   1.000000
  116        3.289701   1.000000
  117        3.314758   1.000000
  118        3.314758   1.000000
  119        3.337927   1.000000
  120        3.337927   1.000000
  121        3.404590   1.000000
  122        3.404590   1.000000
  123        3.428403   1.000000
  124        3.428404   1.000000
  125        3.429821   1.000000
  126        3.429821   1.000000
  127        3.499203   1.000000
  128        3.521337   1.000000
  129        3.521337   1.000000
  130        3.522545   1.000000
  131        3.522545   1.000000
  132        3.530102   1.000000
  133        3.530102   1.000000
  134        3.561453   1.000000
  135        3.561453   1.000000
  136        3.568422   1.000000
  137        3.568422   1.000000
  138        3.594471   1.000000
  139        3.594471   1.000000
  140        3.635701   1.000000
  141        3.635701   1.000000
  142        3.639193   1.000000
  143        3.639193   1.000000
  144        3.644730   1.000000
  145        3.644731   1.000000
  146        3.652008   1.000000
  147        3.658533   1.000000
  148        3.719733   1.000000
  149        3.719733   1.000000
  150        3.780800   1.000000
  151        3.780800   1.000000
  152        3.802338   1.000000
  153        3.802338   1.000000
  154        3.829449   1.000000
  155        3.829449   1.000000
  156        3.843022   1.000000
  157        3.909568   1.000000
  158        3.909568   1.000000
  159        3.911648   1.000000
  160        3.911648   1.000000
  161        3.925352   1.000000
  162        3.925353   1.000000
  163        3.948289   1.000000
  164        3.948289   1.000000
  165        3.955641   1.000000
  166        3.955642   1.000000
  167        3.981103   1.000000
  168        4.006981   1.000000
  169        4.006981   1.000000
  170        4.034117   1.000000
  171        4.034117   1.000000
  172        4.052580   1.000000
  173        4.060751   1.000000
  174        4.060751   1.000000
  175        4.101366   1.000000
  176        4.101367   1.000000
  177        4.128710   1.000000
  178        4.128710   1.000000
  179        4.186510   1.000000
  180        4.186510   1.000000
  181        4.221338   1.000000
  182        4.221338   1.000000
  183        4.221790   1.000000
  184        4.221790   1.000000
  185        4.235861   1.000000
  186        4.235862   1.000000
  187        4.267761   1.000000
  188        4.267761   1.000000
  189        4.322345   1.000000
  190        4.322345   1.000000
  191        4.334188   1.000000
  192        4.334188   1.000000
  193        4.411299   1.000000
  194        4.411305   1.000000
  195        4.415991   1.000000
  196        4.439254   1.000000
  197        4.439254   1.000000
  198        4.480856   1.000000
  199        4.480856   1.000000
  200        4.483787   1.000000
  201        4.483787   1.000000
  202        4.483988   1.000000
  203        4.483989   1.000000
  204        4.529097   1.000000
  205        4.531373   1.000000
  206        4.531373   1.000000
  207        4.572047   1.000000
  208        4.572047   1.000000
  209        4.586845   1.000000
  210        4.586845   1.000000
  211        4.592207   1.000000
  212        4.608882   1.000000
  213        4.608882   1.000000
  214        4.624846   1.000000
  215        4.642365   1.000000
  216        4.642365   1.000000
  217        4.661483   1.000000
  218        4.661483   1.000000
  219        4.686416   1.000000
  220        4.686416   1.000000
  221        4.697313   1.000000
  222        4.700252   1.000000
  223        4.700252   1.000000
  224        4.742341   1.000000
  225        4.742341   1.000000
  226        4.796442   1.000000
  227        4.796443   1.000000
  228        4.819553   1.000000
  229        4.839015   1.000000
  230        4.873421   1.000000
  231        4.874934   1.000000
  232        4.874934   1.000000
  233        4.894813   1.000000
  234        4.894813   1.000000
  235        4.904365   1.000000
  236        4.904365   1.000000
  237        4.907074   1.000000
  238        4.907074   1.000000
  239        4.908624   1.000000
  240        4.908625   1.000000
  241        4.917782   1.000000
  242        4.933912   1.000000
  243        4.933912   1.000000
  244        4.957735   1.000000
  245        4.957735   1.000000
  246        4.959423   1.000000
  247        4.959423   1.000000
  248        4.966692   1.000000
  249        4.966692   1.000000
  250        5.003085   1.000000
  251        5.003086   1.000000
  252        5.019462   1.000000
  253        5.019463   1.000000
  254        5.039320   1.000000
  255        5.039320   1.000000
  256        5.046485   1.000000
  257        5.046485   1.000000
  258        5.059179   1.000000
  259        5.071067   1.000000
  260        5.071070   1.000000
  261        5.090358   1.000000
  262        5.093638   1.000000
  263        5.107908   1.000000
  264        5.114279   1.000000
  265        5.114279   1.000000
  266        5.115195   1.000000
  267        5.149602   1.000000
  268        5.164278   1.000000
  269        5.203987   1.000000
  270        5.209017   1.000000
  271        5.209017   1.000000
  272        5.215773   1.000000
  273        5.236727   1.000000
  274        5.239984   1.000000
  275        5.239984   1.000000
  276        5.266988   1.000000
  277        5.271279   1.000000
  278        5.277838   1.000000
  279        5.277838   1.000000
  280        5.278536   1.000000
  281        5.278537   1.000000
  282        5.287820   1.000000
  283        5.295532   1.000000
  284        5.295534   1.000000
  285        5.323236   1.000000
  286        5.323237   1.000000
  287        5.324153   1.000000
  288        5.324154   1.000000
  289        5.337571   1.000000
  290        5.337571   1.000000
  291        5.338848   1.000000
  292        5.338848   1.000000
  293        5.405749   1.000000
  294        5.406442   1.000000
  295        5.406442   1.000000
  296        5.408925   1.000000
  297        5.424662   1.000000
  298        5.432796   1.000000
  299        5.436039   1.000000
  300        5.443632   1.000000
  301        5.443632   1.000000
  302        5.444920   1.000000
  303        5.444921   1.000000
  304        5.455195   1.000000
  305        5.468162   1.000000
  306        5.468162   1.000000
  307        5.468299   1.000000
  308        5.468306   1.000000
  309        5.470777   1.000000
  310        5.492734   1.000000
  311        5.492734   1.000000
  312        5.497494   1.000000
  313        5.497495   1.000000
  314        5.530744   1.000000
  315        5.530744   1.000000
  316        5.531872   1.000000
  317        5.531872   1.000000
  318        5.539883   1.000000
  319        5.539883   1.000000
  320        5.551746   1.000000
  321        5.551746   1.000000
  322        5.563136   1.000000
  323        5.575449   1.000000
  324        5.575449   1.000000
  325        5.603239   1.000000
  326        5.603239   1.000000
  327        5.606364   1.000000
  328        5.616137   1.000000
  329        5.616137   1.000000
  330        5.654927   1.000000
  331        5.654927   1.000000
  332        5.664737   1.000000
  333        5.664737   1.000000
  334        5.673611   1.000000
  335        5.680539   1.000000
  336        5.680547   1.000000
  337        5.693215   1.000000
  338        5.693215   1.000000
  339        5.734078   1.000000
  340        5.736840   1.000000
  341        5.736841   1.000000
  342        5.760303   1.000000
  343        5.781462   1.000000
  344        5.833107   1.000000
  345        5.834890   1.000000
  346        5.834890   1.000000
  347        5.856153   1.000000
  348        5.856153   1.000000
  349        5.864476   1.000000
  350        5.864476   1.000000
  351        5.876481   1.000000
  352        5.876481   1.000000
  353        5.884043   1.000000
  354        5.978185   1.000000
  355        5.978185   1.000000
  356        6.017475   1.000000
  357        6.017475   1.000000
  358        6.081272   1.000002
  359        6.081272   1.000002
  360        6.093439   1.000003
  361        6.093439   1.000003
  362        6.104617   1.000004
  363        6.104617   1.000004
  364        6.135179   1.000011
  365        6.135179   1.000011
  366        6.142136   1.000013
  367        6.152649   1.000019
  368        6.152649   1.000019
  369        6.185692   1.000050
  370        6.200684   1.000077
  371        6.200684   1.000077
  372        6.231076   1.000177
  373        6.231076   1.000177
  374        6.233088   1.000187
  375        6.233088   1.000187
  376        6.255563   1.000335
  377        6.271875   1.000502
  378        6.271876   1.000502
  379        6.281215   1.000629
  380        6.281215   1.000629
  381        6.282250   1.000645