 running on    8 total cores
 distrk:  each k-point on    8 cores,    1 groups
 distr:  one band on    4 cores,    2 groups
 using from now: INCAR     
 vasp.5.4.4.18Apr17-6-g9f103f2a35 (build Aug 17 2017 06:00:38) complex          
  
 POSCAR found type information on POSCAR  Fe
 POSCAR found :  1 types and     108 ions
 scaLAPACK will be used
 LDA part: xc-table for Pade appr. of Perdew
 POSCAR, INCAR and KPOINTS ok, starting setup
 FFT: planning ...
 WAVECAR not read
 entering main loop
       N       E                     dE             d eps       ncg     rms          rms(c)
DAV:   1     0.705180651986E+04    0.70518E+04   -0.26409E+05  4160   0.165E+03
DAV:   2    -0.118797765878E+03   -0.71706E+04   -0.69951E+04  4144   0.437E+02
DAV:   3    -0.883426187818E+03   -0.76463E+03   -0.66017E+03  4416   0.176E+02
DAV:   4    -0.103258381459E+04   -0.14916E+03   -0.13947E+03  7472   0.552E+01
DAV:   5    -0.104508579055E+04   -0.12502E+02   -0.11701E+02  6544   0.186E+01    0.933E+01
RMM:   6    -0.878241581007E+03    0.16684E+03   -0.13540E+03  4144   0.109E+02    0.898E+00
RMM:   7    -0.880832492356E+03   -0.25909E+01   -0.10808E+02  4521   0.232E+01    0.342E+00
RMM:   8    -0.880070069339E+03    0.76242E+00   -0.12878E+01  4404   0.100E+01    0.698E+00
RMM:   9    -0.880202546722E+03   -0.13248E+00   -0.44071E+00  5458   0.227E+00    0.279E+00
RMM:  10    -0.880026513235E+03    0.17603E+00   -0.10646E+00  5294   0.130E+00    0.543E-01
RMM:  11    -0.880041219825E+03   -0.14707E-01   -0.14381E-01  5690   0.338E-01    0.599E-01
RMM:  12    -0.880035240927E+03    0.59789E-02   -0.36071E-02  4513   0.519E-01    0.816E-02
RMM:  13    -0.880036053134E+03   -0.81221E-03   -0.11946E-02  5515   0.726E-02    0.439E-02
RMM:  14    -0.880036099726E+03   -0.46592E-04   -0.22551E-04  4827   0.472E-02    0.109E-02
RMM:  15    -0.880036059994E+03    0.39732E-04    0.31940E-05  5799   0.137E-02    0.769E-03
RMM:  16    -0.880036025618E+03    0.34376E-04    0.30898E-04  3788   0.468E-03    0.100E-03
RMM:  17    -0.880035988443E+03    0.37174E-04    0.33870E-04  3027   0.235E-03    0.194E-03
RMM:  18    -0.880035958199E+03    0.30245E-04    0.24090E-04  2757   0.365E-03    0.105E-03
RMM:  19    -0.880035943741E+03    0.14458E-04    0.13183E-04  2697   0.178E-03    0.256E-04
RMM:  20    -0.880035933676E+03    0.10066E-04    0.10263E-04  2624   0.148E-03    0.695E-04
RMM:  21    -0.880035924916E+03    0.87596E-05    0.85635E-05  2559   0.146E-03    0.307E-04
RMM:  22    -0.880035917164E+03    0.77519E-05    0.75656E-05  2424   0.931E-04    0.320E-04
RMM:  23    -0.880035907246E+03    0.99177E-05    0.92475E-05  2257   0.871E-04    0.218E-04
RMM:  24    -0.880035899997E+03    0.72496E-05    0.66728E-05  1940   0.684E-04    0.211E-04
RMM:  25    -0.880035893996E+03    0.60013E-05    0.56811E-05  1895   0.587E-04    0.827E-05
RMM:  26    -0.880035888765E+03    0.52309E-05    0.50579E-05  1595   0.534E-04    0.187E-04
RMM:  27    -0.880035883944E+03    0.48210E-05    0.46299E-05  1439   0.447E-04    0.106E-04
RMM:  28    -0.880035879552E+03    0.43912E-05    0.42631E-05  1210   0.434E-04    0.201E-04
RMM:  29    -0.880035875511E+03    0.40415E-05    0.39408E-05  1069   0.385E-04    0.126E-04
RMM:  30    -0.880035871791E+03    0.37201E-05    0.36325E-05  1012   0.379E-04    0.205E-04
RMM:  31    -0.880035868361E+03    0.34294E-05    0.33538E-05   978   0.338E-04    0.157E-04
RMM:  32    -0.880035865212E+03    0.31495E-05    0.30862E-05   930   0.341E-04    0.211E-04
RMM:  33    -0.880035862321E+03    0.28912E-05    0.28406E-05   914   0.339E-04    0.154E-04
RMM:  34    -0.880035859664E+03    0.26565E-05    0.26088E-05   847   0.328E-04    0.197E-04
RMM:  35    -0.880035857228E+03    0.24362E-05    0.23936E-05   828   0.321E-04    0.166E-04
RMM:  36    -0.880035855001E+03    0.22271E-05    0.21935E-05   810   0.319E-04    0.187E-04
RMM:  37    -0.880035852959E+03    0.20413E-05    0.20082E-05   767   0.313E-04    0.167E-04
RMM:  38    -0.880035851096E+03    0.18638E-05    0.18362E-05   732   0.308E-04    0.185E-04
RMM:  39    -0.880035849396E+03    0.16999E-05    0.16777E-05   761   0.315E-04    0.160E-04
RMM:  40    -0.880035847843E+03    0.15526E-05    0.15316E-05   681   0.306E-04    0.172E-04
RMM:  41    -0.880035846424E+03    0.14187E-05    0.13974E-05   699   0.311E-04    0.155E-04
RMM:  42    -0.880035845136E+03    0.12889E-05    0.12739E-05   621   0.303E-04    0.163E-04
RMM:  43    -0.880035843957E+03    0.11785E-05    0.11610E-05   676   0.307E-04    0.150E-04
RMM:  44    -0.880035842885E+03    0.10723E-05    0.10574E-05   618   0.302E-04    0.150E-04
RMM:  45    -0.880035841912E+03    0.97304E-06    0.96305E-06   577   0.297E-04
   1 F= -.88003584E+03 E0= -.88001234E+03  d E =-.880036E+03
 curvature:   0.00 expect dE= 0.000E+00 dE for cont linesearch  0.000E+00
 trial: gam= 0.00000 g(F)=  0.206E-37 g(S)=  0.125E-02 ort = 0.000E+00 (trialstep = 0.100E+01)
 search vector abs. value=  0.125E-02
 reached required accuracy - stopping structural energy minimisation
