 vasp.5.4.4.18Apr17-6-g9f103f2a35 (build Aug 17 2017 06:00:38) complex          
  
 executed on             LinuxIFC date 2019.07.12  14:47:20
 running on    8 total cores
 distrk:  each k-point on    8 cores,    1 groups
 distr:  one band on NCORES_PER_BAND=   4 cores,    2 groups


--------------------------------------------------------------------------------------------------------


 INCAR:
 POTCAR:   PAW_PBE Fe 06Sep2000                   
 POTCAR:   PAW_PBE Fe 06Sep2000                   
   VRHFIN =Fe:  d7 s1                                                           
   LEXCH  = PE                                                                  
   EATOM  =   594.4687 eV,   43.6922 Ry                                         
                                                                                
   TITEL  = PAW_PBE Fe 06Sep2000                                                
   LULTRA =        F    use ultrasoft PP ?                                      
   IUNSCR =        1    unscreen: 0-lin 1-nonlin 2-no                           
   RPACOR =    2.000    partial core radius                                     
   POMASS =   55.847; ZVAL   =    8.000    mass and valenz                      
   RCORE  =    2.300    outmost cutoff radius                                   
   RWIGS  =    2.460; RWIGS  =    1.302    wigner-seitz radius (au A)           
   ENMAX  =  267.883; ENMIN  =  200.912 eV                                      
   RCLOC  =    1.701    cutoff for local pot                                    
   LCOR   =        T    correct aug charges                                     
   LPAW   =        T    paw PP                                                  
   EAUG   =  511.368                                                            
   DEXC   =    -.022                                                            
   RMAX   =    2.817    core radius for proj-oper                               
   RAUG   =    1.300    factor for augmentation sphere                          
   RDEP   =    2.442    radius for radial grids                                 
   QCUT   =   -4.437; QGAM   =    8.874    optimization parameters              
                                                                                
   Description                                                                  
     l     E      TYP  RCUT    TYP  RCUT                                        
     2   .000     23  2.300                                                     
     2   .000     23  2.300                                                     
     0   .000     23  2.300                                                     
     0   .000     23  2.300                                                     
     1  -.200     23  2.300                                                     
     1   .000     23  2.300                                                     
     3   .000      7   .000                                                     
  local pseudopotential read in
  partial core-charges read in
  atomic valenz-charges read in
  non local Contribution for L=           2  read in
    real space projection operators read in
  non local Contribution for L=           2  read in
    real space projection operators read in
  non local Contribution for L=           0  read in
    real space projection operators read in
  non local Contribution for L=           0  read in
    real space projection operators read in
  non local Contribution for L=           1  read in
    real space projection operators read in
  non local Contribution for L=           1  read in
    real space projection operators read in
    PAW grid and wavefunctions read in
 
   number of l-projection  operators is LMAX  =           6
   number of lm-projection operators is LMMAX =          18
 
 Optimization of the real space projectors (new method)

 maximal supplied QI-value         = 16.25
 optimisation between [QCUT,QGAM] = [  9.43, 19.01] = [ 24.88,101.24] Ry 
 Optimized for a Real-space Cutoff    1.61 Angstroem

   l    n(q)    QCUT    max X(q) W(low)/X(q) W(high)/X(q)  e(spline) 
   2      8     9.426     4.378    0.43E-04    0.28E-04    0.42E-07
   2      8     9.426    23.237    0.38E-03    0.20E-03    0.46E-06
   0      9     9.426    17.641    0.23E-04    0.48E-05    0.57E-08
   0      9     9.426    50.908    0.80E-04    0.72E-04    0.72E-07
   1      9     9.426     6.148    0.18E-04    0.65E-05    0.29E-07
   1      9     9.426     8.345    0.99E-04    0.20E-04    0.82E-07
 PAW_PBE Fe 06Sep2000                   :
 energy of atom  1       EATOM= -594.4687
 kinetic energy error for atom=    0.0205 (will be added to EATOM!!)
 
 
 POSCAR: fcc_Fe_CON_333                          
  positions in direct lattice
  velocities in cartesian coordinates
 exchange correlation table for  LEXCH =        8
   RHO(1)=    0.500       N(1)  =     2000
   RHO(2)=  100.500       N(2)  =     4000
 


--------------------------------------------------------------------------------------------------------


 ion  position               nearest neighbor table
   1  0.000  0.000  0.000-   2 2.44   3 2.44   4 2.44  11 2.44  12 2.44  26 2.44  28 2.44  74 2.44
                            75 2.44  36 2.44  83 2.44  98 2.44
   2  0.000  0.167  0.167-  49 2.44  37 2.44  13 2.44  40 2.44  15 2.44  48 2.44  23 2.44   3 2.44
                             4 2.44   1 2.44  12 2.44  11 2.44
   3  0.167  0.000  0.167-  41 2.44  37 2.44   5 2.44  40 2.44   6 2.44  30 2.44  64 2.44   2 2.44
                             4 2.44   1 2.44  28 2.44  26 2.44
   4  0.167  0.167  0.000-  17 2.44  13 2.44   5 2.44  15 2.44   6 2.44  78 2.44  87 2.44   2 2.44
                             3 2.44   1 2.44  74 2.44  75 2.44
   5  0.333  0.000  0.000-   3 2.44   4 2.44  28 2.44  75 2.44   6 2.44   7 2.44   8 2.44  30 2.44
                            78 2.44  32 2.44  79 2.44 102 2.44
   6  0.333  0.167  0.167-  15 2.44  40 2.44  53 2.44  17 2.44  19 2.44   4 2.44  41 2.44  44 2.44
                             3 2.44   7 2.44   8 2.44   5 2.44
   7  0.500  0.000  0.167-  41 2.44  44 2.44  45 2.44  68 2.44   6 2.44   5 2.44   8 2.44  10 2.44
                            30 2.44   9 2.44  32 2.44  34 2.44
   8  0.500  0.167  0.000-  17 2.44  19 2.44  21 2.44  91 2.44   6 2.44   5 2.44   7 2.44  78 2.44
                            10 2.44  79 2.44   9 2.44  82 2.44
   9  0.667  0.000  0.000-  11 2.44  12 2.44  36 2.44  83 2.44  10 2.44  82 2.44  34 2.44   8 2.44
                             7 2.44 106 2.44  79 2.44  32 2.44
  10  0.667  0.167  0.167-  23 2.44  48 2.44  57 2.44  12 2.44  11 2.44  21 2.44  45 2.44  44 2.44
                            19 2.44   9 2.44   7 2.44   8 2.44
  11  0.833  0.000  0.167-  45 2.44   9 2.44  10 2.44  34 2.44  48 2.44  37 2.44  72 2.44  12 2.44
                             2 2.44  36 2.44   1 2.44  26 2.44
  12  0.833  0.167  0.000-  21 2.44   9 2.44  10 2.44  82 2.44  23 2.44  13 2.44  95 2.44  11 2.44
                             1 2.44  83 2.44   2 2.44  74 2.44
  13  0.000  0.333  0.000-   2 2.44   4 2.44  12 2.44  74 2.44  15 2.44  16 2.44  14 2.44  23 2.44
                            87 2.44  86 2.44  24 2.44  95 2.44
  14  0.000  0.500  0.167-  49 2.44  52 2.44  60 2.44  61 2.44  15 2.44  13 2.44  16 2.44  23 2.44
                            27 2.44  25 2.44  24 2.44  35 2.44
  15  0.167  0.333  0.167-   6 2.44  40 2.44  53 2.44  17 2.44  18 2.44   4 2.44  49 2.44  52 2.44
                             2 2.44  13 2.44  14 2.44  16 2.44
  16  0.167  0.500  0.000-  17 2.44  18 2.44  29 2.44  90 2.44  15 2.44  14 2.44  13 2.44  87 2.44
                            27 2.44  25 2.44  86 2.44  99 2.44
  17  0.333  0.333  0.000-   4 2.44   8 2.44  16 2.44  15 2.44   6 2.44  78 2.44  87 2.44  20 2.44
                            18 2.44  19 2.44  90 2.44  91 2.44
  18  0.333  0.500  0.167-  52 2.44  16 2.44  56 2.44  53 2.44  15 2.44  27 2.44  65 2.44  20 2.44
                            17 2.44  19 2.44  29 2.44  31 2.44
  19  0.500  0.333  0.167-  44 2.44   8 2.44  56 2.44  53 2.44   6 2.44  10 2.44  57 2.44  18 2.44
                            20 2.44  17 2.44  21 2.44  22 2.44
  20  0.500  0.500  0.000-  17 2.44  18 2.44  19 2.44  21 2.44  22 2.44  29 2.44  31 2.44  90 2.44
                            91 2.44  33 2.44  94 2.44 103 2.44
  21  0.667  0.333  0.000-  12 2.44  24 2.44  23 2.44  95 2.44  10 2.44   8 2.44  82 2.44  22 2.44
                            20 2.44  94 2.44  19 2.44  91 2.44
  22  0.667  0.500  0.167-  60 2.44  24 2.44  23 2.44  35 2.44  57 2.44  56 2.44  69 2.44  21 2.44
                            33 2.44  20 2.44  19 2.44  31 2.44
  23  0.833  0.333  0.167-  10 2.44  57 2.44  48 2.44  21 2.44  22 2.44  12 2.44  60 2.44   2 2.44
                            49 2.44  24 2.44  14 2.44  13 2.44
  24  0.833  0.500  0.000-  21 2.44  22 2.44  33 2.44  94 2.44  23 2.44  35 2.44  95 2.44  14 2.44
                            13 2.44 107 2.44  86 2.44  25 2.44
  25  0.000  0.667  0.000-  26 2.44  28 2.44  36 2.44  98 2.44  27 2.44  35 2.44  99 2.44  16 2.44
                            14 2.44 107 2.44  86 2.44  24 2.44
  26  0.000  0.833  0.167-  61 2.44  25 2.44  27 2.44  35 2.44  64 2.44  37 2.44  72 2.44  28 2.44
                             3 2.44  36 2.44   1 2.44  11 2.44
  27  0.167  0.667  0.167-  30 2.44  64 2.44  65 2.44  28 2.44  26 2.44  29 2.44  61 2.44  52 2.44
                            18 2.44  25 2.44  14 2.44  16 2.44
  28  0.167  0.833  0.000-  29 2.44  25 2.44  27 2.44  99 2.44  30 2.44   5 2.44 102 2.44  26 2.44
                            98 2.44   1 2.44   3 2.44  75 2.44
  29  0.333  0.667  0.000-  28 2.44  32 2.44  30 2.44 102 2.44  27 2.44  16 2.44  99 2.44  31 2.44
                            20 2.44  18 2.44 103 2.44  90 2.44
  30  0.333  0.833  0.167-  27 2.44  65 2.44  64 2.44  29 2.44  31 2.44  28 2.44  68 2.44  41 2.44
                             3 2.44  32 2.44   7 2.44   5 2.44
  31  0.500  0.667  0.167-  68 2.44  32 2.44  30 2.44  34 2.44  65 2.44  56 2.44  69 2.44  29 2.44
                            33 2.44  20 2.44  18 2.44  22 2.44
  32  0.500  0.833  0.000-  29 2.44  31 2.44  33 2.44 103 2.44  30 2.44 102 2.44  34 2.44   7 2.44
                             5 2.44 106 2.44  79 2.44   9 2.44
  33  0.667  0.667  0.000-  36 2.44  35 2.44  34 2.44  32 2.44  24 2.44 106 2.44 107 2.44  22 2.44
                            31 2.44 103 2.44  20 2.44  94 2.44
  34  0.667  0.833  0.167-  35 2.44  69 2.44  72 2.44  33 2.44  36 2.44  31 2.44  11 2.44  45 2.44
                            68 2.44  32 2.44   9 2.44   7 2.44
  35  0.833  0.667  0.167-  34 2.44  69 2.44  72 2.44  33 2.44  36 2.44  26 2.44  22 2.44  60 2.44
                            61 2.44  24 2.44  25 2.44  14 2.44
  36  0.833  0.833  0.000-  33 2.44  34 2.44  35 2.44  25 2.44   9 2.44 106 2.44 107 2.44  26 2.44
                            11 2.44  98 2.44   1 2.44  83 2.44
  37  0.000  0.000  0.333-   2 2.44   3 2.44  11 2.44  26 2.44  40 2.44  39 2.44  38 2.44  48 2.44
                            64 2.44  62 2.44  47 2.44  72 2.44
  38  0.000  0.167  0.500-  49 2.44  51 2.44  59 2.44  85 2.44  40 2.44  39 2.44  37 2.44  76 2.44
                            48 2.44  47 2.44  73 2.44  84 2.44
  39  0.167  0.000  0.500-  41 2.44  42 2.44  66 2.44  77 2.44  40 2.44  38 2.44  37 2.44  76 2.44
                            64 2.44  62 2.44  73 2.44 100 2.44
  40  0.167  0.167  0.333-   6 2.44  15 2.44  53 2.44   3 2.44  41 2.44  42 2.44  49 2.44  51 2.44
                             2 2.44  39 2.44  37 2.44  38 2.44
  41  0.333  0.000  0.333-   3 2.44   7 2.44  39 2.44   6 2.44  40 2.44  30 2.44  64 2.44  43 2.44
                            44 2.44  42 2.44  66 2.44  68 2.44
  42  0.333  0.167  0.500-  51 2.44  39 2.44  55 2.44  53 2.44  40 2.44  76 2.44  89 2.44  44 2.44
                            41 2.44  43 2.44  80 2.44  77 2.44
  43  0.500  0.000  0.500-  41 2.44  42 2.44  44 2.44  45 2.44  46 2.44  66 2.44  68 2.44  77 2.44
                            80 2.44  70 2.44  81 2.44 104 2.44
  44  0.500  0.167  0.333-  19 2.44   7 2.44  55 2.44  53 2.44   6 2.44  10 2.44  57 2.44  41 2.44
                            42 2.44  43 2.44  46 2.44  45 2.44
  45  0.667  0.000  0.333-  11 2.44  47 2.44  48 2.44  72 2.44  10 2.44   7 2.44  34 2.44  46 2.44
                            43 2.44  70 2.44  44 2.44  68 2.44
  46  0.667  0.167  0.500-  59 2.44  47 2.44  48 2.44  84 2.44  57 2.44  55 2.44  93 2.44  45 2.44
                            81 2.44  43 2.44  44 2.44  80 2.44
  47  0.833  0.000  0.500-  45 2.44  46 2.44  70 2.44  81 2.44  48 2.44  72 2.44  84 2.44  38 2.44
                            37 2.44 108 2.44  73 2.44  62 2.44
  48  0.833  0.167  0.333-  10 2.44  57 2.44  23 2.44  46 2.44  45 2.44  11 2.44  59 2.44   2 2.44
                            49 2.44  47 2.44  37 2.44  38 2.44
  49  0.000  0.333  0.333-   2 2.44  14 2.44  38 2.44  15 2.44  40 2.44  23 2.44  48 2.44  50 2.44
                            51 2.44  52 2.44  59 2.44  60 2.44
  50  0.000  0.500  0.500-  49 2.44  51 2.44  52 2.44  59 2.44  60 2.44  61 2.44  63 2.44  85 2.44
                            88 2.44  71 2.44  96 2.44  97 2.44
  51  0.167  0.333  0.500-  42 2.44  38 2.44  54 2.44  53 2.44  40 2.44  76 2.44  89 2.44  50 2.44
                            52 2.44  49 2.44  88 2.44  85 2.44
  52  0.167  0.500  0.333-  18 2.44  14 2.44  54 2.44  53 2.44  15 2.44  27 2.44  65 2.44  49 2.44
                            50 2.44  51 2.44  63 2.44  61 2.44
  53  0.333  0.333  0.333-   6 2.44  15 2.44  40 2.44  19 2.44  18 2.44  42 2.44  44 2.44  51 2.44
                            52 2.44  54 2.44  55 2.44  56 2.44
  54  0.333  0.500  0.500-  51 2.44  52 2.44  63 2.44  88 2.44  53 2.44  55 2.44  56 2.44  65 2.44
                            89 2.44  67 2.44  92 2.44 101 2.44
  55  0.500  0.333  0.500-  42 2.44  44 2.44  46 2.44  80 2.44  53 2.44  56 2.44  54 2.44  57 2.44
                            89 2.44  58 2.44  92 2.44  93 2.44
  56  0.500  0.500  0.333-  18 2.44  19 2.44  22 2.44  31 2.44  53 2.44  54 2.44  55 2.44  57 2.44
                            65 2.44  58 2.44  67 2.44  69 2.44
  57  0.667  0.333  0.333-  23 2.44  48 2.44  10 2.44  59 2.44  60 2.44  46 2.44  22 2.44  19 2.44
                            44 2.44  58 2.44  56 2.44  55 2.44
  58  0.667  0.500  0.500-  59 2.44  60 2.44  71 2.44  96 2.44  57 2.44  93 2.44  69 2.44  56 2.44
                            55 2.44 105 2.44  92 2.44  67 2.44
  59  0.833  0.333  0.500-  46 2.44  58 2.44  57 2.44  93 2.44  48 2.44  38 2.44  84 2.44  60 2.44
                            50 2.44  49 2.44  96 2.44  85 2.44
  60  0.833  0.500  0.333-  22 2.44  58 2.44  57 2.44  69 2.44  23 2.44  14 2.44  35 2.44  59 2.44
                            49 2.44  50 2.44  71 2.44  61 2.44
  61  0.000  0.667  0.333-  26 2.44  62 2.44  64 2.44  72 2.44  27 2.44  14 2.44  35 2.44  63 2.44
                            50 2.44  71 2.44  52 2.44  60 2.44
  62  0.000  0.833  0.500-  61 2.44  63 2.44  71 2.44  97 2.44  64 2.44  72 2.44 100 2.44  39 2.44
                            37 2.44 108 2.44  73 2.44  47 2.44
  63  0.167  0.667  0.500-  66 2.44  62 2.44  64 2.44 100 2.44  65 2.44  54 2.44 101 2.44  61 2.44
                            97 2.44  50 2.44  52 2.44  88 2.44
  64  0.167  0.833  0.333-  27 2.44  65 2.44  30 2.44  63 2.44  61 2.44  26 2.44  66 2.44   3 2.44
                            41 2.44  62 2.44  37 2.44  39 2.44
  65  0.333  0.667  0.333-  30 2.44  64 2.44  27 2.44  66 2.44  68 2.44  63 2.44  31 2.44  18 2.44
                            52 2.44  67 2.44  56 2.44  54 2.44
  66  0.333  0.833  0.500-  63 2.44  67 2.44  65 2.44 101 2.44  64 2.44  39 2.44 100 2.44  68 2.44
                            43 2.44  41 2.44 104 2.44  77 2.44
  67  0.500  0.667  0.500-  66 2.44  68 2.44  70 2.44 104 2.44  65 2.44 101 2.44  69 2.44  56 2.44
                            54 2.44 105 2.44  92 2.44  58 2.44
  68  0.500  0.833  0.333-  31 2.44  67 2.44  65 2.44  69 2.44  30 2.44   7 2.44  34 2.44  66 2.44
                            41 2.44  43 2.44  70 2.44  45 2.44
  69  0.667  0.667  0.333-  72 2.44  35 2.44  34 2.44  71 2.44  70 2.44  68 2.44  60 2.44  31 2.44
                            22 2.44  58 2.44  67 2.44  56 2.44
  70  0.667  0.833  0.500-  71 2.44  69 2.44  72 2.44  67 2.44  47 2.44 105 2.44 108 2.44  68 2.44
                            45 2.44 104 2.44  43 2.44  81 2.44
  71  0.833  0.667  0.500-  70 2.44  69 2.44  72 2.44  62 2.44  58 2.44 105 2.44 108 2.44  60 2.44
                            61 2.44  97 2.44  50 2.44  96 2.44
  72  0.833  0.833  0.333-  69 2.44  35 2.44  34 2.44  70 2.44  71 2.44  61 2.44  45 2.44  26 2.44
                            11 2.44  62 2.44  47 2.44  37 2.44
  73  0.000  0.000  0.667-  74 2.44  75 2.44  83 2.44  98 2.44  76 2.44  84 2.44 100 2.44  39 2.44
                            38 2.44 108 2.44  47 2.44  62 2.44
  74  0.000  0.167  0.833-  85 2.44  73 2.44  76 2.44  84 2.44  87 2.44  13 2.44  95 2.44  75 2.44
                             4 2.44  83 2.44   1 2.44  12 2.44
  75  0.167  0.000  0.833-  77 2.44  73 2.44  76 2.44 100 2.44  78 2.44   5 2.44 102 2.44  74 2.44
                            98 2.44   1 2.44   4 2.44  28 2.44
  76  0.167  0.167  0.667-  78 2.44  87 2.44  89 2.44  75 2.44  74 2.44  77 2.44  85 2.44  51 2.44
                            42 2.44  73 2.44  38 2.44  39 2.44
  77  0.333  0.000  0.667-  75 2.44  79 2.44  78 2.44 102 2.44  76 2.44  39 2.44 100 2.44  80 2.44
                            43 2.44  42 2.44 104 2.44  66 2.44
  78  0.333  0.167  0.833-  76 2.44  89 2.44  87 2.44  77 2.44  80 2.44  75 2.44  91 2.44  17 2.44
                             4 2.44  79 2.44   8 2.44   5 2.44
  79  0.500  0.000  0.833-  77 2.44  80 2.44  81 2.44 104 2.44  78 2.44 102 2.44  82 2.44   8 2.44
                             5 2.44 106 2.44   9 2.44  32 2.44
  80  0.500  0.167  0.667-  91 2.44  79 2.44  78 2.44  82 2.44  89 2.44  55 2.44  93 2.44  77 2.44
                            43 2.44  81 2.44  42 2.44  46 2.44
  81  0.667  0.000  0.667-  83 2.44  82 2.44  84 2.44  79 2.44  47 2.44 106 2.44 108 2.44  80 2.44
                            46 2.44 104 2.44  70 2.44  43 2.44
  82  0.667  0.167  0.833-  84 2.44  93 2.44  95 2.44  83 2.44  81 2.44  80 2.44  12 2.44  21 2.44
                            91 2.44  79 2.44   9 2.44   8 2.44
  83  0.833  0.000  0.833-  81 2.44  82 2.44  84 2.44  73 2.44   9 2.44 106 2.44 108 2.44  74 2.44
                            12 2.44  98 2.44  36 2.44   1 2.44
  84  0.833  0.167  0.667-  82 2.44  93 2.44  95 2.44  81 2.44  83 2.44  74 2.44  46 2.44  59 2.44
                            85 2.44  73 2.44  47 2.44  38 2.44
  85  0.000  0.333  0.667-  74 2.44  86 2.44  87 2.44  95 2.44  76 2.44  38 2.44  84 2.44  88 2.44
                            51 2.44  50 2.44  96 2.44  59 2.44
  86  0.000  0.500  0.833-  85 2.44  88 2.44  96 2.44  97 2.44  87 2.44  95 2.44  99 2.44  16 2.44
                            13 2.44 107 2.44  24 2.44  25 2.44
  87  0.167  0.333  0.833-  76 2.44  89 2.44  78 2.44  88 2.44  85 2.44  74 2.44  90 2.44  17 2.44
                             4 2.44  86 2.44  16 2.44  13 2.44
  88  0.167  0.500  0.667-  90 2.44  86 2.44  87 2.44  99 2.44  89 2.44  54 2.44 101 2.44  85 2.44
                            97 2.44  50 2.44  51 2.44  63 2.44
  89  0.333  0.333  0.667-  78 2.44  87 2.44  76 2.44  90 2.44  91 2.44  80 2.44  88 2.44  51 2.44
                            42 2.44  92 2.44  54 2.44  55 2.44
  90  0.333  0.500  0.833-  88 2.44  92 2.44  89 2.44 101 2.44  87 2.44  16 2.44  99 2.44  91 2.44
                            20 2.44  17 2.44 103 2.44  29 2.44
  91  0.500  0.333  0.833-  80 2.44  92 2.44  89 2.44  93 2.44  78 2.44   8 2.44  82 2.44  90 2.44
                            20 2.44  17 2.44  94 2.44  21 2.44
  92  0.500  0.500  0.667-  90 2.44  91 2.44  94 2.44 103 2.44  89 2.44 101 2.44  93 2.44  55 2.44
                            54 2.44 105 2.44  58 2.44  67 2.44
  93  0.667  0.333  0.667-  95 2.44  84 2.44  82 2.44  94 2.44  96 2.44  91 2.44  59 2.44  46 2.44
                            80 2.44  92 2.44  58 2.44  55 2.44
  94  0.667  0.500  0.833-  96 2.44  95 2.44  93 2.44  92 2.44  24 2.44 105 2.44 107 2.44  21 2.44
                            91 2.44 103 2.44  33 2.44  20 2.44
  95  0.833  0.333  0.833-  93 2.44  84 2.44  82 2.44  94 2.44  96 2.44  85 2.44  21 2.44  12 2.44
                            74 2.44  86 2.44  24 2.44  13 2.44
  96  0.833  0.500  0.667-  94 2.44  93 2.44  95 2.44  86 2.44  58 2.44 105 2.44 107 2.44  59 2.44
                            85 2.44  97 2.44  71 2.44  50 2.44
  97  0.000  0.667  0.667-  98 2.44  99 2.44 100 2.44  86 2.44  62 2.44 107 2.44 108 2.44  88 2.44
                            63 2.44  96 2.44  50 2.44  71 2.44
  98  0.000  0.833  0.833-  97 2.44  99 2.44 100 2.44  73 2.44  25 2.44 107 2.44 108 2.44  75 2.44
                            28 2.44  83 2.44   1 2.44  36 2.44
  99  0.167  0.667  0.833- 100 2.44 101 2.44 102 2.44  98 2.44  97 2.44  88 2.44  28 2.44  90 2.44
                            29 2.44  86 2.44  25 2.44  16 2.44
 100  0.167  0.833  0.667-  99 2.44 101 2.44 102 2.44  98 2.44  97 2.44  75 2.44  63 2.44  77 2.44
                            66 2.44  73 2.44  62 2.44  39 2.44
 101  0.333  0.667  0.667- 102 2.44 100 2.44  99 2.44 103 2.44 104 2.44  90 2.44  66 2.44  63 2.44
                            88 2.44  92 2.44  67 2.44  54 2.44
 102  0.333  0.833  0.833- 101 2.44 100 2.44  99 2.44 103 2.44 104 2.44  77 2.44  29 2.44  28 2.44
                            75 2.44  79 2.44  32 2.44   5 2.44
 103  0.500  0.667  0.833- 104 2.44 102 2.44 101 2.44  92 2.44  32 2.44 105 2.44 106 2.44  29 2.44
                            90 2.44  94 2.44  20 2.44  33 2.44
 104  0.500  0.833  0.667- 103 2.44 102 2.44 101 2.44  79 2.44  67 2.44 105 2.44 106 2.44  66 2.44
                            77 2.44  81 2.44  43 2.44  70 2.44
 105  0.667  0.667  0.667- 106 2.44 107 2.44 108 2.44  96 2.44 103 2.44 104 2.44  70 2.44  71 2.44
                            94 2.44  67 2.44  92 2.44  58 2.44
 106  0.667  0.833  0.833- 105 2.44 107 2.44 108 2.44  83 2.44 103 2.44 104 2.44  33 2.44  36 2.44
                            81 2.44  32 2.44  79 2.44   9 2.44
 107  0.833  0.667  0.833- 105 2.44 106 2.44 108 2.44  96 2.44  97 2.44  98 2.44  33 2.44  36 2.44
                            94 2.44  25 2.44  86 2.44  24 2.44
 108  0.833  0.833  0.667- 105 2.44 106 2.44 107 2.44  83 2.44  97 2.44  98 2.44  70 2.44  71 2.44
                            81 2.44  62 2.44  73 2.44  47 2.44
 
  LATTYP: Found a simple cubic cell.
 ALAT       =    10.3348470474
  
  Lattice vectors:
  
 A1 = (  10.3348470474,   0.0000000000,   0.0000000000)
 A2 = (   0.0000000000,  10.3348470474,   0.0000000000)
 A3 = (   0.0000000000,   0.0000000000,  10.3348470474)


Analysis of symmetry for initial positions (statically):
=====================================================================
 Subroutine PRICEL returns following result:
 
  LATTYP: Found a simple cubic cell.
 ALAT       =     3.4449252899
  
  Lattice vectors:
  
 A1 = (   3.4449252899,   0.0000000000,   0.0000000000)
 A2 = (   0.0000000000,   3.4449252899,   0.0000000000)
 A3 = (   0.0000000000,   0.0000000000,   3.4449252443)
 
  27 primitive cells build up your supercell.
 

 Routine SETGRP: Setting up the symmetry group for a 
 simple cubic supercell.


 Subroutine GETGRP returns: Found 48 space group operations
 (whereof 48 operations were pure point group operations)
 out of a pool of 48 trial point group operations.


The static configuration has the point symmetry O_h .


Analysis of symmetry for dynamics (positions and initial velocities):
=====================================================================
 Subroutine PRICEL returns following result:
 
  LATTYP: Found a simple cubic cell.
 ALAT       =     3.4449252899
  
  Lattice vectors:
  
 A1 = (   3.4449252899,   0.0000000000,   0.0000000000)
 A2 = (   0.0000000000,   3.4449252899,   0.0000000000)
 A3 = (   0.0000000000,   0.0000000000,   3.4449252443)
 
  27 primitive cells build up your supercell.
 

 Routine SETGRP: Setting up the symmetry group for a 
 simple cubic supercell.


 Subroutine GETGRP returns: Found 48 space group operations
 (whereof 48 operations were pure point group operations)
 out of a pool of 48 trial point group operations.


The dynamic configuration has the point symmetry O_h .


 Subroutine INISYM returns: Found 48 space group operations
 (whereof 48 operations are pure point group operations),
 and found    27 'primitive' translations

 
 
 KPOINTS: pymatgen generated KPOINTS with grid den

Automatic generation of k-mesh.
Space group operators:
 irot       det(A)        alpha          n_x          n_y          n_z        tau_x        tau_y        tau_z
    1     1.000000     0.000000     1.000000     0.000000     0.000000     0.000000     0.000000     0.000000
    2    -1.000000     0.000000     1.000000     0.000000     0.000000     0.000000     0.000000     0.000000
    3     1.000000   120.000000    -0.577350    -0.577350    -0.577350     0.000000     0.000000     0.000000
    4    -1.000000   120.000000    -0.577350    -0.577350    -0.577350     0.000000     0.000000     0.000000
    5     1.000000   120.000000     0.577350     0.577350     0.577350     0.000000     0.000000     0.000000
    6    -1.000000   120.000000     0.577350     0.577350     0.577350     0.000000     0.000000     0.000000
    7     1.000000    90.000000     0.000000     0.000000    -1.000000     0.000000     0.000000     0.000000
    8    -1.000000    90.000000     0.000000     0.000000    -1.000000     0.000000     0.000000     0.000000
    9     1.000000   180.000000     0.000000     0.707107     0.707107     0.000000     0.000000     0.000000
   10    -1.000000   180.000000     0.000000     0.707107     0.707107     0.000000     0.000000     0.000000
   11     1.000000    90.000000     0.000000     1.000000     0.000000     0.000000     0.000000     0.000000
   12    -1.000000    90.000000     0.000000     1.000000     0.000000     0.000000     0.000000     0.000000
   13     1.000000   180.000000     0.000000     0.000000     1.000000     0.000000     0.000000     0.000000
   14    -1.000000   180.000000     0.000000     0.000000     1.000000     0.000000     0.000000     0.000000
   15     1.000000   120.000000    -0.577350     0.577350     0.577350     0.000000     0.000000     0.000000
   16    -1.000000   120.000000    -0.577350     0.577350     0.577350     0.000000     0.000000     0.000000
   17     1.000000   120.000000    -0.577350     0.577350    -0.577350     0.000000     0.000000     0.000000
   18    -1.000000   120.000000    -0.577350     0.577350    -0.577350     0.000000     0.000000     0.000000
   19     1.000000    90.000000     0.000000     0.000000     1.000000     0.000000     0.000000     0.000000
   20    -1.000000    90.000000     0.000000     0.000000     1.000000     0.000000     0.000000     0.000000
   21     1.000000    90.000000    -1.000000     0.000000     0.000000     0.000000     0.000000     0.000000
   22    -1.000000    90.000000    -1.000000     0.000000     0.000000     0.000000     0.000000     0.000000
   23     1.000000   180.000000     0.707107     0.000000     0.707107     0.000000     0.000000     0.000000
   24    -1.000000   180.000000     0.707107     0.000000     0.707107     0.000000     0.000000     0.000000
   25     1.000000   120.000000     0.577350    -0.577350     0.577350     0.000000     0.000000     0.000000
   26    -1.000000   120.000000     0.577350    -0.577350     0.577350     0.000000     0.000000     0.000000
   27     1.000000   120.000000    -0.577350    -0.577350     0.577350     0.000000     0.000000     0.000000
   28    -1.000000   120.000000    -0.577350    -0.577350     0.577350     0.000000     0.000000     0.000000
   29     1.000000   180.000000     1.000000     0.000000     0.000000     0.000000     0.000000     0.000000
   30    -1.000000   180.000000     1.000000     0.000000     0.000000     0.000000     0.000000     0.000000
   31     1.000000    90.000000     0.000000    -1.000000     0.000000     0.000000     0.000000     0.000000
   32    -1.000000    90.000000     0.000000    -1.000000     0.000000     0.000000     0.000000     0.000000
   33     1.000000   180.000000     0.707107     0.707107     0.000000     0.000000     0.000000     0.000000
   34    -1.000000   180.000000     0.707107     0.707107     0.000000     0.000000     0.000000     0.000000
   35     1.000000    90.000000     1.000000     0.000000     0.000000     0.000000     0.000000     0.000000
   36    -1.000000    90.000000     1.000000     0.000000     0.000000     0.000000     0.000000     0.000000
   37     1.000000   120.000000     0.577350    -0.577350    -0.577350     0.000000     0.000000     0.000000
   38    -1.000000   120.000000     0.577350    -0.577350    -0.577350     0.000000     0.000000     0.000000
   39     1.000000   180.000000     0.000000     1.000000     0.000000     0.000000     0.000000     0.000000
   40    -1.000000   180.000000     0.000000     1.000000     0.000000     0.000000     0.000000     0.000000
   41     1.000000   120.000000     0.577350     0.577350    -0.577350     0.000000     0.000000     0.000000
   42    -1.000000   120.000000     0.577350     0.577350    -0.577350     0.000000     0.000000     0.000000
   43     1.000000   180.000000     0.000000    -0.707107     0.707107     0.000000     0.000000     0.000000
   44    -1.000000   180.000000     0.000000    -0.707107     0.707107     0.000000     0.000000     0.000000
   45     1.000000   180.000000     0.707107    -0.707107     0.000000     0.000000     0.000000     0.000000
   46    -1.000000   180.000000     0.707107    -0.707107     0.000000     0.000000     0.000000     0.000000
   47     1.000000   180.000000     0.707107     0.000000    -0.707107     0.000000     0.000000     0.000000
   48    -1.000000   180.000000     0.707107     0.000000    -0.707107     0.000000     0.000000     0.000000
 
 Subroutine IBZKPT returns following result:
 ===========================================
 
 Found      4 irreducible k-points:
 
 Following reciprocal coordinates:
            Coordinates               Weight
  0.125000  0.125000  0.125000      8.000000
  0.375000  0.125000  0.125000     24.000000
  0.375000  0.375000  0.125000     24.000000
  0.375000  0.375000  0.375000      8.000000
 
 Following cartesian coordinates:
            Coordinates               Weight
  0.012095  0.012095  0.012095      8.000000
  0.036285  0.012095  0.012095     24.000000
  0.036285  0.036285  0.012095     24.000000
  0.036285  0.036285  0.036285      8.000000
 


--------------------------------------------------------------------------------------------------------




 Dimension of arrays:
   k-points           NKPTS =      4   k-points in BZ     NKDIM =      4   number of bands    NBANDS=    518
   number of dos      NEDOS =    301   number of ions     NIONS =    108
   non local maximal  LDIM  =      6   non local SUM 2l+1 LMDIM =     18
   total plane-waves  NPLWV = 373248
   max r-space proj   IRMAX =   5990   max aug-charges    IRDMAX=  12243
   dimension x,y,z NGX =    72 NGY =   72 NGZ =   72
   dimension x,y,z NGXF=   144 NGYF=  144 NGZF=  144
   support grid    NGXF=   144 NGYF=  144 NGZF=  144
   ions per type =             108
   NGX,Y,Z   is equivalent  to a cutoff of  11.58, 11.58, 11.58 a.u.
   NGXF,Y,Z  is equivalent  to a cutoff of  23.16, 23.16, 23.16 a.u.

 Based on PREC, I would recommend the following setting:
   dimension x,y,z NGX =    48 NGY =   48 NGZ =   48

 SYSTEM =  Opt                                     
 POSCAR =  fcc_Fe_CON_333                          

 Startparameter for this run:
   NWRITE =      2    write-flag & timer
   PREC   = normal    normal or accurate (medium, high low for compatibility)
   ISTART =      0    job   : 0-new  1-cont  2-samecut
   ICHARG =      2    charge: 1-file 2-atom 10-const
   ISPIN  =      1    spin polarized calculation?
   LNONCOLLINEAR =      F non collinear calculations
   LSORBIT =      F    spin-orbit coupling
   INIWAV =      1    electr: 0-lowe 1-rand  2-diag
   LASPH  =      F    aspherical Exc in radial PAW
   METAGGA=      F    non-selfconsistent MetaGGA calc.

 Electronic Relaxation 1
   ENCUT  =  350.0 eV  25.72 Ry    5.07 a.u.  15.77 15.77 15.77*2*pi/ulx,y,z
   ENINI  =  350.0     initial cutoff
   ENAUG  =  511.4 eV  augmentation charge cutoff
   NELM   =    400;   NELMIN=  2; NELMDL= -5     # of ELM steps 
   EDIFF  = 0.1E-05   stopping-criterion for ELM
   LREAL  =      T    real-space projection
   NLSPLINE    = F    spline interpolate recip. space projectors
   LCOMPAT=      F    compatible to vasp.4.4
   GGA_COMPAT  = T    GGA compatible to vasp.4.4-vasp.4.6
   LMAXPAW     = -100 max onsite density
   LMAXMIX     =    2 max onsite mixed and CHGCAR
   VOSKOWN=      0    Vosko Wilk Nusair interpolation
   ROPT   =   -0.00050
 Ionic relaxation
   EDIFFG = -.1E-01   stopping-criterion for IOM
   NSW    =    100    number of steps for IOM
   NBLOCK =      1;   KBLOCK =    100    inner block; outer block 
   IBRION =      2    ionic relax: 0-MD 1-quasi-New 2-CG
   NFREE  =      1    steps in history (QN), initial steepest desc. (CG)
   ISIF   =      3    stress and relaxation
   IWAVPR =     11    prediction:  0-non 1-charg 2-wave 3-comb
   ISYM   =      2    0-nonsym 1-usesym 2-fastsym
   LCORR  =      T    Harris-Foulkes like correction to forces

   POTIM  = 0.5000    time-step for ionic-motion
   TEIN   =    0.0    initial temperature
   TEBEG  =    0.0;   TEEND  =   0.0 temperature during run
   SMASS  =  -3.00    Nose mass-parameter (am)
   estimated Nose-frequenzy (Omega)   =  0.10E-29 period in steps =****** mass=  -0.244E-26a.u.
   SCALEE = 1.0000    scale energy and forces
   NPACO  =    256;   APACO  = 16.0  distance and # of slots for P.C.
   PSTRESS=    0.0 pullay stress

  Mass of Ions in am
   POMASS =  55.85
  Ionic Valenz
   ZVAL   =   8.00
  Atomic Wigner-Seitz radii
   RWIGS  =  -1.00
  virtual crystal weights 
   VCA    =   1.00
   NELECT =     864.0000    total number of electrons
   NUPDOWN=      -1.0000    fix difference up-down

 DOS related values:
   EMIN   =  10.00;   EMAX   =-10.00  energy-range for DOS
   EFERMI =   0.00
   ISMEAR =     1;   SIGMA  =   0.20  broadening in eV -4-tet -1-fermi 0-gaus

 Electronic relaxation 2 (details)
   IALGO  =     68    algorithm
   LDIAG  =      T    sub-space diagonalisation (order eigenvalues)
   LSUBROT=      F    optimize rotation matrix (better conditioning)
   TURBO    =      0    0=normal 1=particle mesh
   IRESTART =      0    0=no restart 2=restart with 2 vectors
   NREBOOT  =      0    no. of reboots
   NMIN     =      0    reboot dimension
   EREF     =   0.00    reference energy to select bands
   IMIX   =      4    mixing-type and parameters
     AMIX     =   0.40;   BMIX     =  1.00
     AMIX_MAG =   1.60;   BMIX_MAG =  1.00
     AMIN     =   0.10
     WC   =   100.;   INIMIX=   1;  MIXPRE=   1;  MAXMIX= -45

 Intra band minimization:
   WEIMIN = 0.0010     energy-eigenvalue tresh-hold
   EBREAK =  0.48E-09  absolut break condition
   DEPER  =   0.30     relativ break condition  

   TIME   =   0.40     timestep for ELM

  volume/ion in A,a.u.               =      10.22        68.97
  Fermi-wavevector in a.u.,A,eV,Ry     =   1.508720  2.851068 30.970078  2.276236
  Thomas-Fermi vector in A             =   2.619137
 
 Write flags
   LWAVE        =      F    write WAVECAR
   LDOWNSAMPLE  =      F    k-point downsampling of WAVECAR
   LCHARG       =      F    write CHGCAR
   LVTOT        =      F    write LOCPOT, total local potential
   LVHAR        =      F    write LOCPOT, Hartree potential only
   LELF         =      F    write electronic localiz. function (ELF)
   LORBIT       =      0    0 simple, 1 ext, 2 COOP (PROOUT), +10 PAW based schemes


 Dipole corrections
   LMONO  =      F    monopole corrections only (constant potential shift)
   LDIPOL =      F    correct potential (dipole corrections)
   IDIPOL =      0    1-x, 2-y, 3-z, 4-all directions 
   EPSILON=  1.0000000 bulk dielectric constant

 Exchange correlation treatment:
   GGA     =    --    GGA type
   LEXCH   =     8    internal setting for exchange type
   VOSKOWN=      0    Vosko Wilk Nusair interpolation
   LHFCALC =     F    Hartree Fock is set to
   LHFONE  =     F    Hartree Fock one center treatment
   AEXX    =    0.0000 exact exchange contribution

 Linear response parameters
   LEPSILON=     F    determine dielectric tensor
   LRPA    =     F    only Hartree local field effects (RPA)
   LNABLA  =     F    use nabla operator in PAW spheres
   LVEL    =     F    velocity operator in full k-point grid
   LINTERFAST=   F  fast interpolation
   KINTER  =     0    interpolate to denser k-point grid
   CSHIFT  =0.1000    complex shift for real part using Kramers Kronig
   OMEGAMAX=  -1.0    maximum frequency
   DEG_THRESHOLD= 0.2000000E-02 threshold for treating states as degnerate
   RTIME   =   -0.100 relaxation time in fs
  (WPLASMAI=    0.000 imaginary part of plasma frequency in eV, 0.658/RTIME)
   DFIELD  = 0.0000000 0.0000000 0.0000000 field for delta impulse in time
 
 Orbital magnetization related:
   ORBITALMAG=     F  switch on orbital magnetization
   LCHIMAG   =     F  perturbation theory with respect to B field
   DQ        =  0.001000  dq finite difference perturbation B field
   LLRAUG    =     F  two centre corrections for induced B field



--------------------------------------------------------------------------------------------------------


 conjugate gradient relaxation of ions
 charge density and potential will be updated during run
 non-spin polarized calculation
 RMM-DIIS sequential band-by-band and
  variant of blocked Davidson during initial phase
 perform sub-space diagonalisation
    before iterative eigenvector-optimisation
 modified Broyden-mixing scheme, WC =      100.0
 initial mixing is a Kerker type mixing with AMIX =  0.4000 and BMIX =      1.0000
 Hartree-type preconditioning will be used
 using additional bands           86
 real space projection scheme for non local part
 use partial core corrections
 calculate Harris-corrections to forces 
   (improved forces if not selfconsistent)
 use gradient corrections 
 use of overlap-Matrix (Vanderbilt PP)
 Methfessel and Paxton  Order N= 1 SIGMA  =   0.20


--------------------------------------------------------------------------------------------------------


  energy-cutoff  :      350.00
  volume of cell :     1103.86
      direct lattice vectors                 reciprocal lattice vectors
    10.334847047  0.000000000  0.000000000     0.096760019  0.000000000  0.000000000
     0.000000000 10.334847047  0.000000000     0.000000000  0.096760019  0.000000000
     0.000000000  0.000000000 10.334847047     0.000000000  0.000000000  0.096760019

  length of vectors
    10.334847047 10.334847047 10.334847047     0.096760019  0.096760019  0.096760019


 
 k-points in units of 2pi/SCALE and weight: pymatgen generated KPOINTS with grid den
   0.01209500  0.01209500  0.01209500       0.125
   0.03628501  0.01209500  0.01209500       0.375
   0.03628501  0.03628501  0.01209500       0.375
   0.03628501  0.03628501  0.03628501       0.125
 
 k-points in reciprocal lattice and weights: pymatgen generated KPOINTS with grid den
   0.12500000  0.12500000  0.12500000       0.125
   0.37500000  0.12500000  0.12500000       0.375
   0.37500000  0.37500000  0.12500000       0.375
   0.37500000  0.37500000  0.37500000       0.125
 
 position of ions in fractional coordinates (direct lattice) 
   0.00000000  0.00000000  0.00000000
   0.00000000  0.16666893  0.16666893
   0.16666893  0.00000000  0.16666893
   0.16666893  0.16666893  0.00000000
   0.33333106  0.00000000  0.00000000
   0.33333107  0.16666893  0.16666893
   0.50000000  0.00000000  0.16666894
   0.50000000  0.16666894  0.00000000
   0.66666897  0.00000000  0.00000000
   0.66666896  0.16666893  0.16666893
   0.83333104  0.00000000  0.16666893
   0.83333104  0.16666893  0.00000000
   0.00000000  0.33333106  0.00000000
   0.00000000  0.50000000  0.16666894
   0.16666893  0.33333107  0.16666893
   0.16666894  0.50000000  0.00000000
   0.33333107  0.33333107  0.00000000
   0.33333107  0.50000000  0.16666893
   0.50000000  0.33333107  0.16666893
   0.50000000  0.50000000  0.00000000
   0.66666896  0.33333107  0.00000000
   0.66666896  0.50000000  0.16666893
   0.83333104  0.33333107  0.16666893
   0.83333103  0.50000000  0.00000000
   0.00000000  0.66666897  0.00000000
   0.00000000  0.83333104  0.16666893
   0.16666893  0.66666896  0.16666893
   0.16666893  0.83333104  0.00000000
   0.33333107  0.66666896  0.00000000
   0.33333107  0.83333104  0.16666893
   0.50000000  0.66666896  0.16666893
   0.50000000  0.83333103  0.00000000
   0.66666896  0.66666896  0.00000000
   0.66666896  0.83333104  0.16666893
   0.83333104  0.66666896  0.16666893
   0.83333104  0.83333104  0.00000000
   0.00000000  0.00000000  0.33333106
   0.00000000  0.16666894  0.50000000
   0.16666894  0.00000000  0.50000000
   0.16666893  0.16666893  0.33333107
   0.33333107  0.00000000  0.33333107
   0.33333107  0.16666893  0.50000000
   0.50000000  0.00000000  0.50000000
   0.50000000  0.16666893  0.33333107
   0.66666896  0.00000000  0.33333107
   0.66666896  0.16666893  0.50000000
   0.83333103  0.00000000  0.50000000
   0.83333104  0.16666893  0.33333107
   0.00000000  0.33333107  0.33333107
   0.00000000  0.50000000  0.50000000
   0.16666893  0.33333107  0.50000000
   0.16666893  0.50000000  0.33333107
   0.33333107  0.33333107  0.33333107
   0.33333106  0.50000000  0.50000000
   0.50000000  0.33333106  0.50000000
   0.50000000  0.50000000  0.33333106
   0.66666896  0.33333107  0.33333107
   0.66666897  0.50000000  0.50000000
   0.83333104  0.33333107  0.50000000
   0.83333104  0.50000000  0.33333107
   0.00000000  0.66666896  0.33333107
   0.00000000  0.83333103  0.50000000
   0.16666893  0.66666896  0.50000000
   0.16666893  0.83333104  0.33333107
   0.33333107  0.66666896  0.33333107
   0.33333107  0.83333104  0.50000000
   0.50000000  0.66666897  0.50000000
   0.50000000  0.83333104  0.33333107
   0.66666896  0.66666896  0.33333107
   0.66666896  0.83333104  0.50000000
   0.83333104  0.66666896  0.50000000
   0.83333104  0.83333104  0.33333107
   0.00000000  0.00000000  0.66666897
   0.00000000  0.16666893  0.83333104
   0.16666893  0.00000000  0.83333104
   0.16666893  0.16666893  0.66666896
   0.33333107  0.00000000  0.66666896
   0.33333107  0.16666893  0.83333104
   0.50000000  0.00000000  0.83333103
   0.50000000  0.16666893  0.66666896
   0.66666896  0.00000000  0.66666896
   0.66666896  0.16666893  0.83333104
   0.83333104  0.00000000  0.83333104
   0.83333104  0.16666893  0.66666896
   0.00000000  0.33333107  0.66666896
   0.00000000  0.50000000  0.83333103
   0.16666893  0.33333107  0.83333104
   0.16666893  0.50000000  0.66666896
   0.33333107  0.33333107  0.66666896
   0.33333107  0.50000000  0.83333104
   0.50000000  0.33333107  0.83333104
   0.50000000  0.50000000  0.66666897
   0.66666896  0.33333107  0.66666896
   0.66666896  0.50000000  0.83333104
   0.83333104  0.33333107  0.83333104
   0.83333104  0.50000000  0.66666896
   0.00000000  0.66666896  0.66666896
   0.00000000  0.83333104  0.83333104
   0.16666893  0.66666896  0.83333104
   0.16666893  0.83333104  0.66666896
   0.33333107  0.66666896  0.66666896
   0.33333107  0.83333104  0.83333104
   0.50000000  0.66666896  0.83333104
   0.50000000  0.83333104  0.66666896
   0.66666896  0.66666896  0.66666896
   0.66666896  0.83333104  0.83333104
   0.83333104  0.66666896  0.83333104
   0.83333104  0.83333104  0.66666896
 
 position of ions in cartesian coordinates  (Angst):
   0.00000000  0.00000000  0.00000000
   0.00000000  1.72249793  1.72249793
   1.72249793  0.00000000  1.72249793
   1.72249793  1.72249793  0.00000000
   3.44492554  0.00000000  0.00000000
   3.44492559  1.72249794  1.72249794
   5.16742352  0.00000000  1.72249798
   5.16742352  1.72249798  0.00000000
   6.88992180  0.00000000  0.00000000
   6.88992176  1.72249794  1.72249794
   8.61234881  0.00000000  1.72249793
   8.61234881  1.72249793  0.00000000
   0.00000000  3.44492554  0.00000000
   0.00000000  5.16742352  1.72249798
   1.72249794  3.44492559  1.72249794
   1.72249798  5.16742352  0.00000000
   3.44492559  3.44492559  0.00000000
   3.44492559  5.16742352  1.72249793
   5.16742352  3.44492559  1.72249793
   5.16742352  5.16742352  0.00000000
   6.88992176  3.44492559  0.00000000
   6.88992176  5.16742352  1.72249793
   8.61234881  3.44492559  1.72249794
   8.61234877  5.16742352  0.00000000
   0.00000000  6.88992180  0.00000000
   0.00000000  8.61234881  1.72249793
   1.72249794  6.88992176  1.72249794
   1.72249793  8.61234881  0.00000000
   3.44492559  6.88992176  0.00000000
   3.44492559  8.61234881  1.72249794
   5.16742352  6.88992176  1.72249793
   5.16742352  8.61234877  0.00000000
   6.88992176  6.88992176  0.00000000
   6.88992176  8.61234881  1.72249794
   8.61234881  6.88992176  1.72249794
   8.61234881  8.61234881  0.00000000
   0.00000000  0.00000000  3.44492554
   0.00000000  1.72249798  5.16742352
   1.72249798  0.00000000  5.16742352
   1.72249794  1.72249794  3.44492559
   3.44492559  0.00000000  3.44492559
   3.44492559  1.72249793  5.16742352
   5.16742352  0.00000000  5.16742352
   5.16742352  1.72249793  3.44492559
   6.88992176  0.00000000  3.44492559
   6.88992176  1.72249793  5.16742352
   8.61234877  0.00000000  5.16742352
   8.61234881  1.72249794  3.44492559
   0.00000000  3.44492559  3.44492559
   0.00000000  5.16742352  5.16742352
   1.72249793  3.44492559  5.16742352
   1.72249793  5.16742352  3.44492559
   3.44492559  3.44492559  3.44492559
   3.44492554  5.16742352  5.16742352
   5.16742352  3.44492554  5.16742352
   5.16742352  5.16742352  3.44492554
   6.88992176  3.44492559  3.44492559
   6.88992180  5.16742352  5.16742352
   8.61234881  3.44492559  5.16742352
   8.61234881  5.16742352  3.44492559
   0.00000000  6.88992176  3.44492559
   0.00000000  8.61234877  5.16742352
   1.72249793  6.88992176  5.16742352
   1.72249794  8.61234881  3.44492559
   3.44492559  6.88992176  3.44492559
   3.44492559  8.61234881  5.16742352
   5.16742352  6.88992180  5.16742352
   5.16742352  8.61234881  3.44492559
   6.88992176  6.88992176  3.44492559
   6.88992176  8.61234881  5.16742352
   8.61234881  6.88992176  5.16742352
   8.61234881  8.61234881  3.44492559
   0.00000000  0.00000000  6.88992180
   0.00000000  1.72249793  8.61234881
   1.72249793  0.00000000  8.61234881
   1.72249794  1.72249794  6.88992176
   3.44492559  0.00000000  6.88992176
   3.44492559  1.72249794  8.61234881
   5.16742352  0.00000000  8.61234877
   5.16742352  1.72249793  6.88992176
   6.88992176  0.00000000  6.88992176
   6.88992176  1.72249794  8.61234881
   8.61234881  0.00000000  8.61234881
   8.61234881  1.72249794  6.88992176
   0.00000000  3.44492559  6.88992176
   0.00000000  5.16742352  8.61234877
   1.72249794  3.44492559  8.61234881
   1.72249793  5.16742352  6.88992176
   3.44492559  3.44492559  6.88992176
   3.44492559  5.16742352  8.61234881
   5.16742352  3.44492559  8.61234881
   5.16742352  5.16742352  6.88992180
   6.88992176  3.44492559  6.88992176
   6.88992176  5.16742352  8.61234881
   8.61234881  3.44492559  8.61234881
   8.61234881  5.16742352  6.88992176
   0.00000000  6.88992176  6.88992176
   0.00000000  8.61234881  8.61234881
   1.72249794  6.88992176  8.61234881
   1.72249794  8.61234881  6.88992176
   3.44492559  6.88992176  6.88992176
   3.44492559  8.61234881  8.61234881
   5.16742352  6.88992176  8.61234881
   5.16742352  8.61234881  6.88992176
   6.88992176  6.88992176  6.88992176
   6.88992176  8.61234881  8.61234881
   8.61234881  6.88992176  8.61234881
   8.61234881  8.61234881  6.88992176
 


--------------------------------------------------------------------------------------------------------


 k-point  1 :   0.1250 0.1250 0.1250  plane waves:   16437
 k-point  2 :   0.3750 0.1250 0.1250  plane waves:   16419
 k-point  3 :   0.3750 0.3750 0.1250  plane waves:   16411
 k-point  4 :   0.3750 0.3750 0.3750  plane waves:   16425

 maximum and minimum number of plane-waves per node :      4142     4087

 maximum number of plane-waves:     16437
 maximum index in each direction: 
   IXMAX=   15   IYMAX=   15   IZMAX=   15
   IXMIN=  -16   IYMIN=  -16   IZMIN=  -16


 real space projection operators:
  total allocation   :      87221.81 KBytes
  max/ min on nodes  :      21839.62      21778.88


 parallel 3D FFT for wavefunctions:
    minimum data exchange during FFTs selected (reduces bandwidth)
 parallel 3D FFT for charge:
    minimum data exchange during FFTs selected (reduces bandwidth)


 total amount of memory used by VASP MPI-rank0   182114. kBytes
=======================================================================

   base      :      30000. kBytes
   nonlr-proj:      37732. kBytes
   fftplans  :      15415. kBytes
   grid      :      21835. kBytes
   one-center:        419. kBytes
   wavefun   :      76713. kBytes
 
     INWAV:  cpu time    0.0000: real time    0.0001
 Broyden mixing: mesh for mixing (old mesh)
   NGX = 31   NGY = 31   NGZ = 31
  (NGX  =144   NGY  =144   NGZ  =144)
  gives a total of  29791 points

 initial charge density was supplied:
 charge density of overlapping atoms calculated
 number of electron     864.0000000 magnetization 
 keeping initial charge density in first step


--------------------------------------------------------------------------------------------------------


 Maximum index for non-local projection operator         1437
 Maximum index for augmentation-charges         1463 (set IRDMAX)


--------------------------------------------------------------------------------------------------------


 First call to EWALD:  gamma=   0.172
 Maximum number of real-space cells 3x 3x 3
 Maximum number of reciprocal cells 3x 3x 3

    FEWALD:  cpu time    0.0112: real time    0.0112


--------------------------------------- Iteration      1(   1)  ---------------------------------------


    POTLOK:  cpu time    0.2830: real time    0.2848
    SETDIJ:  cpu time    0.0515: real time    0.0515
     EDDAV:  cpu time   40.9609: real time   41.0107
       DOS:  cpu time    0.0042: real time    0.0042
    --------------------------------------------
      LOOP:  cpu time   41.2996: real time   41.3513

 eigenvalue-minimisations  :  4160
 total energy-change (2. order) : 0.7051807E+04  (-0.2640900E+05)
 number of electron     864.0000000 magnetization 
 augmentation part      864.0000000 magnetization 

 Free energy of the ion-electron system (eV)
  ---------------------------------------------------
  alpha Z        PSCENC =      7300.31925852
  Ewald energy   TEWEN  =    -66232.83996889
  -Hartree energ DENC   =    -11197.02572337
  -exchange      EXHF   =         0.00000000
  -V(xc)+E(xc)   XCENC  =       446.63038354
  PAW double counting   =     51723.88885462   -52548.28121372
  entropy T*S    EENTRO =         0.01708656
  eigenvalues    EBANDS =     13358.69063325
  atomic energy  EATOM  =     64200.40720934
  Solvation  Ediel_sol  =         0.00000000
  ---------------------------------------------------
  free energy    TOTEN  =      7051.80651986 eV

  energy without entropy =     7051.78943330  energy(sigma->0) =     7051.80082434


--------------------------------------------------------------------------------------------------------




--------------------------------------- Iteration      1(   2)  ---------------------------------------


     EDDAV:  cpu time   40.7550: real time   40.7693
       DOS:  cpu time    0.0060: real time    0.0060
    --------------------------------------------
      LOOP:  cpu time   40.7609: real time   40.7753

 eigenvalue-minimisations  :  4144
 total energy-change (2. order) :-0.7170604E+04  (-0.6995113E+04)
 number of electron     864.0000000 magnetization 
 augmentation part      864.0000000 magnetization 

 Free energy of the ion-electron system (eV)
  ---------------------------------------------------
  alpha Z        PSCENC =      7300.31925852
  Ewald energy   TEWEN  =    -66232.83996889
  -Hartree energ DENC   =    -11197.02572337
  -exchange      EXHF   =         0.00000000
  -V(xc)+E(xc)   XCENC  =       446.63038354
  PAW double counting   =     51723.88885462   -52548.28121372
  entropy T*S    EENTRO =        -0.04252547
  eigenvalues    EBANDS =      6188.14595955
  atomic energy  EATOM  =     64200.40720934
  Solvation  Ediel_sol  =         0.00000000
  ---------------------------------------------------
  free energy    TOTEN  =      -118.79776588 eV

  energy without entropy =     -118.75524041  energy(sigma->0) =     -118.78359072


--------------------------------------------------------------------------------------------------------




--------------------------------------- Iteration      1(   3)  ---------------------------------------


     EDDAV:  cpu time   42.8177: real time   42.8379
       DOS:  cpu time    0.0070: real time    0.0070
    --------------------------------------------
      LOOP:  cpu time   42.8247: real time   42.8449

 eigenvalue-minimisations  :  4416
 total energy-change (2. order) :-0.7646284E+03  (-0.6601721E+03)
 number of electron     864.0000000 magnetization 
 augmentation part      864.0000000 magnetization 

 Free energy of the ion-electron system (eV)
  ---------------------------------------------------
  alpha Z        PSCENC =      7300.31925852
  Ewald energy   TEWEN  =    -66232.83996889
  -Hartree energ DENC   =    -11197.02572337
  -exchange      EXHF   =         0.00000000
  -V(xc)+E(xc)   XCENC  =       446.63038354
  PAW double counting   =     51723.88885462   -52548.28121372
  entropy T*S    EENTRO =         0.01049090
  eigenvalues    EBANDS =      5423.46452124
  atomic energy  EATOM  =     64200.40720934
  Solvation  Ediel_sol  =         0.00000000
  ---------------------------------------------------
  free energy    TOTEN  =      -883.42618782 eV

  energy without entropy =     -883.43667872  energy(sigma->0) =     -883.42968478


--------------------------------------------------------------------------------------------------------




--------------------------------------- Iteration      1(   4)  ---------------------------------------


     EDDAV:  cpu time   65.6544: real time   65.6747
       DOS:  cpu time    0.0072: real time    0.0072
    --------------------------------------------
      LOOP:  cpu time   65.6616: real time   65.6819

 eigenvalue-minimisations  :  7472
 total energy-change (2. order) :-0.1491576E+03  (-0.1394704E+03)
 number of electron     864.0000000 magnetization 
 augmentation part      864.0000000 magnetization 

 Free energy of the ion-electron system (eV)
  ---------------------------------------------------
  alpha Z        PSCENC =      7300.31925852
  Ewald energy   TEWEN  =    -66232.83996889
  -Hartree energ DENC   =    -11197.02572337
  -exchange      EXHF   =         0.00000000
  -V(xc)+E(xc)   XCENC  =       446.63038354
  PAW double counting   =     51723.88885462   -52548.28121372
  entropy T*S    EENTRO =        -0.05164512
  eigenvalues    EBANDS =      5274.36903048
  atomic energy  EATOM  =     64200.40720934
  Solvation  Ediel_sol  =         0.00000000
  ---------------------------------------------------
  free energy    TOTEN  =     -1032.58381459 eV

  energy without entropy =    -1032.53216948  energy(sigma->0) =    -1032.56659956


--------------------------------------------------------------------------------------------------------




--------------------------------------- Iteration      1(   5)  ---------------------------------------


     EDDAV:  cpu time   58.6977: real time   58.7167
       DOS:  cpu time    0.0073: real time    0.0073
    CHARGE:  cpu time    2.1153: real time    2.1157
    MIXING:  cpu time    0.0087: real time    0.0087
    --------------------------------------------
      LOOP:  cpu time   60.8290: real time   60.8485

 eigenvalue-minimisations  :  6544
 total energy-change (2. order) :-0.1250198E+02  (-0.1170067E+02)
 number of electron     864.0000692 magnetization 
 augmentation part      382.8894682 magnetization 

 Broyden mixing:
  rms(total) = 0.93331E+01    rms(broyden)= 0.93326E+01
  rms(prec ) = 0.11641E+02
  weight for this iteration     100.00

 Free energy of the ion-electron system (eV)
  ---------------------------------------------------
  alpha Z        PSCENC =      7300.31925852
  Ewald energy   TEWEN  =    -66232.83996889
  -Hartree energ DENC   =    -11197.02572337
  -exchange      EXHF   =         0.00000000
  -V(xc)+E(xc)   XCENC  =       446.63038354
  PAW double counting   =     51723.88885462   -52548.28121372
  entropy T*S    EENTRO =        -0.10694318
  eigenvalues    EBANDS =      5261.92235258
  atomic energy  EATOM  =     64200.40720934
  Solvation  Ediel_sol  =         0.00000000
  ---------------------------------------------------
  free energy    TOTEN  =     -1045.08579055 eV

  energy without entropy =    -1044.97884737  energy(sigma->0) =    -1045.05014283


--------------------------------------------------------------------------------------------------------




--------------------------------------- Iteration      1(   6)  ---------------------------------------


    POTLOK:  cpu time    0.2873: real time    0.2885
    SETDIJ:  cpu time    0.0534: real time    0.0534
    EDDIAG:  cpu time    4.5791: real time    4.5804
  RMM-DIIS:  cpu time   27.4778: real time   27.4985
    ORTHCH:  cpu time    0.8454: real time    0.8456
       DOS:  cpu time    0.0082: real time    0.0082
    CHARGE:  cpu time    2.0627: real time    2.0631
    MIXING:  cpu time    0.0067: real time    0.0067
    --------------------------------------------
      LOOP:  cpu time   35.3206: real time   35.3445

 eigenvalue-minimisations  :  4144
 total energy-change (2. order) : 0.1668442E+03  (-0.1353991E+03)
 number of electron     864.0000778 magnetization 
 augmentation part      447.8529546 magnetization 

 Broyden mixing:
  rms(total) = 0.89762E+00    rms(broyden)= 0.89666E+00
  rms(prec ) = 0.97044E+00
  weight for this iteration     100.00

 eigenvalues of (default mixing * dielectric matrix)
  average eigenvalue GAMMA=   0.9484
  0.9484

 Free energy of the ion-electron system (eV)
  ---------------------------------------------------
  alpha Z        PSCENC =      7300.31925852
  Ewald energy   TEWEN  =    -66232.83996889
  -Hartree energ DENC   =     -9343.02372791
  -exchange      EXHF   =         0.00000000
  -V(xc)+E(xc)   XCENC  =       356.01977580
  PAW double counting   =     52425.57494426   -53008.13281741
  entropy T*S    EENTRO =        -0.05628428
  eigenvalues    EBANDS =      3423.49002956
  atomic energy  EATOM  =     64200.40720934
  Solvation  Ediel_sol  =         0.00000000
  ---------------------------------------------------
  free energy    TOTEN  =      -878.24158101 eV

  energy without entropy =     -878.18529673  energy(sigma->0) =     -878.22281958


--------------------------------------------------------------------------------------------------------




--------------------------------------- Iteration      1(   7)  ---------------------------------------


    POTLOK:  cpu time    0.2474: real time    0.2485
    SETDIJ:  cpu time    0.0516: real time    0.0516
    EDDIAG:  cpu time    4.6066: real time    4.6082
  RMM-DIIS:  cpu time   30.0029: real time   30.0121
    ORTHCH:  cpu time    0.8114: real time    0.8119
       DOS:  cpu time    0.0082: real time    0.0082
    CHARGE:  cpu time    2.0166: real time    2.0170
    MIXING:  cpu time    0.0076: real time    0.0076
    --------------------------------------------
      LOOP:  cpu time   37.7522: real time   37.7650

 eigenvalue-minimisations  :  4521
 total energy-change (2. order) :-0.2590911E+01  (-0.1080769E+02)
 number of electron     864.0000752 magnetization 
 augmentation part      446.9288825 magnetization 

 Broyden mixing:
  rms(total) = 0.34208E+00    rms(broyden)= 0.34083E+00
  rms(prec ) = 0.38159E+00
  weight for this iteration     100.00

 eigenvalues of (default mixing * dielectric matrix)
  average eigenvalue GAMMA=   1.1012
  1.1012  1.1012

 Free energy of the ion-electron system (eV)
  ---------------------------------------------------
  alpha Z        PSCENC =      7300.31925852
  Ewald energy   TEWEN  =    -66232.83996889
  -Hartree energ DENC   =     -9384.61070078
  -exchange      EXHF   =         0.00000000
  -V(xc)+E(xc)   XCENC  =       360.55988111
  PAW double counting   =     54311.66591431   -55090.79081618
  entropy T*S    EENTRO =        -0.13874244
  eigenvalues    EBANDS =      3654.59547265
  atomic energy  EATOM  =     64200.40720934
  Solvation  Ediel_sol  =         0.00000000
  ---------------------------------------------------
  free energy    TOTEN  =      -880.83249236 eV

  energy without entropy =     -880.69374992  energy(sigma->0) =     -880.78624488


--------------------------------------------------------------------------------------------------------




--------------------------------------- Iteration      1(   8)  ---------------------------------------


    POTLOK:  cpu time    0.2663: real time    0.2671
    SETDIJ:  cpu time    0.0516: real time    0.0516
    EDDIAG:  cpu time    4.6830: real time    4.6841
  RMM-DIIS:  cpu time   29.0773: real time   29.1035
    ORTHCH:  cpu time    0.8198: real time    0.8200
       DOS:  cpu time    0.0079: real time    0.0079
    CHARGE:  cpu time    2.0328: real time    2.0332
    MIXING:  cpu time    0.0081: real time    0.0081
    --------------------------------------------
      LOOP:  cpu time   36.9467: real time   36.9755

 eigenvalue-minimisations  :  4404
 total energy-change (2. order) : 0.7624230E+00  (-0.1287750E+01)
 number of electron     864.0000748 magnetization 
 augmentation part      443.0663532 magnetization 

 Broyden mixing:
  rms(total) = 0.69778E+00    rms(broyden)= 0.69762E+00
  rms(prec ) = 0.95768E+00
  weight for this iteration     100.00

 eigenvalues of (default mixing * dielectric matrix)
  average eigenvalue GAMMA=   0.8006
  1.0276  1.2123  0.1620

 Free energy of the ion-electron system (eV)
  ---------------------------------------------------
  alpha Z        PSCENC =      7300.31925852
  Ewald energy   TEWEN  =    -66232.83996889
  -Hartree energ DENC   =     -9417.32395915
  -exchange      EXHF   =         0.00000000
  -V(xc)+E(xc)   XCENC  =       363.32219836
  PAW double counting   =     56109.08300961   -56997.31739662
  entropy T*S    EENTRO =        -0.08072901
  eigenvalues    EBANDS =      3794.36030849
  atomic energy  EATOM  =     64200.40720934
  Solvation  Ediel_sol  =         0.00000000
  ---------------------------------------------------
  free energy    TOTEN  =      -880.07006934 eV

  energy without entropy =     -879.98934033  energy(sigma->0) =     -880.04315967


--------------------------------------------------------------------------------------------------------




--------------------------------------- Iteration      1(   9)  ---------------------------------------


    POTLOK:  cpu time    0.2866: real time    0.2872
    SETDIJ:  cpu time    0.0525: real time    0.0526
    EDDIAG:  cpu time    4.7834: real time    4.7851
  RMM-DIIS:  cpu time   35.5411: real time   35.5574
    ORTHCH:  cpu time    0.8140: real time    0.8142
       DOS:  cpu time    0.0081: real time    0.0081
    CHARGE:  cpu time    2.1325: real time    2.1329
    MIXING:  cpu time    0.0078: real time    0.0078
    --------------------------------------------
      LOOP:  cpu time   43.6260: real time   43.6452

 eigenvalue-minimisations  :  5458
 total energy-change (2. order) :-0.1324774E+00  (-0.4407055E+00)
 number of electron     864.0000750 magnetization 
 augmentation part      443.6292096 magnetization 

 Broyden mixing:
  rms(total) = 0.27933E+00    rms(broyden)= 0.27889E+00
  rms(prec ) = 0.35181E+00
  weight for this iteration     100.00

 eigenvalues of (default mixing * dielectric matrix)
  average eigenvalue GAMMA=   1.1412
  2.3949  1.0269  1.0269  0.1162

 Free energy of the ion-electron system (eV)
  ---------------------------------------------------
  alpha Z        PSCENC =      7300.31925852
  Ewald energy   TEWEN  =    -66232.83996889
  -Hartree energ DENC   =     -9410.84346348
  -exchange      EXHF   =         0.00000000
  -V(xc)+E(xc)   XCENC  =       363.09260117
  PAW double counting   =     56278.51319738   -57174.00620482
  entropy T*S    EENTRO =        -0.07079359
  eigenvalues    EBANDS =      3795.22561765
  atomic energy  EATOM  =     64200.40720934
  Solvation  Ediel_sol  =         0.00000000
  ---------------------------------------------------
  free energy    TOTEN  =      -880.20254672 eV

  energy without entropy =     -880.13175313  energy(sigma->0) =     -880.17894886


--------------------------------------------------------------------------------------------------------




--------------------------------------- Iteration      1(  10)  ---------------------------------------


    POTLOK:  cpu time    0.2929: real time    0.2935
    SETDIJ:  cpu time    0.0547: real time    0.0547
    EDDIAG:  cpu time    4.9310: real time    4.9323
  RMM-DIIS:  cpu time   34.3075: real time   34.3181
    ORTHCH:  cpu time    0.8567: real time    0.8570
       DOS:  cpu time    0.0083: real time    0.0083
    CHARGE:  cpu time    2.1643: real time    2.1647
    MIXING:  cpu time    0.0072: real time    0.0072
    --------------------------------------------
      LOOP:  cpu time   42.6226: real time   42.6357

 eigenvalue-minimisations  :  5294
 total energy-change (2. order) : 0.1760335E+00  (-0.1064639E+00)
 number of electron     864.0000752 magnetization 
 augmentation part      444.7987600 magnetization 

 Broyden mixing:
  rms(total) = 0.54330E-01    rms(broyden)= 0.54281E-01
  rms(prec ) = 0.66565E-01
  weight for this iteration     100.00

 eigenvalues of (default mixing * dielectric matrix)
  average eigenvalue GAMMA=   1.2022
  2.6214  1.3755  0.9489  0.9489  0.1161

 Free energy of the ion-electron system (eV)
  ---------------------------------------------------
  alpha Z        PSCENC =      7300.31925852
  Ewald energy   TEWEN  =    -66232.83996889
  -Hartree energ DENC   =     -9331.12427524
  -exchange      EXHF   =         0.00000000
  -V(xc)+E(xc)   XCENC  =       359.97038420
  PAW double counting   =     57772.69440467   -58716.30492875
  entropy T*S    EENTRO =        -0.08029034
  eigenvalues    EBANDS =      3766.93169325
  atomic energy  EATOM  =     64200.40720934
  Solvation  Ediel_sol  =         0.00000000
  ---------------------------------------------------
  free energy    TOTEN  =      -880.02651323 eV

  energy without entropy =     -879.94622290  energy(sigma->0) =     -879.99974979


--------------------------------------------------------------------------------------------------------




--------------------------------------- Iteration      1(  11)  ---------------------------------------


    POTLOK:  cpu time    0.2835: real time    0.2838
    SETDIJ:  cpu time    0.0552: real time    0.0552
    EDDIAG:  cpu time    5.0436: real time    5.0477
  RMM-DIIS:  cpu time   36.5108: real time   36.5154
    ORTHCH:  cpu time    0.8768: real time    0.8769
       DOS:  cpu time    0.0081: real time    0.0081
    CHARGE:  cpu time    2.1999: real time    2.2001
    MIXING:  cpu time    0.0087: real time    0.0087
    --------------------------------------------
      LOOP:  cpu time   44.9867: real time   44.9959

 eigenvalue-minimisations  :  5690
 total energy-change (2. order) :-0.1470659E-01  (-0.1438086E-01)
 number of electron     864.0000752 magnetization 
 augmentation part      444.9580616 magnetization 

 Broyden mixing:
  rms(total) = 0.59875E-01    rms(broyden)= 0.59873E-01
  rms(prec ) = 0.75681E-01
  weight for this iteration     100.00

 eigenvalues of (default mixing * dielectric matrix)
  average eigenvalue GAMMA=   1.2775
  2.6573  2.0569  0.9705  0.9705  0.8936  0.1161

 Free energy of the ion-electron system (eV)
  ---------------------------------------------------
  alpha Z        PSCENC =      7300.31925852
  Ewald energy   TEWEN  =    -66232.83996889
  -Hartree energ DENC   =     -9333.34353549
  -exchange      EXHF   =         0.00000000
  -V(xc)+E(xc)   XCENC  =       360.11094093
  PAW double counting   =     57973.26110462   -58917.65831396
  entropy T*S    EENTRO =        -0.07845412
  eigenvalues    EBANDS =      3769.78053923
  atomic energy  EATOM  =     64200.40720934
  Solvation  Ediel_sol  =         0.00000000
  ---------------------------------------------------
  free energy    TOTEN  =      -880.04121983 eV

  energy without entropy =     -879.96276571  energy(sigma->0) =     -880.01506845


--------------------------------------------------------------------------------------------------------




--------------------------------------- Iteration      1(  12)  ---------------------------------------


    POTLOK:  cpu time    0.3018: real time    0.3022
    SETDIJ:  cpu time    0.0538: real time    0.0538
    EDDIAG:  cpu time    5.0484: real time    5.0491
  RMM-DIIS:  cpu time   29.1287: real time   29.1343
    ORTHCH:  cpu time    0.8745: real time    0.8746
       DOS:  cpu time    0.0082: real time    0.0082
    CHARGE:  cpu time    2.2153: real time    2.2155
    MIXING:  cpu time    0.0082: real time    0.0082
    --------------------------------------------
      LOOP:  cpu time   37.6390: real time   37.6459

 eigenvalue-minimisations  :  4513
 total energy-change (2. order) : 0.5978898E-02  (-0.3607136E-02)
 number of electron     864.0000752 magnetization 
 augmentation part      444.6494532 magnetization 

 Broyden mixing:
  rms(total) = 0.81572E-02    rms(broyden)= 0.81481E-02
  rms(prec ) = 0.10604E-01
  weight for this iteration     100.00

 eigenvalues of (default mixing * dielectric matrix)
  average eigenvalue GAMMA=   1.3213
  2.5189  2.5189  1.2489  0.9794  0.9794  0.8875  0.1161

 Free energy of the ion-electron system (eV)
  ---------------------------------------------------
  alpha Z        PSCENC =      7300.31925852
  Ewald energy   TEWEN  =    -66232.83996889
  -Hartree energ DENC   =     -9346.24308454
  -exchange      EXHF   =         0.00000000
  -V(xc)+E(xc)   XCENC  =       360.68597827
  PAW double counting   =     57994.31500212   -58935.28477476
  entropy T*S    EENTRO =        -0.07482619
  eigenvalues    EBANDS =      3778.67996521
  atomic energy  EATOM  =     64200.40720934
  Solvation  Ediel_sol  =         0.00000000
  ---------------------------------------------------
  free energy    TOTEN  =      -880.03524093 eV

  energy without entropy =     -879.96041473  energy(sigma->0) =     -880.01029886


--------------------------------------------------------------------------------------------------------




--------------------------------------- Iteration      1(  13)  ---------------------------------------


    POTLOK:  cpu time    0.3115: real time    0.3119
    SETDIJ:  cpu time    0.0559: real time    0.0559
    EDDIAG:  cpu time    5.0842: real time    5.0847
  RMM-DIIS:  cpu time   35.4358: real time   35.4387
    ORTHCH:  cpu time    0.8782: real time    0.8783
       DOS:  cpu time    0.0083: real time    0.0083
    CHARGE:  cpu time    2.2023: real time    2.2025
    MIXING:  cpu time    0.0083: real time    0.0083
    --------------------------------------------
      LOOP:  cpu time   43.9845: real time   43.9886

 eigenvalue-minimisations  :  5515
 total energy-change (2. order) :-0.8122062E-03  (-0.1194611E-02)
 number of electron     864.0000752 magnetization 
 augmentation part      444.5811878 magnetization 

 Broyden mixing:
  rms(total) = 0.43938E-02    rms(broyden)= 0.43923E-02
  rms(prec ) = 0.55615E-02
  weight for this iteration     100.00

 eigenvalues of (default mixing * dielectric matrix)
  average eigenvalue GAMMA=   1.3273
  2.5898  2.0678  2.0678  0.1161  0.9824  0.9824  0.9063  0.9063

 Free energy of the ion-electron system (eV)
  ---------------------------------------------------
  alpha Z        PSCENC =      7300.31925852
  Ewald energy   TEWEN  =    -66232.83996889
  -Hartree energ DENC   =     -9348.32770398
  -exchange      EXHF   =         0.00000000
  -V(xc)+E(xc)   XCENC  =       360.76777891
  PAW double counting   =     57984.38429473   -58923.72186174
  entropy T*S    EENTRO =        -0.07391008
  eigenvalues    EBANDS =      3779.04885006
  atomic energy  EATOM  =     64200.40720934
  Solvation  Ediel_sol  =         0.00000000
  ---------------------------------------------------
  free energy    TOTEN  =      -880.03605313 eV

  energy without entropy =     -879.96214305  energy(sigma->0) =     -880.01141644


--------------------------------------------------------------------------------------------------------




--------------------------------------- Iteration      1(  14)  ---------------------------------------


    POTLOK:  cpu time    0.2937: real time    0.2941
    SETDIJ:  cpu time    0.0568: real time    0.0568
    EDDIAG:  cpu time    5.0784: real time    5.0789
  RMM-DIIS:  cpu time   31.0891: real time   31.0916
    ORTHCH:  cpu time    0.8588: real time    0.8589
       DOS:  cpu time    0.0082: real time    0.0082
    CHARGE:  cpu time    2.1844: real time    2.1846
    MIXING:  cpu time    0.0091: real time    0.0091
    --------------------------------------------
      LOOP:  cpu time   39.5786: real time   39.5823

 eigenvalue-minimisations  :  4827
 total energy-change (2. order) :-0.4659211E-04  (-0.2255088E-04)
 number of electron     864.0000752 magnetization 
 augmentation part      444.6062079 magnetization 

 Broyden mixing:
  rms(total) = 0.10931E-02    rms(broyden)= 0.10931E-02
  rms(prec ) = 0.14032E-02
  weight for this iteration     100.00

 eigenvalues of (default mixing * dielectric matrix)
  average eigenvalue GAMMA=   1.3067
  2.5374  2.3789  1.8772  0.1161  1.0210  1.0210  0.9923  0.9923  0.8240

 Free energy of the ion-electron system (eV)
  ---------------------------------------------------
  alpha Z        PSCENC =      7300.31925852
  Ewald energy   TEWEN  =    -66232.83996889
  -Hartree energ DENC   =     -9346.83139398
  -exchange      EXHF   =         0.00000000
  -V(xc)+E(xc)   XCENC  =       360.70467501
  PAW double counting   =     57982.16906830   -58921.91258453
  entropy T*S    EENTRO =        -0.07369811
  eigenvalues    EBANDS =      3778.02133461
  atomic energy  EATOM  =     64200.40720934
  Solvation  Ediel_sol  =         0.00000000
  ---------------------------------------------------
  free energy    TOTEN  =      -880.03609973 eV

  energy without entropy =     -879.96240161  energy(sigma->0) =     -880.01153369


--------------------------------------------------------------------------------------------------------




--------------------------------------- Iteration      1(  15)  ---------------------------------------


    POTLOK:  cpu time    0.3135: real time    0.3139
    SETDIJ:  cpu time    0.0563: real time    0.0563
    EDDIAG:  cpu time    5.0794: real time    5.0799
  RMM-DIIS:  cpu time   37.1133: real time   37.1230
    ORTHCH:  cpu time    0.8814: real time    0.8815
       DOS:  cpu time    0.0083: real time    0.0083
    CHARGE:  cpu time    2.1949: real time    2.1951
    MIXING:  cpu time    0.0120: real time    0.0120
    --------------------------------------------
      LOOP:  cpu time   45.6591: real time   45.6700

 eigenvalue-minimisations  :  5799
 total energy-change (2. order) : 0.3973227E-04  ( 0.3193959E-05)
 number of electron     864.0000752 magnetization 
 augmentation part      444.6015156 magnetization 

 Broyden mixing:
  rms(total) = 0.76858E-03    rms(broyden)= 0.76782E-03
  rms(prec ) = 0.10575E-02
  weight for this iteration     100.00

 eigenvalues of (default mixing * dielectric matrix)
  average eigenvalue GAMMA=   1.3077
  2.6018  2.2255  2.2255  0.1161  1.0902  1.0902  0.9949  0.9949  0.8692  0.8692

 Free energy of the ion-electron system (eV)
  ---------------------------------------------------
  alpha Z        PSCENC =      7300.31925852
  Ewald energy   TEWEN  =    -66232.83996889
  -Hartree energ DENC   =     -9347.21165176
  -exchange      EXHF   =         0.00000000
  -V(xc)+E(xc)   XCENC  =       360.72161890
  PAW double counting   =     57981.67295577   -58921.21976539
  entropy T*S    EENTRO =        -0.07325905
  eigenvalues    EBANDS =      3778.18754257
  atomic energy  EATOM  =     64200.40720934
  Solvation  Ediel_sol  =         0.00000000
  ---------------------------------------------------
  free energy    TOTEN  =      -880.03605999 eV

  energy without entropy =     -879.96280094  energy(sigma->0) =     -880.01164031


--------------------------------------------------------------------------------------------------------




--------------------------------------- Iteration      1(  16)  ---------------------------------------


    POTLOK:  cpu time    0.3086: real time    0.3094
    SETDIJ:  cpu time    0.0543: real time    0.0543
    EDDIAG:  cpu time    5.0660: real time    5.0665
  RMM-DIIS:  cpu time   24.7175: real time   24.7195
    ORTHCH:  cpu time    0.8628: real time    0.8629
       DOS:  cpu time    0.0083: real time    0.0083
    CHARGE:  cpu time    2.1710: real time    2.1746
    MIXING:  cpu time    0.0114: real time    0.0114
    --------------------------------------------
      LOOP:  cpu time   33.2008: real time   33.2070

 eigenvalue-minimisations  :  3788
 total energy-change (2. order) : 0.3437579E-04  ( 0.3089808E-04)
 number of electron     864.0000752 magnetization 
 augmentation part      444.6040767 magnetization 

 Broyden mixing:
  rms(total) = 0.10026E-03    rms(broyden)= 0.99638E-04
  rms(prec ) = 0.11479E-03
  weight for this iteration     100.00

 eigenvalues of (default mixing * dielectric matrix)
  average eigenvalue GAMMA=   1.3781
  2.7204  2.4877  2.4877  0.1161  1.2605  1.2605  0.9946  0.9946  1.0811  0.9246
  0.8315

 Free energy of the ion-electron system (eV)
  ---------------------------------------------------
  alpha Z        PSCENC =      7300.31925852
  Ewald energy   TEWEN  =    -66232.83996889
  -Hartree energ DENC   =     -9347.15889588
  -exchange      EXHF   =         0.00000000
  -V(xc)+E(xc)   XCENC  =       360.71955572
  PAW double counting   =     57981.16040316   -58920.69778124
  entropy T*S    EENTRO =        -0.07288548
  eigenvalues    EBANDS =      3778.12707914
  atomic energy  EATOM  =     64200.40720934
  Solvation  Ediel_sol  =         0.00000000
  ---------------------------------------------------
  free energy    TOTEN  =      -880.03602562 eV

  energy without entropy =     -879.96314013  energy(sigma->0) =     -880.01173046


--------------------------------------------------------------------------------------------------------




--------------------------------------- Iteration      1(  17)  ---------------------------------------


    POTLOK:  cpu time    0.3057: real time    0.3061
    SETDIJ:  cpu time    0.0537: real time    0.0537
    EDDIAG:  cpu time    4.9588: real time    4.9593
  RMM-DIIS:  cpu time   19.9284: real time   19.9316
    ORTHCH:  cpu time    0.8687: real time    0.8687
       DOS:  cpu time    0.0079: real time    0.0079
    CHARGE:  cpu time    2.1857: real time    2.1859
    MIXING:  cpu time    0.0122: real time    0.0122
    --------------------------------------------
      LOOP:  cpu time   28.3200: real time   28.3254

 eigenvalue-minimisations  :  3027
[...]
   0.105E-01 -.143E-04 -.103E-01   -.205E-01 0.277E-04 0.202E-01   0.438E-21 0.551E-20 -.474E-19   0.318E-06 -.674E-06 0.356E-06
   0.105E-01 0.103E-01 0.143E-04   -.205E-01 -.202E-01 -.277E-04   0.801E-21 -.116E-19 -.241E-19   0.318E-06 -.355E-06 0.674E-06
   -.105E-01 -.143E-04 0.143E-04   0.205E-01 0.277E-04 -.277E-04   0.000E+00 -.254E-20 -.267E-19   -.319E-06 -.674E-06 0.674E-06
   -.105E-01 0.104E-01 -.104E-01   0.205E-01 -.202E-01 0.202E-01   0.000E+00 -.771E-20 0.000E+00   -.319E-06 -.355E-06 0.356E-06
   -.143E-04 -.103E-01 -.103E-01   0.277E-04 0.202E-01 0.202E-01   -.424E-21 0.000E+00 0.678E-20   -.674E-06 0.356E-06 0.356E-06
   -.143E-04 0.143E-04 0.143E-04   0.277E-04 -.277E-04 -.277E-04   0.424E-21 0.148E-19 0.428E-19   -.674E-06 0.674E-06 0.674E-06
   0.103E-01 -.103E-01 0.143E-04   -.202E-01 0.202E-01 -.277E-04   -.151E-21 0.169E-20 0.127E-20   -.355E-06 0.356E-06 0.674E-06
   0.103E-01 0.143E-04 -.103E-01   -.202E-01 -.277E-04 0.202E-01   0.463E-22 0.127E-19 -.208E-19   -.355E-06 0.674E-06 0.356E-06
   -.104E-01 -.104E-01 -.104E-01   0.202E-01 0.202E-01 0.202E-01   0.000E+00 -.169E-20 -.381E-20   0.356E-06 0.356E-06 0.356E-06
   -.104E-01 0.143E-04 0.143E-04   0.203E-01 -.277E-04 -.277E-04   0.000E+00 -.254E-20 0.496E-19   0.356E-06 0.674E-06 0.674E-06
   0.143E-04 -.104E-01 0.143E-04   -.277E-04 0.203E-01 -.277E-04   0.847E-21 -.296E-20 0.127E-20   0.674E-06 0.356E-06 0.674E-06
   0.143E-04 0.143E-04 -.104E-01   -.277E-04 -.277E-04 0.203E-01   0.000E+00 -.161E-19 -.169E-19   0.674E-06 0.674E-06 0.356E-06
   0.105E-01 -.104E-01 -.104E-01   -.205E-01 0.202E-01 0.202E-01   -.834E-21 -.169E-20 -.381E-20   0.318E-06 0.356E-06 0.356E-06
   0.105E-01 0.143E-04 0.143E-04   -.205E-01 -.277E-04 -.277E-04   0.205E-21 0.131E-19 0.288E-19   0.318E-06 0.674E-06 0.674E-06
   -.105E-01 -.103E-01 0.143E-04   0.205E-01 0.202E-01 -.277E-04   0.000E+00 -.720E-20 0.119E-19   -.319E-06 0.356E-06 0.674E-06
   -.105E-01 0.143E-04 -.103E-01   0.205E-01 -.277E-04 0.202E-01   0.000E+00 0.593E-20 -.720E-20   -.319E-06 0.674E-06 0.356E-06
   -.143E-04 0.105E-01 -.103E-01   0.277E-04 -.205E-01 0.202E-01   0.424E-21 0.686E-20 0.335E-19   -.674E-06 0.318E-06 0.356E-06
   -.143E-04 -.105E-01 0.143E-04   0.277E-04 0.205E-01 -.277E-04   0.424E-21 -.551E-20 0.123E-19   -.674E-06 -.319E-06 0.674E-06
   0.103E-01 0.105E-01 0.143E-04   -.202E-01 -.205E-01 -.277E-04   -.190E-20 0.301E-20 0.288E-19   -.355E-06 0.318E-06 0.674E-06
   0.104E-01 -.105E-01 -.104E-01   -.202E-01 0.205E-01 0.202E-01   0.155E-20 -.157E-19 0.805E-20   -.355E-06 -.319E-06 0.356E-06
   -.104E-01 0.105E-01 -.104E-01   0.202E-01 -.205E-01 0.202E-01   0.000E+00 0.220E-20 0.199E-19   0.356E-06 0.318E-06 0.356E-06
   -.103E-01 -.105E-01 0.143E-04   0.202E-01 0.205E-01 -.277E-04   0.000E+00 -.119E-19 0.847E-20   0.356E-06 -.319E-06 0.674E-06
   0.143E-04 0.105E-01 0.143E-04   -.277E-04 -.205E-01 -.277E-04   -.424E-21 0.809E-20 0.805E-20   0.674E-06 0.318E-06 0.674E-06
   0.143E-04 -.105E-01 -.103E-01   -.277E-04 0.205E-01 0.202E-01   0.169E-20 0.847E-20 -.174E-19   0.674E-06 -.319E-06 0.356E-06
   0.105E-01 0.105E-01 -.104E-01   -.205E-01 -.205E-01 0.202E-01   0.298E-21 -.542E-20 0.398E-19   0.318E-06 0.318E-06 0.356E-06
   0.105E-01 -.105E-01 0.143E-04   -.205E-01 0.205E-01 -.277E-04   -.112E-20 0.805E-20 -.127E-20   0.318E-06 -.319E-06 0.674E-06
   -.105E-01 0.105E-01 0.143E-04   0.205E-01 -.205E-01 -.277E-04   0.000E+00 0.767E-20 0.360E-19   -.319E-06 0.318E-06 0.674E-06
   -.105E-01 -.105E-01 -.104E-01   0.205E-01 0.205E-01 0.202E-01   0.000E+00 0.466E-20 -.508E-20   -.319E-06 -.319E-06 0.356E-06
   -.143E-04 -.143E-04 0.105E-01   0.277E-04 0.277E-04 -.205E-01   -.424E-21 -.635E-20 0.550E-19   -.674E-06 -.674E-06 0.318E-06
   -.143E-04 0.103E-01 -.105E-01   0.277E-04 -.202E-01 0.205E-01   0.847E-21 0.131E-19 0.466E-19   -.674E-06 -.355E-06 -.319E-06
   0.103E-01 -.143E-04 -.105E-01   -.202E-01 0.277E-04 0.205E-01   0.139E-20 -.805E-20 0.847E-21   -.355E-06 -.674E-06 -.319E-06
   0.104E-01 0.104E-01 0.105E-01   -.202E-01 -.202E-01 -.205E-01   -.988E-21 0.158E-19 -.837E-20   -.355E-06 -.355E-06 0.318E-06
   -.103E-01 -.143E-04 0.105E-01   0.202E-01 0.277E-04 -.205E-01   0.000E+00 -.106E-19 0.558E-19   0.356E-06 -.674E-06 0.318E-06
   -.104E-01 0.104E-01 -.105E-01   0.202E-01 -.202E-01 0.205E-01   0.000E+00 -.496E-21 0.500E-19   0.356E-06 -.355E-06 -.319E-06
   0.143E-04 -.143E-04 -.105E-01   -.277E-04 0.277E-04 0.205E-01   0.424E-21 0.296E-20 0.254E-20   0.674E-06 -.674E-06 -.319E-06
   0.143E-04 0.103E-01 0.105E-01   -.277E-04 -.202E-01 -.205E-01   0.000E+00 0.139E-21 -.130E-19   0.674E-06 -.355E-06 0.318E-06
   0.105E-01 -.143E-04 0.105E-01   -.205E-01 0.277E-04 -.205E-01   -.138E-20 0.339E-20 0.283E-19   0.318E-06 -.674E-06 0.318E-06
   0.105E-01 0.104E-01 -.105E-01   -.205E-01 -.202E-01 0.205E-01   -.179E-21 0.798E-20 0.110E-19   0.318E-06 -.355E-06 -.319E-06
   -.105E-01 -.143E-04 -.105E-01   0.205E-01 0.277E-04 0.205E-01   0.000E+00 0.762E-20 0.212E-19   -.319E-06 -.674E-06 -.319E-06
   -.105E-01 0.104E-01 0.105E-01   0.205E-01 -.202E-01 -.205E-01   0.000E+00 0.395E-20 -.304E-19   -.319E-06 -.355E-06 0.318E-06
   -.143E-04 -.103E-01 0.105E-01   0.277E-04 0.202E-01 -.205E-01   0.424E-21 0.000E+00 -.643E-20   -.674E-06 0.356E-06 0.318E-06
   -.143E-04 0.143E-04 -.105E-01   0.277E-04 -.277E-04 0.205E-01   -.424E-21 -.847E-21 -.373E-19   -.674E-06 0.674E-06 -.319E-06
   0.104E-01 -.104E-01 -.105E-01   -.202E-01 0.202E-01 0.205E-01   -.265E-21 0.000E+00 0.847E-21   -.355E-06 0.356E-06 -.319E-06
   0.103E-01 0.143E-04 0.105E-01   -.202E-01 -.277E-04 -.205E-01   0.126E-21 0.114E-19 0.437E-19   -.355E-06 0.674E-06 0.318E-06
   -.104E-01 -.104E-01 0.105E-01   0.202E-01 0.202E-01 -.205E-01   0.000E+00 0.148E-19 0.346E-21   0.356E-06 0.356E-06 0.318E-06
   -.103E-01 0.143E-04 -.105E-01   0.202E-01 -.277E-04 0.205E-01   0.000E+00 0.424E-20 -.546E-19   0.356E-06 0.674E-06 -.319E-06
   0.143E-04 -.103E-01 -.105E-01   -.277E-04 0.202E-01 0.205E-01   0.424E-21 -.102E-19 0.932E-20   0.674E-06 0.356E-06 -.319E-06
   0.143E-04 0.143E-04 0.105E-01   -.277E-04 -.277E-04 -.205E-01   -.847E-21 -.195E-19 0.340E-19   0.674E-06 0.674E-06 0.318E-06
   0.105E-01 -.104E-01 0.105E-01   -.205E-01 0.202E-01 -.205E-01   0.334E-21 -.889E-20 0.105E-19   0.318E-06 0.356E-06 0.318E-06
   0.105E-01 0.143E-04 -.105E-01   -.205E-01 -.277E-04 0.205E-01   0.706E-21 0.593E-20 -.479E-19   0.318E-06 0.674E-06 -.319E-06
   -.105E-01 -.104E-01 -.105E-01   0.205E-01 0.202E-01 0.205E-01   0.000E+00 0.678E-20 -.254E-20   -.319E-06 0.356E-06 -.319E-06
   -.105E-01 0.143E-04 0.105E-01   0.205E-01 -.277E-04 -.205E-01   0.000E+00 0.635E-20 0.331E-19   -.319E-06 0.674E-06 0.318E-06
   -.143E-04 0.105E-01 0.105E-01   0.277E-04 -.205E-01 -.205E-01   -.847E-21 0.394E-20 -.467E-19   -.674E-06 0.318E-06 0.318E-06
   -.143E-04 -.105E-01 -.105E-01   0.277E-04 0.205E-01 0.205E-01   0.424E-21 -.424E-20 -.847E-20   -.674E-06 -.319E-06 -.319E-06
   0.104E-01 0.105E-01 -.105E-01   -.202E-01 -.205E-01 0.205E-01   -.748E-21 0.780E-20 -.220E-19   -.355E-06 0.318E-06 -.319E-06
   0.104E-01 -.105E-01 0.105E-01   -.202E-01 0.205E-01 -.205E-01   -.122E-20 -.195E-19 0.602E-20   -.355E-06 -.319E-06 0.318E-06
   -.104E-01 0.105E-01 0.105E-01   0.202E-01 -.205E-01 -.205E-01   0.000E+00 -.876E-20 -.302E-19   0.356E-06 0.318E-06 0.318E-06
   -.104E-01 -.105E-01 -.105E-01   0.202E-01 0.205E-01 0.205E-01   0.000E+00 -.110E-19 -.114E-19   0.356E-06 -.319E-06 -.319E-06
   0.143E-04 0.105E-01 -.105E-01   -.277E-04 -.205E-01 0.205E-01   0.212E-20 -.152E-20 -.241E-19   0.674E-06 0.318E-06 -.319E-06
   0.143E-04 -.105E-01 0.105E-01   -.277E-04 0.205E-01 -.205E-01   0.127E-20 0.119E-19 0.297E-19   0.674E-06 -.319E-06 0.318E-06
   0.105E-01 0.105E-01 0.105E-01   -.205E-01 -.205E-01 -.205E-01   -.220E-21 0.183E-20 -.331E-19   0.318E-06 0.318E-06 0.318E-06
   0.105E-01 -.105E-01 -.105E-01   -.205E-01 0.205E-01 0.205E-01   0.123E-20 0.593E-20 0.127E-20   0.318E-06 -.319E-06 -.319E-06
   -.105E-01 0.105E-01 -.105E-01   0.205E-01 -.205E-01 0.205E-01   0.000E+00 -.533E-20 -.462E-19   -.319E-06 0.318E-06 -.319E-06
   -.105E-01 -.105E-01 0.105E-01   0.205E-01 0.205E-01 -.205E-01   0.000E+00 -.847E-20 -.797E-20   -.319E-06 -.319E-06 0.318E-06
 -----------------------------------------------------------------------------------------------
   0.238E-09 0.273E-09 0.186E-09   0.199E-12 0.130E-14 -.809E-13   0.359E-20 0.303E-19 0.169E-18   -.182E-09 -.182E-09 -.186E-09
 
 
 POSITION                                       TOTAL-FORCE (eV/Angst)
 -----------------------------------------------------------------------------------
      0.00000      0.00000      0.00000        -0.000000      0.000000      0.000000
      0.00000      1.72250      1.72250        -0.000000     -0.000000     -0.000000
      1.72250      0.00000      1.72250         0.000000      0.000000      0.000000
      1.72250      1.72250      0.00000         0.000000      0.000000      0.000000
      3.44493      0.00000      0.00000         0.000000     -0.000000     -0.000000
      3.44493      1.72250      1.72250        -0.000000     -0.000000     -0.000000
      5.16742      0.00000      1.72250         0.000000      0.000000     -0.000000
      5.16742      1.72250      0.00000         0.000000      0.000000      0.000000
      6.88992      0.00000      0.00000        -0.000000      0.000000      0.000000
      6.88992      1.72250      1.72250        -0.000000     -0.000000     -0.000000
      8.61235      0.00000      1.72250         0.000000      0.000000     -0.000000
      8.61235      1.72250      0.00000         0.000000      0.000000      0.000000
      0.00000      3.44493      0.00000        -0.000000      0.000000     -0.000000
      0.00000      5.16742      1.72250         0.000000      0.000000     -0.000000
      1.72250      3.44493      1.72250        -0.000000     -0.000000      0.000000
      1.72250      5.16742      0.00000         0.000000      0.000000      0.000000
      3.44493      3.44493      0.00000         0.000000      0.000000     -0.000000
      3.44493      5.16742      1.72250        -0.000000     -0.000000      0.000000
      5.16742      3.44493      1.72250        -0.000000     -0.000000     -0.000000
      5.16742      5.16742      0.00000        -0.000000      0.000000     -0.000000
      6.88992      3.44493      0.00000         0.000000      0.000000      0.000000
      6.88992      5.16742      1.72250         0.000000      0.000000     -0.000000
      8.61235      3.44493      1.72250         0.000000     -0.000000     -0.000000
      8.61235      5.16742      0.00000         0.000000      0.000000     -0.000000
      0.00000      6.88992      0.00000        -0.000000      0.000000      0.000000
      0.00000      8.61235      1.72250         0.000000      0.000000      0.000000
      1.72250      6.88992      1.72250        -0.000000     -0.000000     -0.000000
      1.72250      8.61235      0.00000         0.000000     -0.000000      0.000000
      3.44493      6.88992      0.00000        -0.000000     -0.000000      0.000000
      3.44493      8.61235      1.72250        -0.000000     -0.000000      0.000000
      5.16742      6.88992      1.72250         0.000000     -0.000000      0.000000
      5.16742      8.61235      0.00000         0.000000      0.000000     -0.000000
      6.88992      6.88992      0.00000         0.000000      0.000000     -0.000000
      6.88992      8.61235      1.72250        -0.000000      0.000000     -0.000000
      8.61235      6.88992      1.72250        -0.000000     -0.000000     -0.000000
      8.61235      8.61235      0.00000         0.000000     -0.000000     -0.000000
      0.00000      0.00000      3.44493         0.000000     -0.000000     -0.000000
      0.00000      1.72250      5.16742        -0.000000     -0.000000     -0.000000
      1.72250      0.00000      5.16742        -0.000000      0.000000     -0.000000
      1.72250      1.72250      3.44493        -0.000000     -0.000000     -0.000000
      3.44493      0.00000      3.44493         0.000000      0.000000      0.000000
      3.44493      1.72250      5.16742         0.000000     -0.000000     -0.000000
      5.16742      0.00000      5.16742        -0.000000     -0.000000     -0.000000
      5.16742      1.72250      3.44493        -0.000000     -0.000000     -0.000000
      6.88992      0.00000      3.44493         0.000000      0.000000     -0.000000
      6.88992      1.72250      5.16742         0.000000      0.000000     -0.000000
      8.61235      0.00000      5.16742        -0.000000      0.000000      0.000000
      8.61235      1.72250      3.44493         0.000000      0.000000     -0.000000
      0.00000      3.44493      3.44493         0.000000     -0.000000      0.000000
      0.00000      5.16742      5.16742         0.000000     -0.000000      0.000000
      1.72250      3.44493      5.16742        -0.000000     -0.000000     -0.000000
      1.72250      5.16742      3.44493         0.000000      0.000000      0.000000
      3.44493      3.44493      3.44493        -0.000000      0.000000     -0.000000
      3.44493      5.16742      5.16742         0.000000      0.000000     -0.000000
      5.16742      3.44493      5.16742         0.000000      0.000000      0.000000
      5.16742      5.16742      3.44493         0.000000     -0.000000      0.000000
      6.88992      3.44493      3.44493         0.000000      0.000000     -0.000000
      6.88992      5.16742      5.16742        -0.000000     -0.000000     -0.000000
      8.61235      3.44493      5.16742        -0.000000      0.000000      0.000000
      8.61235      5.16742      3.44493        -0.000000      0.000000      0.000000
      0.00000      6.88992      3.44493        -0.000000     -0.000000     -0.000000
      0.00000      8.61235      5.16742        -0.000000      0.000000      0.000000
      1.72250      6.88992      5.16742        -0.000000     -0.000000     -0.000000
      1.72250      8.61235      3.44493         0.000000     -0.000000     -0.000000
      3.44493      6.88992      3.44493         0.000000     -0.000000     -0.000000
      3.44493      8.61235      5.16742         0.000000      0.000000     -0.000000
      5.16742      6.88992      5.16742         0.000000     -0.000000      0.000000
      5.16742      8.61235      3.44493         0.000000      0.000000      0.000000
      6.88992      6.88992      3.44493        -0.000000      0.000000      0.000000
      6.88992      8.61235      5.16742         0.000000      0.000000      0.000000
      8.61235      6.88992      5.16742        -0.000000     -0.000000     -0.000000
      8.61235      8.61235      3.44493        -0.000000     -0.000000      0.000000
      0.00000      0.00000      6.88992        -0.000000     -0.000000      0.000000
      0.00000      1.72250      8.61235         0.000000      0.000000      0.000000
      1.72250      0.00000      8.61235         0.000000     -0.000000      0.000000
      1.72250      1.72250      6.88992         0.000000      0.000000      0.000000
      3.44493      0.00000      6.88992        -0.000000     -0.000000      0.000000
      3.44493      1.72250      8.61235        -0.000000     -0.000000      0.000000
      5.16742      0.00000      8.61235         0.000000      0.000000      0.000000
      5.16742      1.72250      6.88992        -0.000000     -0.000000      0.000000
      6.88992      0.00000      6.88992        -0.000000     -0.000000      0.000000
      6.88992      1.72250      8.61235        -0.000000     -0.000000     -0.000000
      8.61235      0.00000      8.61235         0.000000      0.000000      0.000000
      8.61235      1.72250      6.88992        -0.000000      0.000000      0.000000
      0.00000      3.44493      6.88992        -0.000000      0.000000     -0.000000
      0.00000      5.16742      8.61235        -0.000000      0.000000      0.000000
      1.72250      3.44493      8.61235        -0.000000     -0.000000      0.000000
      1.72250      5.16742      6.88992        -0.000000     -0.000000     -0.000000
      3.44493      3.44493      6.88992        -0.000000      0.000000      0.000000
      3.44493      5.16742      8.61235         0.000000     -0.000000      0.000000
      5.16742      3.44493      8.61235         0.000000     -0.000000     -0.000000
      5.16742      5.16742      6.88992         0.000000     -0.000000     -0.000000
      6.88992      3.44493      6.88992         0.000000      0.000000     -0.000000
      6.88992      5.16742      8.61235        -0.000000      0.000000      0.000000
      8.61235      3.44493      8.61235        -0.000000     -0.000000     -0.000000
      8.61235      5.16742      6.88992        -0.000000     -0.000000     -0.000000
      0.00000      6.88992      6.88992        -0.000000     -0.000000      0.000000
      0.00000      8.61235      8.61235         0.000000      0.000000      0.000000
      1.72250      6.88992      8.61235         0.000000     -0.000000      0.000000
      1.72250      8.61235      6.88992        -0.000000     -0.000000      0.000000
      3.44493      6.88992      6.88992        -0.000000     -0.000000      0.000000
      3.44493      8.61235      8.61235        -0.000000      0.000000      0.000000
      5.16742      6.88992      8.61235         0.000000     -0.000000     -0.000000
      5.16742      8.61235      6.88992         0.000000      0.000000     -0.000000
      6.88992      6.88992      6.88992        -0.000000      0.000000     -0.000000
      6.88992      8.61235      8.61235         0.000000      0.000000      0.000000
      8.61235      6.88992      8.61235         0.000000     -0.000000      0.000000
      8.61235      8.61235      6.88992        -0.000000      0.000000     -0.000000
 -----------------------------------------------------------------------------------
    total drift:                                0.000000      0.000000     -0.000000


--------------------------------------------------------------------------------------------------------



  FREE ENERGIE OF THE ION-ELECTRON SYSTEM (eV)
  ---------------------------------------------------
  free  energy   TOTEN  =      -880.03584191 eV

  energy  without entropy=     -879.96532959  energy(sigma->0) =     -880.01233780
 


--------------------------------------------------------------------------------------------------------


    POTLOK:  cpu time    0.3420: real time    0.3421


--------------------------------------------------------------------------------------------------------




--------------------------------------------------------------------------------------------------------


  
 reached required accuracy - stopping structural energy minimisation
     LOOP+:  cpu time 1401.5172: real time 1401.8994
    4ORBIT:  cpu time    0.0000: real time    0.0000

 total amount of memory used by VASP MPI-rank0   182114. kBytes
=======================================================================

   base      :      30000. kBytes
   nonlr-proj:      37732. kBytes
   fftplans  :      15415. kBytes
   grid      :      21835. kBytes
   one-center:        419. kBytes
   wavefun   :      76713. kBytes
 
  
  
 General timing and accounting informations for this job:
 ========================================================
  
                  Total CPU time used (sec):     1409.755
                            User time (sec):     1408.284
                          System time (sec):        1.471
                         Elapsed time (sec):     1410.156
  
                   Maximum memory used (kb):      233448.
                   Average memory used (kb):           0.
  
                          Minor page faults:       161455
                          Major page faults:            0
                 Voluntary context switches:          544
