<?xml version="1.0" encoding="ISO-8859-1"?>
<modeling>
 <generator>
  <i name="program" type="string">vasp </i>
  <i name="version" type="string">5.4.4.18Apr17-6-g9f103f2a35  </i>
  <i name="subversion" type="string">(build Aug 17 2017 06:00:38) complex            parallel </i>
  <i name="platform" type="string">LinuxIFC </i>
  <i name="date" type="string">2019 07 12 </i>
  <i name="time" type="string">14:47:20 </i>
 </generator>
 <incar>
  <i type="string" name="SYSTEM">Opt</i>
  <i type="int" name="ISTART">     0</i>
  <i type="string" name="PREC">normal</i>
  <i type="string" name="ALGO"> Fast</i>
  <i type="int" name="ISPIN">     1</i>
  <i type="int" name="ICHARG">     2</i>
  <i type="int" name="NELM">   400</i>
  <i type="int" name="IBRION">     2</i>
  <i name="EDIFF">      0.00000100</i>
  <i name="EDIFFG">     -0.01000000</i>
  <i type="int" name="NSW">   100</i>
  <i type="int" name="ISIF">     3</i>
  <i name="ENCUT">    350.00000000</i>
  <i type="int" name="NGX">    72</i>
  <i type="int" name="NGY">    72</i>
  <i type="int" name="NGZ">    72</i>
  <i name="POTIM">      0.50000000</i>
  <i type="string" name="LREAL">Auto</i>
  <i type="logical" name="LWAVE"> F  </i>
  <i type="logical" name="LCHARG"> F  </i>
  <v type="int" name="KPOINT_BSE">    -1     0     0     0</v>
  <i type="int" name="NELM">   400</i>
 </incar>
 <structure name="primitive_cell" >
  <crystal>
   <varray name="basis" >
    <v>       3.44492529       0.00000000       0.00000000 </v>
    <v>       0.00000000       3.44492529       0.00000000 </v>
    <v>       0.00000000       0.00000000       3.44492524 </v>
   </varray>
   <i name="volume">     40.88268566 </i>
   <varray name="rec_basis" >
    <v>       0.29028206       0.00000000       0.00000000 </v>
    <v>       0.00000000       0.29028206       0.00000000 </v>
    <v>       0.00000000       0.00000000       0.29028206 </v>
   </varray>
  </crystal>
  <varray name="positions" >
   <v>       0.00000000       0.00000000       0.00000000 </v>
   <v>       0.00000000      -0.49998976      -0.49998975 </v>
   <v>      -0.49998976       0.00000000      -0.49998975 </v>
   <v>      -0.49998976      -0.49998976       0.00000000 </v>
  </varray>
 </structure>
 <varray name="primitive_index" >
  <v type="int" >        1 </v>
  <v type="int" >        2 </v>
  <v type="int" >        3 </v>
  <v type="int" >        4 </v>
 </varray>
 <kpoints>
  <generation param="Monkhorst-Pack">
   <v type="int" name="divisions">       4        4        4 </v>
   <v name="usershift">      0.00000000       0.00000000       0.00000000 </v>
   <v name="genvec1">      0.25000000       0.00000000       0.00000000 </v>
   <v name="genvec2">      0.00000000       0.25000000       0.00000000 </v>
   <v name="genvec3">      0.00000000       0.00000000       0.25000000 </v>
   <v name="shift">      0.50000000       0.50000000       0.50000000 </v>
  </generation>
  <varray name="kpointlist" >
   <v>       0.12500000       0.12500000       0.12500000 </v>
   <v>       0.37500000       0.12500000       0.12500000 </v>
   <v>       0.37500000       0.37500000       0.12500000 </v>
   <v>       0.37500000       0.37500000       0.37500000 </v>
  </varray>
  <varray name="weights" >
   <v>       0.12500000 </v>
   <v>       0.37500000 </v>
   <v>       0.37500000 </v>
   <v>       0.12500000 </v>
  </varray>
 </kpoints>
 <parameters>
  <separator name="general" >
   <i type="string" name="SYSTEM">Opt</i>
   <i type="logical" name="LCOMPAT"> F  </i>
  </separator>
  <separator name="electronic" >
   <i type="string" name="PREC">normal</i>
   <i name="ENMAX">    350.00000000</i>
   <i name="ENAUG">    511.36800000</i>
   <i name="EDIFF">      0.00000100</i>
   <i type="int" name="IALGO">    68</i>
   <i type="int" name="IWAVPR">    11</i>
   <i type="int" name="NBANDS">   518</i>
   <i name="NELECT">    864.00000000</i>
   <i type="int" name="TURBO">     0</i>
   <i type="int" name="IRESTART">     0</i>
   <i type="int" name="NREBOOT">     0</i>
   <i type="int" name="NMIN">     0</i>
   <i name="EREF">      0.00000000</i>
   <separator name="electronic smearing" >
    <i type="int" name="ISMEAR">     1</i>
    <i name="SIGMA">      0.20000000</i>
    <i name="KSPACING">      0.50000000</i>
    <i type="logical" name="KGAMMA"> T  </i>
   </separator>
   <separator name="electronic projectors" >
    <i type="logical" name="LREAL"> T  </i>
    <v name="ROPT">     -0.00050000</v>
    <i type="int" name="LMAXPAW">  -100</i>
    <i type="int" name="LMAXMIX">     2</i>
    <i type="logical" name="NLSPLINE"> F  </i>
   </separator>
   <separator name="electronic startup" >
    <i type="int" name="ISTART">     0</i>
    <i type="int" name="ICHARG">     2</i>
    <i type="int" name="INIWAV">     1</i>
   </separator>
   <separator name="electronic spin" >
    <i type="int" name="ISPIN">     1</i>
    <i type="logical" name="LNONCOLLINEAR"> F  </i>
    <v name="MAGMOM">      1.00000000      1.00000000      1.00000000      1.00000000      1.00000000      1.00000000      1.00000000      1.00000000      1.00000000      1.00000000      1.00000000      1.00000000      1.00000000      1.00000000      1.00000000      1.00000000      1.00000000      1.00000000      1.00000000      1.00000000
      1.00000000      1.00000000      1.00000000      1.00000000      1.00000000      1.00000000      1.00000000      1.00000000      1.00000000      1.00000000      1.00000000      1.00000000      1.00000000      1.00000000      1.00000000      1.00000000      1.00000000      1.00000000      1.00000000      1.00000000
      1.00000000      1.00000000      1.00000000      1.00000000      1.00000000      1.00000000      1.00000000      1.00000000      1.00000000      1.00000000      1.00000000      1.00000000      1.00000000      1.00000000      1.00000000      1.00000000      1.00000000      1.00000000      1.00000000      1.00000000
      1.00000000      1.00000000      1.00000000      1.00000000      1.00000000      1.00000000      1.00000000      1.00000000      1.00000000      1.00000000      1.00000000      1.00000000      1.00000000      1.00000000      1.00000000      1.00000000      1.00000000      1.00000000      1.00000000      1.00000000
      1.00000000      1.00000000      1.00000000      1.00000000      1.00000000      1.00000000      1.00000000      1.00000000      1.00000000      1.00000000      1.00000000      1.00000000      1.00000000      1.00000000      1.00000000      1.00000000      1.00000000      1.00000000      1.00000000      1.00000000
      1.00000000      1.00000000      1.00000000      1.00000000      1.00000000      1.00000000      1.00000000      1.00000000</v>
    <i name="NUPDOWN">     -1.00000000</i>
    <i type="logical" name="LSORBIT"> F  </i>
    <v name="SAXIS">      0.00000000      0.00000000      1.00000000</v>
    <i type="logical" name="LSPIRAL"> F  </i>
    <v name="QSPIRAL">      0.00000000      0.00000000      0.00000000</v>
    <i type="logical" name="LZEROZ"> F  </i>
   </separator>
   <separator name="electronic exchange-correlation" >
    <i type="logical" name="LASPH"> F  </i>
    <i type="logical" name="LMETAGGA"> F  </i>
   </separator>
   <separator name="electronic convergence" >
    <i type="int" name="NELM">   400</i>
    <i type="int" name="NELMDL">    -5</i>
    <i type="int" name="NELMIN">     2</i>
    <i name="ENINI">    350.00000000</i>
    <separator name="electronic convergence detail" >
     <i type="logical" name="LDIAG"> T  </i>
     <i type="logical" name="LSUBROT"> F  </i>
     <i name="WEIMIN">      0.00100000</i>
     <i name="EBREAK">      0.00000000</i>
     <i name="DEPER">      0.30000000</i>
     <i type="int" name="NRMM">     4</i>
     <i name="TIME">      0.40000000</i>
    </separator>
   </separator>
   <separator name="electronic mixer" >
    <i name="AMIX">      0.40000000</i>
    <i name="BMIX">      1.00000000</i>
    <i name="AMIN">      0.10000000</i>
    <i name="AMIX_MAG">      1.60000000</i>
    <i name="BMIX_MAG">      1.00000000</i>
    <separator name="electronic mixer details" >
     <i type="int" name="IMIX">     4</i>
     <i type="logical" name="MIXFIRST"> F  </i>
     <i type="int" name="MAXMIX">   -45</i>
     <i name="WC">    100.00000000</i>
     <i type="int" name="INIMIX">     1</i>
     <i type="int" name="MIXPRE">     1</i>
     <i type="int" name="MREMOVE">     5</i>
    </separator>
   </separator>
   <separator name="electronic dipolcorrection" >
    <i type="logical" name="LDIPOL"> F  </i>
    <i type="logical" name="LMONO"> F  </i>
    <i type="int" name="IDIPOL">     0</i>
    <i name="EPSILON">      1.00000000</i>
    <v name="DIPOL">   -100.00000000   -100.00000000   -100.00000000</v>
    <i name="EFIELD">      0.00000000</i>
   </separator>
  </separator>
  <separator name="grids" >
   <i type="int" name="NGX">    72</i>
   <i type="int" name="NGY">    72</i>
   <i type="int" name="NGZ">    72</i>
   <i type="int" name="NGXF">   144</i>
   <i type="int" name="NGYF">   144</i>
   <i type="int" name="NGZF">   144</i>
   <i type="logical" name="ADDGRID"> F  </i>
  </separator>
  <separator name="ionic" >
   <i type="int" name="NSW">   100</i>
   <i type="int" name="IBRION">     2</i>
   <i type="int" name="MDALGO">     0</i>
   <i type="int" name="ISIF">     3</i>
   <i name="PSTRESS">      0.00000000</i>
   <i name="EDIFFG">     -0.01000000</i>
   <i type="int" name="NFREE">     1</i>
   <i name="POTIM">      0.50000000</i>
   <i name="SMASS">     -3.00000000</i>
   <i name="SCALEE">      1.00000000</i>
  </separator>
  <separator name="ionic md" >
   <i name="TEBEG">      0.00010000</i>
   <i name="TEEND">      0.00010000</i>
   <i type="int" name="NBLOCK">     1</i>
   <i type="int" name="KBLOCK">   100</i>
   <i type="int" name="NPACO">   256</i>
   <i name="APACO">     16.00000000</i>
  </separator>
  <separator name="symmetry" >
   <i type="int" name="ISYM">     2</i>
   <i name="SYMPREC">      0.00001000</i>
  </separator>
  <separator name="dos" >
   <i type="int" name="LORBIT">     0</i>
   <v name="RWIGS">     -1.00000000</v>
   <i type="int" name="NEDOS">   301</i>
   <i name="EMIN">     10.00000000</i>
   <i name="EMAX">    -10.00000000</i>
   <i name="EFERMI">      0.00000000</i>
  </separator>
  <separator name="writing" >
   <i type="int" name="NWRITE">     2</i>
   <i type="logical" name="LWAVE"> F  </i>
   <i type="logical" name="LDOWNSAMPLE"> F  </i>
   <i type="logical" name="LCHARG"> F  </i>
   <i type="logical" name="LPARD"> F  </i>
   <i type="logical" name="LVTOT"> F  </i>
   <i type="logical" name="LVHAR"> F  </i>
   <i type="logical" name="LELF"> F  </i>
   <i type="logical" name="LOPTICS"> F  </i>
   <v name="STM">      0.00000000      0.00000000      0.00000000      0.00000000      0.00000000      0.00000000      0.00000000</v>
  </separator>
  <separator name="performance" >
   <i type="int" name="NPAR">     2</i>
   <i type="int" name="NSIM">     4</i>
   <i type="int" name="NBLK">    -1</i>
   <i type="logical" name="LPLANE"> T  </i>
   <i type="logical" name="LSCALAPACK"> T  </i>
   <i type="logical" name="LSCAAWARE"> F  </i>
   <i type="logical" name="LSCALU"> F  </i>
   <i type="logical" name="LASYNC"> F  </i>
   <i type="logical" name="LORBITALREAL"> F  </i>
  </separator>
  <separator name="miscellaneous" >
   <i type="int" name="IDIOT">     3</i>
   <i type="int" name="ISPECIAL">     0</i>
   <i type="logical" name="LMUSIC"> F  </i>
   <v name="POMASS">     55.84700000</v>
   <v name="DARWINR">      0.00000000</v>
   <v name="DARWINV">      1.00000000</v>
   <i type="logical" name="LCORR"> T  </i>
  </separator>
  <i type="logical" name="GGA_COMPAT"> T  </i>
  <i type="logical" name="LBERRY"> F  </i>
  <i type="int" name="ICORELEVEL">     0</i>
  <i type="logical" name="LDAU"> F  </i>
  <i type="int" name="I_CONSTRAINED_M">     0</i>
  <separator name="electronic exchange-correlation" >
   <i type="string" name="GGA">--</i>
   <i type="int" name="VOSKOWN">     0</i>
   <i type="logical" name="LHFCALC"> F  </i>
   <i type="string" name="PRECFOCK"></i>
   <i type="logical" name="LSYMGRAD"> F  </i>
   <i type="logical" name="LHFONE"> F  </i>
   <i type="logical" name="LRHFCALC"> F  </i>
   <i type="logical" name="LTHOMAS"> F  </i>
   <i type="logical" name="LMODELHF"> F  </i>
   <i name="ENCUT4O">     -1.00000000</i>
   <i type="int" name="EXXOEP">     0</i>
   <i type="int" name="FOURORBIT">     0</i>
   <i name="AEXX">      0.00000000</i>
   <i name="HFALPHA">      0.00000000</i>
   <i name="MCALPHA">      0.00000000</i>
   <i name="ALDAX">      1.00000000</i>
   <i name="AGGAX">      1.00000000</i>
   <i name="ALDAC">      1.00000000</i>
   <i name="AGGAC">      1.00000000</i>
   <i type="int" name="NKREDX">     1</i>
   <i type="int" name="NKREDY">     1</i>
   <i type="int" name="NKREDZ">     1</i>
   <i type="logical" name="SHIFTRED"> F  </i>
   <i type="logical" name="ODDONLY"> F  </i>
   <i type="logical" name="EVENONLY"> F  </i>
   <i type="int" name="LMAXFOCK">     0</i>
   <i type="int" name="NMAXFOCKAE">     0</i>
   <i type="logical" name="LFOCKAEDFT"> F  </i>
   <i name="HFSCREEN">      0.00000000</i>
   <i name="HFSCREENC">      0.00000000</i>
   <i type="int" name="NBANDSGWLOW">     0</i>
  </separator>
  <separator name="vdW DFT" >
   <i type="logical" name="LUSE_VDW"> F  </i>
   <i name="Zab_VDW">     -0.84910000</i>
   <i name="PARAM1">      0.12340000</i>
   <i name="PARAM2">      1.00000000</i>
   <i name="PARAM3">      0.00000000</i>
  </separator>
  <separator name="model GW" >
   <i type="int" name="MODEL_GW">     0</i>
   <i name="MODEL_EPS0">      6.13252964</i>
   <i name="MODEL_ALPHA">      1.00000000</i>
  </separator>
  <separator name="linear response parameters" >
   <i type="logical" name="LEPSILON"> F  </i>
   <i type="logical" name="LRPA"> F  </i>
   <i type="logical" name="LNABLA"> F  </i>
   <i type="logical" name="LVEL"> F  </i>
   <i type="int" name="KINTER">     0</i>
   <i name="CSHIFT">      0.10000000</i>
   <i name="OMEGAMAX">     -1.00000000</i>
   <i name="DEG_THRESHOLD">      0.00200000</i>
   <i name="RTIME">     -0.10000000</i>
   <i name="WPLASMAI">      0.00000000</i>
   <v name="DFIELD">      0.00000000      0.00000000      0.00000000</v>
   <v name="WPLASMA">      0.00000000      0.00000000      0.00000000      0.00000000      0.00000000      0.00000000      0.00000000      0.00000000      0.00000000</v>
  </separator>
  <separator name="orbital magnetization" >
   <i type="logical" name="NUCIND"> F  </i>
   <v name="MAGPOS">      0.00000000      0.00000000      0.00000000</v>
   <i type="logical" name="LNICSALL"> T  </i>
   <i type="logical" name="ORBITALMAG"> F  </i>
   <i type="logical" name="LMAGBLOCH"> F  </i>
   <i type="logical" name="LCHIMAG"> F  </i>
   <i type="logical" name="LGAUGE"> T  </i>
   <i type="int" name="MAGATOM">     0</i>
   <v name="MAGDIPOL">      0.00000000      0.00000000      0.00000000</v>
   <v name="AVECCONST">      0.00000000      0.00000000      0.00000000</v>
  </separator>
  <separator name="response functions" >
   <i type="logical" name="LADDER"> F  </i>
   <i type="logical" name="LRPAFORCE"> F  </i>
   <i type="logical" name="LFXC"> F  </i>
   <i type="logical" name="LHARTREE"> T  </i>
   <i type="int" name="IBSE">     0</i>
   <v type="int" name="KPOINT">    -1     0     0     0</v>
   <i type="logical" name="LTCTE"> F  </i>
   <i type="logical" name="LTETE"> F  </i>
   <i type="logical" name="LTRIPLET"> F  </i>
   <i type="logical" name="LFXCEPS"> F  </i>
   <i type="logical" name="LFXHEG"> F  </i>
   <i type="int" name="NATURALO">     2</i>
   <i type="logical" name="L2ORDER"> F  </i>
   <i type="logical" name="LMP2LT"> F  </i>
   <i type="logical" name="LUSEW"> F  </i>
   <i name="ENCUTGW">     -2.00000000</i>
   <i name="ENCUTGWSOFT">     -2.00000000</i>
   <i name="ENCUTLF">     -1.00000000</i>
   <i type="int" name="LMAXMP2">    -1</i>
   <i name="SCISSOR">      0.00000000</i>
   <i type="int" name="NOMEGA">     0</i>
   <i type="int" name="NOMEGAR">     0</i>
   <i type="int" name="NBANDSGW">    -1</i>
   <i type="int" name="NBANDSO">    -1</i>
   <i type="int" name="NBANDSV">    -1</i>
   <i type="int" name="NELM">   400</i>
   <i type="int" name="NELMHF">     1</i>
   <i type="int" name="DIM">     3</i>
   <i type="int" name="ANTIRES">     0</i>
   <i name="OMEGAMAX">    -30.00000000</i>
   <i name="OMEGAMIN">    -30.00000000</i>
   <i name="OMEGATL">   -200.00000000</i>
   <i type="int" name="OMEGAGRID">   140</i>
   <i name="CSHIFT">     -0.10000000</i>
   <i type="logical" name="SELFENERGY"> F  </i>
   <i type="logical" name="LSPECTRAL"> F  </i>
   <i type="logical" name="LSPECTRALGW"> F  </i>
   <i type="logical" name="LSINGLES"> F  </i>
   <i type="logical" name="LFERMIGW"> F  </i>
   <i type="logical" name="ODDONLYGW"> F  </i>
   <i type="logical" name="EVENONLYGW"> F  </i>
   <i type="int" name="NKREDLFX">     1</i>
   <i type="int" name="NKREDLFY">     1</i>
   <i type="int" name="NKREDLFZ">     1</i>
   <i type="int" name="MAXMEM">  2800</i>
   <i type="int" name="TELESCOPE">     0</i>
   <i type="int" name="TAUPAR">     1</i>
   <i type="int" name="OMEGAPAR">    -1</i>
   <i name="LAMBDA">      1.00000000</i>
  </separator>
  <separator name="External order field" >
   <i name="OFIELD_KAPPA">      0.00000000</i>
   <v name="OFIELD_K">      0.00000000      0.00000000      0.00000000</v>
   <i name="OFIELD_Q6_NEAR">      0.00000000</i>
   <i name="OFIELD_Q6_FAR">      0.00000000</i>
   <i name="OFIELD_A">      0.00000000</i>
  </separator>
 </parameters>
 <atominfo>
  <atoms>     108 </atoms>
  <types>       1 </types>
  <array name="atoms" >
   <dimension dim="1">ion</dimension>
   <field type="string">element</field>
   <field type="int">atomtype</field>
   <set>
    <rc><c>Fe</c><c>   1</c></rc>
    <rc><c>Fe</c><c>   1</c></rc>
    <rc><c>Fe</c><c>   1</c></rc>
    <rc><c>Fe</c><c>   1</c></rc>
    <rc><c>Fe</c><c>   1</c></rc>
    <rc><c>Fe</c><c>   1</c></rc>
    <rc><c>Fe</c><c>   1</c></rc>
    <rc><c>Fe</c><c>   1</c></rc>
    <rc><c>Fe</c><c>   1</c></rc>
    <rc><c>Fe</c><c>   1</c></rc>
    <rc><c>Fe</c><c>   1</c></rc>
    <rc><c>Fe</c><c>   1</c></rc>
    <rc><c>Fe</c><c>   1</c></rc>
    <rc><c>Fe</c><c>   1</c></rc>
    <rc><c>Fe</c><c>   1</c></rc>
    <rc><c>Fe</c><c>   1</c></rc>
    <rc><c>Fe</c><c>   1</c></rc>
    <rc><c>Fe</c><c>   1</c></rc>
    <rc><c>Fe</c><c>   1</c></rc>
    <rc><c>Fe</c><c>   1</c></rc>
    <rc><c>Fe</c><c>   1</c></rc>
    <rc><c>Fe</c><c>   1</c></rc>
    <rc><c>Fe</c><c>   1</c></rc>
    <rc><c>Fe</c><c>   1</c></rc>
    <rc><c>Fe</c><c>   1</c></rc>
    <rc><c>Fe</c><c>   1</c></rc>
    <rc><c>Fe</c><c>   1</c></rc>
    <rc><c>Fe</c><c>   1</c></rc>
    <rc><c>Fe</c><c>   1</c></rc>
    <rc><c>Fe</c><c>   1</c></rc>
    <rc><c>Fe</c><c>   1</c></rc>
    <rc><c>Fe</c><c>   1</c></rc>
    <rc><c>Fe</c><c>   1</c></rc>
    <rc><c>Fe</c><c>   1</c></rc>
    <rc><c>Fe</c><c>   1</c></rc>
    <rc><c>Fe</c><c>   1</c></rc>
    <rc><c>Fe</c><c>   1</c></rc>
    <rc><c>Fe</c><c>   1</c></rc>
    <rc><c>Fe</c><c>   1</c></rc>
    <rc><c>Fe</c><c>   1</c></rc>
    <rc><c>Fe</c><c>   1</c></rc>
    <rc><c>Fe</c><c>   1</c></rc>
    <rc><c>Fe</c><c>   1</c></rc>
    <rc><c>Fe</c><c>   1</c></rc>
    <rc><c>Fe</c><c>   1</c></rc>
    <rc><c>Fe</c><c>   1</c></rc>
    <rc><c>Fe</c><c>   1</c></rc>
    <rc><c>Fe</c><c>   1</c></rc>
    <rc><c>Fe</c><c>   1</c></rc>
    <rc><c>Fe</c><c>   1</c></rc>
    <rc><c>Fe</c><c>   1</c></rc>
    <rc><c>Fe</c><c>   1</c></rc>
    <rc><c>Fe</c><c>   1</c></rc>
    <rc><c>Fe</c><c>   1</c></rc>
    <rc><c>Fe</c><c>   1</c></rc>
    <rc><c>Fe</c><c>   1</c></rc>
    <rc><c>Fe</c><c>   1</c></rc>
    <rc><c>Fe</c><c>   1</c></rc>
    <rc><c>Fe</c><c>   1</c></rc>
    <rc><c>Fe</c><c>   1</c></rc>
    <rc><c>Fe</c><c>   1</c></rc>
    <rc><c>Fe</c><c>   1</c></rc>
    <rc><c>Fe</c><c>   1</c></rc>
    <rc><c>Fe</c><c>   1</c></rc>
    <rc><c>Fe</c><c>   1</c></rc>
    <rc><c>Fe</c><c>   1</c></rc>
    <rc><c>Fe</c><c>   1</c></rc>
    <rc><c>Fe</c><c>   1</c></rc>
    <rc><c>Fe</c><c>   1</c></rc>
    <rc><c>Fe</c><c>   1</c></rc>
    <rc><c>Fe</c><c>   1</c></rc>
    <rc><c>Fe</c><c>   1</c></rc>
    <rc><c>Fe</c><c>   1</c></rc>
    <rc><c>Fe</c><c>   1</c></rc>
    <rc><c>Fe</c><c>   1</c></rc>
    <rc><c>Fe</c><c>   1</c></rc>
    <rc><c>Fe</c><c>   1</c></rc>
    <rc><c>Fe</c><c>   1</c></rc>
    <rc><c>Fe</c><c>   1</c></rc>
    <rc><c>Fe</c><c>   1</c></rc>
    <rc><c>Fe</c><c>   1</c></rc>
    <rc><c>Fe</c><c>   1</c></rc>
    <rc><c>Fe</c><c>   1</c></rc>
    <rc><c>Fe</c><c>   1</c></rc>
    <rc><c>Fe</c><c>   1</c></rc>
    <rc><c>Fe</c><c>   1</c></rc>
    <rc><c>Fe</c><c>   1</c></rc>
    <rc><c>Fe</c><c>   1</c></rc>
    <rc><c>Fe</c><c>   1</c></rc>
    <rc><c>Fe</c><c>   1</c></rc>
    <rc><c>Fe</c><c>   1</c></rc>
    <rc><c>Fe</c><c>   1</c></rc>
    <rc><c>Fe</c><c>   1</c></rc>
    <rc><c>Fe</c><c>   1</c></rc>
    <rc><c>Fe</c><c>   1</c></rc>
    <rc><c>Fe</c><c>   1</c></rc>
    <rc><c>Fe</c><c>   1</c></rc>
    <rc><c>Fe</c><c>   1</c></rc>
    <rc><c>Fe</c><c>   1</c></rc>
    <rc><c>Fe</c><c>   1</c></rc>
    <rc><c>Fe</c><c>   1</c></rc>
    <rc><c>Fe</c><c>   1</c></rc>
    <rc><c>Fe</c><c>   1</c></rc>
    <rc><c>Fe</c><c>   1</c></rc>
    <rc><c>Fe</c><c>   1</c></rc>
    <rc><c>Fe</c><c>   1</c></rc>
    <rc><c>Fe</c><c>   1</c></rc>
    <rc><c>Fe</c><c>   1</c></rc>
   </set>
  </array>
  <array name="atomtypes" >
   <dimension dim="1">type</dimension>
   <field type="int">atomspertype</field>
   <field type="string">element</field>
   <field>mass</field>
   <field>valence</field>
   <field type="string">pseudopotential</field>
   <set>
    <rc><c> 108</c><c>Fe</c><c>     55.84700000</c><c>      8.00000000</c><c> PAW_PBE Fe 06Sep2000                   </c></rc>
   </set>
  </array>
 </atominfo>
 <structure name="initialpos" >
  <crystal>
   <varray name="basis" >
    <v>      10.33484705       0.00000000       0.00000000 </v>
    <v>       0.00000000      10.33484705       0.00000000 </v>
    <v>       0.00000000       0.00000000      10.33484705 </v>
   </varray>
   <i name="volume">   1103.85533447 </i>
   <varray name="rec_basis" >
    <v>       0.09676002       0.00000000       0.00000000 </v>
    <v>       0.00000000       0.09676002       0.00000000 </v>
    <v>       0.00000000       0.00000000       0.09676002 </v>
   </varray>
  </crystal>
  <varray name="positions" >
   <v>       0.00000000       0.00000000       0.00000000 </v>
   <v>       0.00000000       0.16666893       0.16666893 </v>
   <v>       0.16666893       0.00000000       0.16666893 </v>
   <v>       0.16666893       0.16666893       0.00000000 </v>
   <v>       0.33333106       0.00000000       0.00000000 </v>
   <v>       0.33333107       0.16666893       0.16666893 </v>
   <v>       0.50000000       0.00000000       0.16666894 </v>
   <v>       0.50000000       0.16666894       0.00000000 </v>
   <v>       0.66666897       0.00000000       0.00000000 </v>
   <v>       0.66666896       0.16666893       0.16666893 </v>
   <v>       0.83333104       0.00000000       0.16666893 </v>
   <v>       0.83333104       0.16666893       0.00000000 </v>
   <v>       0.00000000       0.33333106       0.00000000 </v>
   <v>       0.00000000       0.50000000       0.16666894 </v>
   <v>       0.16666893       0.33333107       0.16666893 </v>
   <v>       0.16666894       0.50000000       0.00000000 </v>
   <v>       0.33333107       0.33333107       0.00000000 </v>
   <v>       0.33333107       0.50000000       0.16666893 </v>
   <v>       0.50000000       0.33333107       0.16666893 </v>
   <v>       0.50000000       0.50000000       0.00000000 </v>
   <v>       0.66666896       0.33333107       0.00000000 </v>
   <v>       0.66666896       0.50000000       0.16666893 </v>
   <v>       0.83333104       0.33333107       0.16666893 </v>
   <v>       0.83333103       0.50000000       0.00000000 </v>
   <v>       0.00000000       0.66666897       0.00000000 </v>
   <v>       0.00000000       0.83333104       0.16666893 </v>
   <v>       0.16666893       0.66666896       0.16666893 </v>
   <v>       0.16666893       0.83333104       0.00000000 </v>
   <v>       0.33333107       0.66666896       0.00000000 </v>
   <v>       0.33333107       0.83333104       0.16666893 </v>
   <v>       0.50000000       0.66666896       0.16666893 </v>
   <v>       0.50000000       0.83333103       0.00000000 </v>
   <v>       0.66666896       0.66666896       0.00000000 </v>
   <v>       0.66666896       0.83333104       0.16666893 </v>
   <v>       0.83333104       0.66666896       0.16666893 </v>
   <v>       0.83333104       0.83333104       0.00000000 </v>
   <v>       0.00000000       0.00000000       0.33333106 </v>
   <v>       0.00000000       0.16666894       0.50000000 </v>
   <v>       0.16666894       0.00000000       0.50000000 </v>
   <v>       0.16666893       0.16666893       0.33333107 </v>
   <v>       0.33333107       0.00000000       0.33333107 </v>
   <v>       0.33333107       0.16666893       0.50000000 </v>
   <v>       0.50000000       0.00000000       0.50000000 </v>
   <v>       0.50000000       0.16666893       0.33333107 </v>
   <v>       0.66666896       0.00000000       0.33333107 </v>
   <v>       0.66666896       0.16666893       0.50000000 </v>
   <v>       0.83333103       0.00000000       0.50000000 </v>
   <v>       0.83333104       0.16666893       0.33333107 </v>
   <v>       0.00000000       0.33333107       0.33333107 </v>
   <v>       0.00000000       0.50000000       0.50000000 </v>
   <v>       0.16666893       0.33333107       0.50000000 </v>
   <v>       0.16666893       0.50000000       0.33333107 </v>
   <v>       0.33333107       0.33333107       0.33333107 </v>
   <v>       0.33333106       0.50000000       0.50000000 </v>
   <v>       0.50000000       0.33333106       0.50000000 </v>
   <v>       0.50000000       0.50000000       0.33333106 </v>
   <v>       0.66666896       0.33333107       0.33333107 </v>
   <v>       0.66666897       0.50000000       0.50000000 </v>
   <v>       0.83333104       0.33333107       0.50000000 </v>
   <v>       0.83333104       0.50000000       0.33333107 </v>
   <v>       0.00000000       0.66666896       0.33333107 </v>
   <v>       0.00000000       0.83333103       0.50000000 </v>
   <v>       0.16666893       0.66666896       0.50000000 </v>
   <v>       0.16666893       0.83333104       0.33333107 </v>
   <v>       0.33333107       0.66666896       0.33333107 </v>
   <v>       0.33333107       0.83333104       0.50000000 </v>
   <v>       0.50000000       0.66666897       0.50000000 </v>
   <v>       0.50000000       0.83333104       0.33333107 </v>
   <v>       0.66666896       0.66666896       0.33333107 </v>
   <v>       0.66666896       0.83333104       0.50000000 </v>
   <v>       0.83333104       0.66666896       0.50000000 </v>
   <v>       0.83333104       0.83333104       0.33333107 </v>
   <v>       0.00000000       0.00000000       0.66666897 </v>
   <v>       0.00000000       0.16666893       0.83333104 </v>
   <v>       0.16666893       0.00000000       0.83333104 </v>
   <v>       0.16666893       0.16666893       0.66666896 </v>
   <v>       0.33333107       0.00000000       0.66666896 </v>
   <v>       0.33333107       0.16666893       0.83333104 </v>
   <v>       0.50000000       0.00000000       0.83333103 </v>
   <v>       0.50000000       0.16666893       0.66666896 </v>
   <v>       0.66666896       0.00000000       0.66666896 </v>
   <v>       0.66666896       0.16666893       0.83333104 </v>
   <v>       0.83333104       0.00000000       0.83333104 </v>
   <v>       0.83333104       0.16666893       0.66666896 </v>
   <v>       0.00000000       0.33333107       0.66666896 </v>
   <v>       0.00000000       0.50000000       0.83333103 </v>
   <v>       0.16666893       0.33333107       0.83333104 </v>
   <v>       0.16666893       0.50000000       0.66666896 </v>
   <v>       0.33333107       0.33333107       0.66666896 </v>
   <v>       0.33333107       0.50000000       0.83333104 </v>
   <v>       0.50000000       0.33333107       0.83333104 </v>
   <v>       0.50000000       0.50000000       0.66666897 </v>
   <v>       0.66666896       0.33333107       0.66666896 </v>
   <v>       0.66666896       0.50000000       0.83333104 </v>
   <v>       0.83333104       0.33333107       0.83333104 </v>
   <v>       0.83333104       0.50000000       0.66666896 </v>
   <v>       0.00000000       0.66666896       0.66666896 </v>
   <v>       0.00000000       0.83333104       0.83333104 </v>
   <v>       0.16666893       0.66666896       0.83333104 </v>
   <v>       0.16666893       0.83333104       0.66666896 </v>
   <v>       0.33333107       0.66666896       0.66666896 </v>
   <v>       0.33333107       0.83333104       0.83333104 </v>
   <v>       0.50000000       0.66666896       0.83333104 </v>
   <v>       0.50000000       0.83333104       0.66666896 </v>
   <v>       0.66666896       0.66666896       0.66666896 </v>
   <v>       0.66666896       0.83333104       0.83333104 </v>
   <v>       0.83333104       0.66666896       0.83333104 </v>
   <v>       0.83333104       0.83333104       0.66666896 </v>
  </varray>
 </structure>
 <calculation>
  <scstep>
   <time name="dav">   40.96   41.01</time>
   <time name="total">   41.30   41.35</time>
   <energy>
    <i name="alphaZ">   7300.31925852 </i>
    <i name="ewald"> -66232.83996889 </i>
    <i name="hartreedc"> -11197.02572337 </i>
    <i name="XCdc">    446.63038354 </i>
    <i name="pawpsdc">  51723.88885462 </i>
    <i name="pawaedc"> -52548.28121372 </i>
    <i name="eentropy">      0.01708656 </i>
    <i name="bandstr">  13358.69063325 </i>
    <i name="atom">  64200.40720934 </i>
    <i name="e_fr_energy">   7051.80651986 </i>
    <i name="e_wo_entrp">   7051.78943330 </i>
    <i name="e_0_energy">   7051.80082434 </i>
   </energy>
  </scstep>
  <scstep>
   <time name="dav">   40.75   40.77</time>
   <time name="total">   40.76   40.78</time>
   <energy>
    <i name="e_fr_energy">   -118.79776588 </i>
    <i name="e_wo_entrp">   -118.75524041 </i>
    <i name="e_0_energy">   -118.78359072 </i>
   </energy>
  </scstep>
  <scstep>
   <time name="dav">   42.82   42.84</time>
   <time name="total">   42.82   42.84</time>
   <energy>
    <i name="e_fr_energy">   -883.42618782 </i>
    <i name="e_wo_entrp">   -883.43667872 </i>
    <i name="e_0_energy">   -883.42968478 </i>
   </energy>
  </scstep>
  <scstep>
   <time name="dav">   65.65   65.67</time>
   <time name="total">   65.66   65.68</time>
   <energy>
    <i name="e_fr_energy">  -1032.58381459 </i>
    <i name="e_wo_entrp">  -1032.53216948 </i>
    <i name="e_0_energy">  -1032.56659956 </i>
   </energy>
  </scstep>
  <scstep>
   <time name="dav">   58.70   58.72</time>
   <time name="total">   60.83   60.85</time>
   <energy>
    <i name="e_fr_energy">  -1045.08579055 </i>
    <i name="e_wo_entrp">  -1044.97884737 </i>
    <i name="e_0_energy">  -1045.05014283 </i>
   </energy>
  </scstep>
  <scstep>
   <time name="diag">    4.58    4.58</time>
   <time name="diis">   27.48   27.50</time>
   <time name="orth">    0.85    0.85</time>
   <time name="total">   35.32   35.34</time>
   <energy>
    <i name="e_fr_energy">   -878.24158101 </i>
    <i name="e_wo_entrp">   -878.18529673 </i>
    <i name="e_0_energy">   -878.22281958 </i>
   </energy>
  </scstep>
  <scstep>
   <time name="diag">    4.61    4.61</time>
   <time name="diis">   30.00   30.01</time>
   <time name="orth">    0.81    0.81</time>
   <time name="total">   37.75   37.77</time>
   <energy>
    <i name="e_fr_energy">   -880.83249236 </i>
    <i name="e_wo_entrp">   -880.69374992 </i>
    <i name="e_0_energy">   -880.78624488 </i>
   </energy>
  </scstep>
  <scstep>
   <time name="diag">    4.68    4.68</time>
   <time name="diis">   29.08   29.10</time>
   <time name="orth">    0.82    0.82</time>
   <time name="total">   36.95   36.98</time>
   <energy>
    <i name="e_fr_energy">   -880.07006934 </i>
    <i name="e_wo_entrp">   -879.98934033 </i>
    <i name="e_0_energy">   -880.04315967 </i>
   </energy>
  </scstep>
  <scstep>
   <time name="diag">    4.78    4.79</time>
   <time name="diis">   35.54   35.56</time>
   <time name="orth">    0.81    0.81</time>
   <time name="total">   43.63   43.65</time>
   <energy>
    <i name="e_fr_energy">   -880.20254672 </i>
    <i name="e_wo_entrp">   -880.13175313 </i>
    <i name="e_0_energy">   -880.17894886 </i>
   </energy>
  </scstep>
  <scstep>
   <time name="diag">    4.93    4.93</time>
   <time name="diis">   34.31   34.32</time>
   <time name="orth">    0.86    0.86</time>
   <time name="total">   42.62   42.64</time>
   <energy>
    <i name="e_fr_energy">   -880.02651323 </i>
    <i name="e_wo_entrp">   -879.94622290 </i>
    <i name="e_0_energy">   -879.99974979 </i>
   </energy>
  </scstep>
  <scstep>
   <time name="diag">    5.04    5.05</time>
   <time name="diis">   36.51   36.52</time>
   <time name="orth">    0.88    0.88</time>
   <time name="total">   44.99   45.00</time>
   <energy>
    <i name="e_fr_energy">   -880.04121983 </i>
    <i name="e_wo_entrp">   -879.96276571 </i>
    <i name="e_0_energy">   -880.01506845 </i>
   </energy>
  </scstep>
  <scstep>
   <time name="diag">    5.05    5.05</time>
   <time name="diis">   29.13   29.13</time>
   <time name="orth">    0.87    0.87</time>
   <time name="total">   37.64   37.65</time>
   <energy>
    <i name="e_fr_energy">   -880.03524093 </i>
    <i name="e_wo_entrp">   -879.96041473 </i>
    <i name="e_0_energy">   -880.01029886 </i>
   </energy>
  </scstep>
  <scstep>
   <time name="diag">    5.08    5.08</time>
   <time name="diis">   35.44   35.44</time>
   <time name="orth">    0.88    0.88</time>
   <time name="total">   43.98   43.99</time>
   <energy>
    <i name="e_fr_energy">   -880.03605313 </i>
    <i name="e_wo_entrp">   -879.96214305 </i>
    <i name="e_0_energy">   -880.01141644 </i>
   </energy>
  </scstep>
  <scstep>
   <time name="diag">    5.08    5.08</time>
   <time name="diis">   31.09   31.09</time>
   <time name="orth">    0.86    0.86</time>
   <time name="total">   39.58   39.58</time>
   <energy>
    <i name="e_fr_energy">   -880.03609973 </i>
    <i name="e_wo_entrp">   -879.96240161 </i>
    <i name="e_0_energy">   -880.01153369 </i>
   </energy>
  </scstep>
  <scstep>
   <time name="diag">    5.08    5.08</time>
   <time name="diis">   37.11   37.12</time>
   <time name="orth">    0.88    0.88</time>
   <time name="total">   45.66   45.67</time>
   <energy>
    <i name="e_fr_energy">   -880.03605999 </i>
    <i name="e_wo_entrp">   -879.96280094 </i>
    <i name="e_0_energy">   -880.01164031 </i>
   </energy>
  </scstep>
  <scstep>
   <time name="diag">    5.07    5.07</time>
   <time name="diis">   24.72   24.72</time>
   <time name="orth">    0.86    0.86</time>
   <time name="total">   33.20   33.21</time>
   <energy>
    <i name="e_fr_energy">   -880.03602562 </i>
    <i name="e_wo_entrp">   -879.96314013 </i>
    <i name="e_0_energy">   -880.01173046 </i>
   </energy>
  </scstep>
  <scstep>
   <time name="diag">    4.96    4.96</time>
   <time name="diis">   19.93   19.93</time>
   <time name="orth">    0.87    0.87</time>
   <time name="total">   28.32   28.33</time>
   <energy>
    <i name="e_fr_energy">   -880.03598844 </i>
    <i name="e_wo_entrp">   -879.96352971 </i>
    <i name="e_0_energy">   -880.01183553 </i>
   </energy>
  </scstep>
  <scstep>
   <time name="diag">    4.97    4.97</time>
   <time name="diis">   18.19   18.19</time>
   <time name="orth">    0.87    0.87</time>
   <time name="total">   26.58   26.58</time>
   <energy>
    <i name="e_fr_energy">   -880.03595820 </i>
    <i name="e_wo_entrp">   -879.96383495 </i>
    <i name="e_0_energy">   -880.01191712 </i>
   </energy>
  </scstep>
  <scstep>
   <time name="diag">    4.98    4.98</time>
   <time name="diis">   17.79   17.79</time>
   <time name="orth">    0.87    0.87</time>
   <time name="total">   26.20   26.20</time>
   <energy>
    <i name="e_fr_energy">   -880.03594374 </i>
    <i name="e_wo_entrp">   -879.96399981 </i>
    <i name="e_0_energy">   -880.01196243 </i>
   </energy>
  </scstep>
  <scstep>
   <time name="diag">    4.99    4.99</time>
   <time name="diis">   17.41   17.41</time>
   <time name="orth">    0.87    0.87</time>
   <time name="total">   25.82   25.83</time>
   <energy>
    <i name="e_fr_energy">   -880.03593368 </i>
    <i name="e_wo_entrp">   -879.96413375 </i>
    <i name="e_0_energy">   -880.01200037 </i>
   </energy>
  </scstep>
  <scstep>
   <time name="diag">    5.02    5.02</time>
   <time name="diis">   17.05   17.06</time>
   <time name="orth">    0.87    0.87</time>
   <time name="total">   25.48   25.49</time>
   <energy>
    <i name="e_fr_energy">   -880.03592492 </i>
    <i name="e_wo_entrp">   -879.96424413 </i>
    <i name="e_0_energy">   -880.01203132 </i>
   </energy>
  </scstep>
  <scstep>
   <time name="diag">    4.95    4.95</time>
   <time name="diis">   16.73   16.74</time>
   <time name="orth">    0.87    0.87</time>
   <time name="total">   25.13   25.13</time>
   <energy>
    <i name="e_fr_energy">   -880.03591716 </i>
    <i name="e_wo_entrp">   -879.96434595 </i>
    <i name="e_0_energy">   -880.01206009 </i>
   </energy>
  </scstep>
  <scstep>
   <time name="diag">    4.86    4.86</time>
   <time name="diis">   16.34   16.34</time>
   <time name="orth">    0.87    0.87</time>
   <time name="total">   24.63   24.64</time>
   <energy>
    <i name="e_fr_energy">   -880.03590725 </i>
    <i name="e_wo_entrp">   -879.96446626 </i>
    <i name="e_0_energy">   -880.01209358 </i>
   </energy>
  </scstep>
  <scstep>
   <time name="diag">    4.82    4.82</time>
   <time name="diis">   15.74   15.74</time>
   <time name="orth">    0.87    0.87</time>
   <time name="total">   23.97   23.97</time>
   <energy>
    <i name="e_fr_energy">   -880.03590000 </i>
    <i name="e_wo_entrp">   -879.96455842 </i>
    <i name="e_0_energy">   -880.01211947 </i>
   </energy>
  </scstep>
  <scstep>
   <time name="diag">    4.71    4.71</time>
   <time name="diis">   15.50   15.50</time>
   <time name="orth">    0.87    0.87</time>
   <time name="total">   23.65   23.65</time>
   <energy>
    <i name="e_fr_energy">   -880.03589400 </i>
    <i name="e_wo_entrp">   -879.96463652 </i>
    <i name="e_0_energy">   -880.01214150 </i>
   </energy>
  </scstep>
  <scstep>
   <time name="diag">    4.71    4.72</time>
   <time name="diis">   14.89   14.89</time>
   <time name="orth">    0.87    0.87</time>
   <time name="total">   22.98   22.99</time>
   <energy>
    <i name="e_fr_energy">   -880.03588876 </i>
    <i name="e_wo_entrp">   -879.96470535 </i>
    <i name="e_0_energy">   -880.01216096 </i>
   </energy>
  </scstep>
  <scstep>
   <time name="diag">    4.74    4.74</time>
   <time name="diis">   14.49   14.50</time>
   <time name="orth">    0.88    0.88</time>
   <time name="total">   22.57   22.57</time>
   <energy>
    <i name="e_fr_energy">   -880.03588394 </i>
    <i name="e_wo_entrp">   -879.96476898 </i>
    <i name="e_0_energy">   -880.01217896 </i>
   </energy>
  </scstep>
  <scstep>
   <time name="diag">    4.74    4.74</time>
   <time name="diis">   14.04   14.05</time>
   <time name="orth">    0.87    0.87</time>
   <time name="total">   22.07   22.07</time>
   <energy>
    <i name="e_fr_energy">   -880.03587955 </i>
    <i name="e_wo_entrp">   -879.96482692 </i>
    <i name="e_0_energy">   -880.01219534 </i>
   </energy>
  </scstep>
  <scstep>
   <time name="diag">    4.74    4.75</time>
   <time name="diis">   13.71   13.71</time>
   <time name="orth">    0.87    0.87</time>
   <time name="total">   21.76   21.76</time>
   <energy>
    <i name="e_fr_energy">   -880.03587551 </i>
    <i name="e_wo_entrp">   -879.96488065 </i>
    <i name="e_0_energy">   -880.01221056 </i>
   </energy>
  </scstep>
  <scstep>
   <time name="diag">    4.77    4.77</time>
   <time name="diis">   13.51   13.51</time>
   <time name="orth">    0.87    0.87</time>
   <time name="total">   21.58   21.58</time>
   <energy>
    <i name="e_fr_energy">   -880.03587179 </i>
    <i name="e_wo_entrp">   -879.96493009 </i>
    <i name="e_0_energy">   -880.01222456 </i>
   </energy>
  </scstep>
  <scstep>
   <time name="diag">    4.82    4.82</time>
   <time name="diis">   13.44   13.44</time>
   <time name="orth">    0.86    0.86</time>
   <time name="total">   21.49   21.49</time>
   <energy>
    <i name="e_fr_energy">   -880.03586836 </i>
    <i name="e_wo_entrp">   -879.96497577 </i>
    <i name="e_0_energy">   -880.01223750 </i>
   </energy>
  </scstep>
  <scstep>
   <time name="diag">    4.87    4.87</time>
   <time name="diis">   13.21   13.21</time>
   <time name="orth">    0.84    0.84</time>
   <time name="total">   21.37   21.37</time>
   <energy>
    <i name="e_fr_energy">   -880.03586521 </i>
    <i name="e_wo_entrp">   -879.96501766 </i>
    <i name="e_0_energy">   -880.01224936 </i>
   </energy>
  </scstep>
  <scstep>
   <time name="diag">    4.81    4.81</time>
   <time name="diis">   13.06   13.07</time>
   <time name="orth">    0.84    0.84</time>
   <time name="total">   21.19   21.19</time>
   <energy>
    <i name="e_fr_energy">   -880.03586232 </i>
    <i name="e_wo_entrp">   -879.96505605 </i>
    <i name="e_0_energy">   -880.01226023 </i>
   </energy>
  </scstep>
  <scstep>
   <time name="diag">    4.86    4.87</time>
   <time name="diis">   12.87   12.87</time>
   <time name="orth">    0.82    0.82</time>
   <time name="total">   21.07   21.07</time>
   <energy>
    <i name="e_fr_energy">   -880.03585966 </i>
    <i name="e_wo_entrp">   -879.96509150 </i>
    <i name="e_0_energy">   -880.01227028 </i>
   </energy>
  </scstep>
  <scstep>
   <time name="diag">    4.84    4.84</time>
   <time name="diis">   12.78   12.78</time>
   <time name="orth">    0.82    0.82</time>
   <time name="total">   20.98   20.98</time>
   <energy>
    <i name="e_fr_energy">   -880.03585723 </i>
    <i name="e_wo_entrp">   -879.96512393 </i>
    <i name="e_0_energy">   -880.01227946 </i>
   </energy>
  </scstep>
  <scstep>
   <time name="diag">    4.84    4.84</time>
   <time name="diis">   12.70   12.70</time>
   <time name="orth">    0.85    0.85</time>
   <time name="total">   20.92   20.92</time>
   <energy>
    <i name="e_fr_energy">   -880.03585500 </i>
    <i name="e_wo_entrp">   -879.96515369 </i>
    <i name="e_0_energy">   -880.01228790 </i>
   </energy>
  </scstep>
  <scstep>
   <time name="diag">    4.88    4.88</time>
   <time name="diis">   12.46   12.46</time>
   <time name="orth">    0.86    0.86</time>
   <time name="total">   20.72   20.72</time>
   <energy>
    <i name="e_fr_energy">   -880.03585296 </i>
    <i name="e_wo_entrp">   -879.96518093 </i>
    <i name="e_0_energy">   -880.01229562 </i>
   </energy>
  </scstep>
  <scstep>
   <time name="diag">    4.87    4.87</time>
   <time name="diis">   12.27   12.27</time>
   <time name="orth">    0.87    0.87</time>
   <time name="total">   20.54   20.54</time>
   <energy>
    <i name="e_fr_energy">   -880.03585110 </i>
    <i name="e_wo_entrp">   -879.96520590 </i>
    <i name="e_0_energy">   -880.01230270 </i>
   </energy>
  </scstep>
  <scstep>
   <time name="diag">    4.87    4.87</time>
   <time name="diis">   12.36   12.36</time>
   <time name="orth">    0.87    0.87</time>
   <time name="total">   20.63   20.63</time>
   <energy>
    <i name="e_fr_energy">   -880.03584940 </i>
    <i name="e_wo_entrp">   -879.96522863 </i>
    <i name="e_0_energy">   -880.01230914 </i>
   </energy>
  </scstep>
  <scstep>
   <time name="diag">    4.88    4.88</time>
   <time name="diis">   12.14   12.14</time>
   <time name="orth">    0.87    0.87</time>
   <time name="total">   20.41   20.42</time>
   <energy>
    <i name="e_fr_energy">   -880.03584784 </i>
    <i name="e_wo_entrp">   -879.96524951 </i>
    <i name="e_0_energy">   -880.01231507 </i>
   </energy>
  </scstep>
  <scstep>
   <time name="diag">    4.91    4.91</time>
   <time name="diis">   12.12   12.12</time>
   <time name="orth">    0.87    0.87</time>
   <time name="total">   20.42   20.42</time>
   <energy>
    <i name="e_fr_energy">   -880.03584642 </i>
    <i name="e_wo_entrp">   -879.96526851 </i>
    <i name="e_0_energy">   -880.01232045 </i>
   </energy>
  </scstep>
  <scstep>
   <time name="diag">    4.90    4.90</time>
   <time name="diis">   11.92   11.93</time>
   <time name="orth">    0.87    0.87</time>
   <time name="total">   20.22   20.22</time>
   <energy>
    <i name="e_fr_energy">   -880.03584514 </i>
    <i name="e_wo_entrp">   -879.96528595 </i>
    <i name="e_0_energy">   -880.01232541 </i>
   </energy>
  </scstep>
  <scstep>
   <time name="diag">    4.91    4.91</time>
   <time name="diis">   12.06   12.06</time>
   <time name="orth">    0.87    0.88</time>
   <time name="total">   20.37   20.37</time>
   <energy>
    <i name="e_fr_energy">   -880.03584396 </i>
    <i name="e_wo_entrp">   -879.96530180 </i>
    <i name="e_0_energy">   -880.01232990 </i>
   </energy>
  </scstep>
  <scstep>
   <time name="diag">    4.92    4.92</time>
   <time name="diis">   11.94   11.94</time>
   <time name="orth">    0.86    0.86</time>
   <time name="total">   20.21   20.21</time>
   <energy>
    <i name="e_fr_energy">   -880.03584288 </i>
    <i name="e_wo_entrp">   -879.96531630 </i>
    <i name="e_0_energy">   -880.01233402 </i>
   </energy>
  </scstep>
  <scstep>
   <time name="diag">    4.77    4.77</time>
   <time name="diis">   11.71   11.71</time>
   <time name="orth">    0.86    0.86</time>
   <time name="total">   17.70   17.70</time>
   <energy>
    <i name="alphaZ">   7300.31925852 </i>
    <i name="ewald"> -66232.83996889 </i>
    <i name="hartreedc">  -9347.15936849 </i>
    <i name="XCdc">    360.71973599 </i>
    <i name="pawpsdc">  57980.73655556 </i>
    <i name="pawaedc"> -58920.25640034 </i>
    <i name="eentropy">     -0.07051232 </i>
    <i name="bandstr">   3778.10764873 </i>
    <i name="atom">  64200.40720934 </i>
    <i name="e_fr_energy">   -880.03584191 </i>
    <i name="e_wo_entrp">   -879.96532959 </i>
    <i name="e_0_energy">   -880.01233780 </i>
   </energy>
  </scstep>
  <structure>
   <crystal>
    <varray name="basis" >
     <v>      10.33484705       0.00000000       0.00000000 </v>
     <v>       0.00000000      10.33484705       0.00000000 </v>
     <v>       0.00000000       0.00000000      10.33484705 </v>
    </varray>
    <i name="volume">   1103.85533447 </i>
    <varray name="rec_basis" >
     <v>       0.09676002       0.00000000       0.00000000 </v>
     <v>       0.00000000       0.09676002       0.00000000 </v>
     <v>       0.00000000       0.00000000       0.09676002 </v>
    </varray>
   </crystal>
   <varray name="positions" >
    <v>       0.00000000       0.00000000       0.00000000 </v>
    <v>       0.00000000       0.16666893       0.16666893 </v>
    <v>       0.16666893       0.00000000       0.16666893 </v>
    <v>       0.16666893       0.16666893       0.00000000 </v>
    <v>       0.33333106       0.00000000       0.00000000 </v>
    <v>       0.33333107       0.16666893       0.16666893 </v>
    <v>       0.50000000       0.00000000       0.16666894 </v>
    <v>       0.50000000       0.16666894       0.00000000 </v>
    <v>       0.66666897       0.00000000       0.00000000 </v>
    <v>       0.66666896       0.16666893       0.16666893 </v>
    <v>       0.83333104       0.00000000       0.16666893 </v>
    <v>       0.83333104       0.16666893       0.00000000 </v>
    <v>       0.00000000       0.33333106       0.00000000 </v>
    <v>       0.00000000       0.50000000       0.16666894 </v>
    <v>       0.16666893       0.33333107       0.16666893 </v>
    <v>       0.16666894       0.50000000       0.00000000 </v>
    <v>       0.33333107       0.33333107       0.00000000 </v>
    <v>       0.33333107       0.50000000       0.16666893 </v>
    <v>       0.50000000       0.33333107       0.16666893 </v>
    <v>       0.50000000       0.50000000       0.00000000 </v>
    <v>       0.66666896       0.33333107       0.00000000 </v>
    <v>       0.66666896       0.50000000       0.16666893 </v>
    <v>       0.83333104       0.33333107       0.16666893 </v>
    <v>       0.83333103       0.50000000       0.00000000 </v>
    <v>       0.00000000       0.66666897       0.00000000 </v>
    <v>       0.00000000       0.83333104       0.16666893 </v>
    <v>       0.16666893       0.66666896       0.16666893 </v>
    <v>       0.16666893       0.83333104       0.00000000 </v>
    <v>       0.33333107       0.66666896       0.00000000 </v>
    <v>       0.33333107       0.83333104       0.16666893 </v>
    <v>       0.50000000       0.66666896       0.16666893 </v>
    <v>       0.50000000       0.83333103       0.00000000 </v>
    <v>       0.66666896       0.66666896       0.00000000 </v>
    <v>       0.66666896       0.83333104       0.16666893 </v>
    <v>       0.83333104       0.66666896       0.16666893 </v>
    <v>       0.83333104       0.83333104       0.00000000 </v>
    <v>       0.00000000       0.00000000       0.33333106 </v>
    <v>       0.00000000       0.16666894       0.50000000 </v>
    <v>       0.16666894       0.00000000       0.50000000 </v>
    <v>       0.16666893       0.16666893       0.33333107 </v>
    <v>       0.33333107       0.00000000       0.33333107 </v>
    <v>       0.33333107       0.16666893       0.50000000 </v>
    <v>       0.50000000       0.00000000       0.50000000 </v>
    <v>       0.50000000       0.16666893       0.33333107 </v>
    <v>       0.66666896       0.00000000       0.33333107 </v>
    <v>       0.66666896       0.16666893       0.50000000 </v>
    <v>       0.83333103       0.00000000       0.50000000 </v>
    <v>       0.83333104       0.16666893       0.33333107 </v>
    <v>       0.00000000       0.33333107       0.33333107 </v>
    <v>       0.00000000       0.50000000       0.50000000 </v>
    <v>       0.16666893       0.33333107       0.50000000 </v>
    <v>       0.16666893       0.50000000       0.33333107 </v>
    <v>       0.33333107       0.33333107       0.33333107 </v>
    <v>       0.33333106       0.50000000       0.50000000 </v>
    <v>       0.50000000       0.33333106       0.50000000 </v>
    <v>       0.50000000       0.50000000       0.33333106 </v>
    <v>       0.66666896       0.33333107       0.33333107 </v>
    <v>       0.66666897       0.50000000       0.50000000 </v>
    <v>       0.83333104       0.33333107       0.50000000 </v>
    <v>       0.83333104       0.50000000       0.33333107 </v>
    <v>       0.00000000       0.66666896       0.33333107 </v>
    <v>       0.00000000       0.83333103       0.50000000 </v>
    <v>       0.16666893       0.66666896       0.50000000 </v>
    <v>       0.16666893       0.83333104       0.33333107 </v>
    <v>       0.33333107       0.66666896       0.33333107 </v>
    <v>       0.33333107       0.83333104       0.50000000 </v>
    <v>       0.50000000       0.66666897       0.50000000 </v>
    <v>       0.50000000       0.83333104       0.33333107 </v>
    <v>       0.66666896       0.66666896       0.33333107 </v>
    <v>       0.66666896       0.83333104       0.50000000 </v>
    <v>       0.83333104       0.66666896       0.50000000 </v>
    <v>       0.83333104       0.83333104       0.33333107 </v>
    <v>       0.00000000       0.00000000       0.66666897 </v>
    <v>       0.00000000       0.16666893       0.83333104 </v>
    <v>       0.16666893       0.00000000       0.83333104 </v>
    <v>       0.16666893       0.16666893       0.66666896 </v>
    <v>       0.33333107       0.00000000       0.66666896 </v>
    <v>       0.33333107       0.16666893       0.83333104 </v>
    <v>       0.50000000       0.00000000       0.83333103 </v>
    <v>       0.50000000       0.16666893       0.66666896 </v>
    <v>       0.66666896       0.00000000       0.66666896 </v>
    <v>       0.66666896       0.16666893       0.83333104 </v>
    <v>       0.83333104       0.00000000       0.83333104 </v>
    <v>       0.83333104       0.16666893       0.66666896 </v>
    <v>       0.00000000       0.33333107       0.66666896 </v>
    <v>       0.00000000       0.50000000       0.83333103 </v>
    <v>       0.16666893       0.33333107       0.83333104 </v>
    <v>       0.16666893       0.50000000       0.66666896 </v>
    <v>       0.33333107       0.33333107       0.66666896 </v>
    <v>       0.33333107       0.50000000       0.83333104 </v>
    <v>       0.50000000       0.33333107       0.83333104 </v>
    <v>       0.50000000       0.50000000       0.66666897 </v>
    <v>       0.66666896       0.33333107       0.66666896 </v>
    <v>       0.66666896       0.50000000       0.83333104 </v>
    <v>       0.83333104       0.33333107       0.83333104 </v>
    <v>       0.83333104       0.50000000       0.66666896 </v>
    <v>       0.00000000       0.66666896       0.66666896 </v>
    <v>       0.00000000       0.83333104       0.83333104 </v>
    <v>       0.16666893       0.66666896       0.83333104 </v>
    <v>       0.16666893       0.83333104       0.66666896 </v>
    <v>       0.33333107       0.66666896       0.66666896 </v>
    <v>       0.33333107       0.83333104       0.83333104 </v>
    <v>       0.50000000       0.66666896       0.83333104 </v>
    <v>       0.50000000       0.83333104       0.66666896 </v>
    <v>       0.66666896       0.66666896       0.66666896 </v>
    <v>       0.66666896       0.83333104       0.83333104 </v>
    <v>       0.83333104       0.66666896       0.83333104 </v>
    <v>       0.83333104       0.83333104       0.66666896 </v>
   </varray>
  </structure>
  <varray name="forces" >
   <v>      -0.00000000       0.00000000       0.00000000 </v>
   <v>      -0.00000000      -0.00000000      -0.00000000 </v>
   <v>       0.00000000       0.00000000       0.00000000 </v>
   <v>       0.00000000       0.00000000       0.00000000 </v>
   <v>       0.00000000      -0.00000000      -0.00000000 </v>
   <v>      -0.00000000      -0.00000000      -0.00000000 </v>
   <v>       0.00000000       0.00000000      -0.00000000 </v>
   <v>       0.00000000       0.00000000       0.00000000 </v>
   <v>      -0.00000000       0.00000000       0.00000000 </v>
   <v>      -0.00000000      -0.00000000      -0.00000000 </v>
   <v>       0.00000000       0.00000000      -0.00000000 </v>
   <v>       0.00000000       0.00000000       0.00000000 </v>
   <v>      -0.00000000       0.00000000      -0.00000000 </v>
   <v>       0.00000000       0.00000000      -0.00000000 </v>
   <v>      -0.00000000      -0.00000000       0.00000000 </v>
   <v>       0.00000000       0.00000000       0.00000000 </v>
   <v>       0.00000000       0.00000000      -0.00000000 </v>
   <v>      -0.00000000      -0.00000000       0.00000000 </v>
   <v>      -0.00000000      -0.00000000      -0.00000000 </v>
   <v>      -0.00000000       0.00000000      -0.00000000 </v>
   <v>       0.00000000       0.00000000       0.00000000 </v>
   <v>       0.00000000       0.00000000      -0.00000000 </v>
   <v>       0.00000000      -0.00000000      -0.00000000 </v>
   <v>       0.00000000       0.00000000      -0.00000000 </v>
   <v>      -0.00000000       0.00000000       0.00000000 </v>
   <v>       0.00000000       0.00000000       0.00000000 </v>
   <v>      -0.00000000      -0.00000000      -0.00000000 </v>
   <v>       0.00000000      -0.00000000       0.00000000 </v>
   <v>      -0.00000000      -0.00000000       0.00000000 </v>
   <v>      -0.00000000      -0.00000000       0.00000000 </v>
   <v>       0.00000000      -0.00000000       0.00000000 </v>
   <v>       0.00000000       0.00000000      -0.00000000 </v>
   <v>       0.00000000       0.00000000      -0.00000000 </v>
   <v>      -0.00000000       0.00000000      -0.00000000 </v>
   <v>      -0.00000000      -0.00000000      -0.00000000 </v>
   <v>       0.00000000      -0.00000000      -0.00000000 </v>
   <v>       0.00000000      -0.00000000      -0.00000000 </v>
   <v>      -0.00000000      -0.00000000      -0.00000000 </v>
   <v>      -0.00000000       0.00000000      -0.00000000 </v>
   <v>      -0.00000000      -0.00000000      -0.00000000 </v>
   <v>       0.00000000       0.00000000       0.00000000 </v>
   <v>       0.00000000      -0.00000000      -0.00000000 </v>
   <v>      -0.00000000      -0.00000000      -0.00000000 </v>
   <v>      -0.00000000      -0.00000000      -0.00000000 </v>
   <v>       0.00000000       0.00000000      -0.00000000 </v>
   <v>       0.00000000       0.00000000      -0.00000000 </v>
   <v>      -0.00000000       0.00000000       0.00000000 </v>
   <v>       0.00000000       0.00000000      -0.00000000 </v>
   <v>       0.00000000      -0.00000000       0.00000000 </v>
   <v>       0.00000000      -0.00000000       0.00000000 </v>
   <v>      -0.00000000      -0.00000000      -0.00000000 </v>
   <v>       0.00000000       0.00000000       0.00000000 </v>
   <v>      -0.00000000       0.00000000      -0.00000000 </v>
   <v>       0.00000000       0.00000000      -0.00000000 </v>
   <v>       0.00000000       0.00000000       0.00000000 </v>
   <v>       0.00000000      -0.00000000       0.00000000 </v>
   <v>       0.00000000       0.00000000      -0.00000000 </v>
   <v>      -0.00000000      -0.00000000      -0.00000000 </v>
   <v>      -0.00000000       0.00000000       0.00000000 </v>
   <v>      -0.00000000       0.00000000       0.00000000 </v>
   <v>      -0.00000000      -0.00000000      -0.00000000 </v>
   <v>      -0.00000000       0.00000000       0.00000000 </v>
   <v>      -0.00000000      -0.00000000      -0.00000000 </v>
   <v>       0.00000000      -0.00000000      -0.00000000 </v>
   <v>       0.00000000      -0.00000000      -0.00000000 </v>
   <v>       0.00000000       0.00000000      -0.00000000 </v>
   <v>       0.00000000      -0.00000000       0.00000000 </v>
   <v>       0.00000000       0.00000000       0.00000000 </v>
   <v>      -0.00000000       0.00000000       0.00000000 </v>
   <v>       0.00000000       0.00000000       0.00000000 </v>
   <v>      -0.00000000      -0.00000000      -0.00000000 </v>
   <v>      -0.00000000      -0.00000000       0.00000000 </v>
   <v>      -0.00000000      -0.00000000       0.00000000 </v>
   <v>       0.00000000       0.00000000       0.00000000 </v>
   <v>       0.00000000      -0.00000000       0.00000000 </v>
   <v>       0.00000000       0.00000000       0.00000000 </v>
   <v>      -0.00000000      -0.00000000       0.00000000 </v>
   <v>      -0.00000000      -0.00000000       0.00000000 </v>
   <v>       0.00000000       0.00000000       0.00000000 </v>
   <v>      -0.00000000      -0.00000000       0.00000000 </v>
   <v>      -0.00000000      -0.00000000       0.00000000 </v>
   <v>      -0.00000000      -0.00000000      -0.00000000 </v>
   <v>       0.00000000       0.00000000       0.00000000 </v>
   <v>      -0.00000000       0.00000000       0.00000000 </v>
   <v>      -0.00000000       0.00000000      -0.00000000 </v>
   <v>      -0.00000000       0.00000000       0.00000000 </v>
   <v>      -0.00000000      -0.00000000       0.00000000 </v>
   <v>      -0.00000000      -0.00000000      -0.00000000 </v>
   <v>      -0.00000000       0.00000000       0.00000000 </v>
   <v>       0.00000000      -0.00000000       0.00000000 </v>
   <v>       0.00000000      -0.00000000      -0.00000000 </v>
   <v>       0.00000000      -0.00000000      -0.00000000 </v>
   <v>       0.00000000       0.00000000      -0.00000000 </v>
   <v>      -0.00000000       0.00000000       0.00000000 </v>
   <v>      -0.00000000      -0.00000000      -0.00000000 </v>
   <v>      -0.00000000      -0.00000000      -0.00000000 </v>
   <v>      -0.00000000      -0.00000000       0.00000000 </v>
   <v>       0.00000000       0.00000000       0.00000000 </v>
   <v>       0.00000000      -0.00000000       0.00000000 </v>
   <v>      -0.00000000      -0.00000000       0.00000000 </v>
   <v>      -0.00000000      -0.00000000       0.00000000 </v>
   <v>      -0.00000000       0.00000000       0.00000000 </v>
   <v>       0.00000000      -0.00000000      -0.00000000 </v>
   <v>       0.00000000       0.00000000      -0.00000000 </v>
   <v>      -0.00000000       0.00000000      -0.00000000 </v>
   <v>       0.00000000       0.00000000       0.00000000 </v>
   <v>       0.00000000      -0.00000000       0.00000000 </v>
   <v>      -0.00000000       0.00000000      -0.00000000 </v>
  </varray>
  <varray name="stress" >
   <v>       1.40241537       0.00000000       0.00000000 </v>
   <v>       0.00000000       1.40241537      -0.00000000 </v>
   <v>      -0.00000000       0.00000000       1.40241537 </v>
  </varray>
  <energy>
   <i name="e_fr_energy">   -880.03584191 </i>
   <i name="e_wo_entrp">   -880.01233780 </i>
   <i name="e_0_energy">     -0.07051232 </i>
  </energy>
  <time name="totalsc"> 1401.52 1401.90</time>
  <eigenvalues>
   <array>
    <dimension dim="1">band</dimension>
    <dimension dim="2">kpoint</dimension>
    <dimension dim="3">spin</dimension>
    <field>eigene</field>
    <field>occ</field>
    <set>
     <set comment="spin 1">
      <set comment="kpoint 1">
       <r>   -1.9271    1.0000 </r>
       <r>   -0.7943    1.0000 </r>
       <r>   -0.7943    1.0000 </r>
       <r>   -0.7943    1.0000 </r>
       <r>   -0.1106    1.0000 </r>
       <r>   -0.1106    1.0000 </r>
       <r>   -0.1106    1.0000 </r>
       <r>    0.2222    1.0000 </r>
       <r>    0.2222    1.0000 </r>
       <r>    0.2222    1.0000 </r>
       <r>    0.8293    1.0000 </r>
       <r>    0.8293    1.0000 </r>
       <r>    0.8293    1.0000 </r>
       <r>    0.8293    1.0000 </r>
       <r>    0.8293    1.0000 </r>
       <r>    0.8293    1.0000 </r>
       <r>    0.9359    1.0000 </r>
       <r>    1.3319    1.0000 </r>
       <r>    1.3319    1.0000 </r>
       <r>    1.3319    1.0000 </r>
       <r>    1.3791    1.0000 </r>
       <r>    1.3791    1.0000 </r>
       <r>    1.3791    1.0000 </r>
       <r>    1.6003    1.0000 </r>
       <r>    1.6003    1.0000 </r>
       <r>    1.6003    1.0000 </r>
       <r>    1.7338    1.0000 </r>
       <r>    1.8055    1.0000 </r>
       <r>    1.8055    1.0000 </r>
       <r>    1.8055    1.0000 </r>
       <r>    1.9052    1.0000 </r>
       <r>    1.9052    1.0000 </r>
       <r>    1.9052    1.0000 </r>
       <r>    2.0013    1.0000 </r>
       <r>    2.0013    1.0000 </r>
       <r>    2.0013    1.0000 </r>
       <r>    2.3590    1.0000 </r>
       <r>    2.3590    1.0000 </r>
       <r>    2.3590    1.0000 </r>
       <r>    2.4818    1.0000 </r>
       <r>    2.4818    1.0000 </r>
       <r>    2.4818    1.0000 </r>
       <r>    2.4818    1.0000 </r>
       <r>    2.4818    1.0000 </r>
       <r>    2.4818    1.0000 </r>
       <r>    2.4967    1.0000 </r>
       <r>    2.4967    1.0000 </r>
       <r>    2.4967    1.0000 </r>
       <r>    2.5411    1.0000 </r>
       <r>    2.5411    1.0000 </r>
       <r>    2.5411    1.0000 </r>
       <r>    2.5411    1.0000 </r>
       <r>    2.5411    1.0000 </r>
       <r>    2.5411    1.0000 </r>
       <r>    2.5659    1.0000 </r>
       <r>    2.5659    1.0000 </r>
       <r>    2.5659    1.0000 </r>
       <r>    2.5659    1.0000 </r>
       <r>    2.5659    1.0000 </r>
       <r>    2.5659    1.0000 </r>
       <r>    2.6418    1.0000 </r>
       <r>    2.6418    1.0000 </r>
       <r>    2.6418    1.0000 </r>
       <r>    2.6448    1.0000 </r>
       <r>    2.6448    1.0000 </r>
       <r>    2.6448    1.0000 </r>
       <r>    2.7368    1.0000 </r>
       <r>    2.7368    1.0000 </r>
       <r>    2.7368    1.0000 </r>
       <r>    2.7368    1.0000 </r>
       <r>    2.7368    1.0000 </r>
       <r>    2.7368    1.0000 </r>
       <r>    2.7763    1.0000 </r>
       <r>    2.7763    1.0000 </r>
       <r>    2.7763    1.0000 </r>
       <r>    2.7763    1.0000 </r>
       <r>    2.7763    1.0000 </r>
       <r>    2.7763    1.0000 </r>
       <r>    2.7791    1.0000 </r>
       <r>    2.7791    1.0000 </r>
       <r>    2.7791    1.0000 </r>
       <r>    2.8341    1.0000 </r>
       <r>    2.8341    1.0000 </r>
       <r>    2.8341    1.0000 </r>
       <r>    2.8341    1.0000 </r>
       <r>    2.8341    1.0000 </r>
       <r>    2.8341    1.0000 </r>
       <r>    2.9457    1.0000 </r>
       <r>    2.9457    1.0000 </r>
       <r>    2.9457    1.0000 </r>
       <r>    2.9457    1.0000 </r>
       <r>    2.9457    1.0000 </r>
       <r>    2.9457    1.0000 </r>
       <r>    3.0600    1.0000 </r>
       <r>    3.0600    1.0000 </r>
       <r>    3.0600    1.0000 </r>
       <r>    3.0776    1.0000 </r>
       <r>    3.0776    1.0000 </r>
       <r>    3.0776    1.0000 </r>
       <r>    3.1099    1.0000 </r>
       <r>    3.1099    1.0000 </r>
       <r>    3.1099    1.0000 </r>
       <r>    3.1099    1.0000 </r>
       <r>    3.1099    1.0000 </r>
       <r>    3.1099    1.0000 </r>
       <r>    3.1717    1.0000 </r>
       <r>    3.1717    1.0000 </r>
       <r>    3.1717    1.0000 </r>
       <r>    3.1717    1.0000 </r>
       <r>    3.1717    1.0000 </r>
       <r>    3.1717    1.0000 </r>
       <r>    3.3363    1.0000 </r>
       <r>    3.3363    1.0000 </r>
       <r>    3.3363    1.0000 </r>
       <r>    3.3363    1.0000 </r>
       <r>    3.3363    1.0000 </r>
       <r>    3.3363    1.0000 </r>
       <r>    3.3447    1.0000 </r>
       <r>    3.3447    1.0000 </r>
       <r>    3.3447    1.0000 </r>
       <r>    3.4489    1.0000 </r>
       <r>    3.4489    1.0000 </r>
       <r>    3.4489    1.0000 </r>
       <r>    3.4518    1.0000 </r>
       <r>    3.4518    1.0000 </r>
       <r>    3.4518    1.0000 </r>
       <r>    3.4972    1.0000 </r>
       <r>    3.4972    1.0000 </r>
       <r>    3.4972    1.0000 </r>
       <r>    3.4972    1.0000 </r>
       <r>    3.4972    1.0000 </r>
       <r>    3.4972    1.0000 </r>
       <r>    3.5217    1.0000 </r>
       <r>    3.5217    1.0000 </r>
       <r>    3.5217    1.0000 </r>
       <r>    3.5217    1.0000 </r>
       <r>    3.5217    1.0000 </r>
       <r>    3.5217    1.0000 </r>
       <r>    3.5756    1.0000 </r>
       <r>    3.5756    1.0000 </r>
       <r>    3.5756    1.0000 </r>
       <r>    3.5756    1.0000 </r>
       <r>    3.5756    1.0000 </r>
       <r>    3.5756    1.0000 </r>
       <r>    3.6947    1.0000 </r>
       <r>    3.6947    1.0000 </r>
       <r>    3.6947    1.0000 </r>
       <r>    3.6947    1.0000 </r>
       <r>    3.6947    1.0000 </r>
       <r>    3.6947    1.0000 </r>
       <r>    3.7327    1.0000 </r>
       <r>    3.7327    1.0000 </r>
       <r>    3.7327    1.0000 </r>
       <r>    3.7572    1.0000 </r>
       <r>    3.7572    1.0000 </r>
       <r>    3.7572    1.0000 </r>
       <r>    3.7572    1.0000 </r>
       <r>    3.7572    1.0000 </r>
       <r>    3.7572    1.0000 </r>
       <r>    3.9107    1.0000 </r>
       <r>    3.9107    1.0000 </r>
       <r>    3.9107    1.0000 </r>
       <r>    3.9107    1.0000 </r>
       <r>    3.9107    1.0000 </r>
       <r>    3.9107    1.0000 </r>
       <r>    3.9272    1.0000 </r>
       <r>    3.9272    1.0000 </r>
       <r>    3.9272    1.0000 </r>
       <r>    4.1186    1.0000 </r>
       <r>    4.1186    1.0000 </r>
       <r>    4.1186    1.0000 </r>
       <r>    4.1186    1.0000 </r>
       <r>    4.1186    1.0000 </r>
       <r>    4.1186    1.0000 </r>
       <r>    4.2589    1.0000 </r>
       <r>    4.2589    1.0000 </r>
       <r>    4.2589    1.0000 </r>
       <r>    4.2778    1.0000 </r>
       <r>    4.2778    1.0000 </r>
       <r>    4.2778    1.0000 </r>
       <r>    4.3104    1.0000 </r>
       <r>    4.3104    1.0000 </r>
       <r>    4.3104    1.0000 </r>
       <r>    4.3255    1.0000 </r>
       <r>    4.3255    1.0000 </r>
       <r>    4.3255    1.0000 </r>
       <r>    4.3255    1.0000 </r>
       <r>    4.3255    1.0000 </r>
       <r>    4.3255    1.0000 </r>
       <r>    4.3334    1.0000 </r>
       <r>    4.3334    1.0000 </r>
       <r>    4.3334    1.0000 </r>
       <r>    4.4582    1.0000 </r>
       <r>    4.4582    1.0000 </r>
       <r>    4.4582    1.0000 </r>
       <r>    4.4582    1.0000 </r>
       <r>    4.4582    1.0000 </r>
       <r>    4.4582    1.0000 </r>
       <r>    4.4792    1.0000 </r>
       <r>    4.4792    1.0000 </r>
       <r>    4.4792    1.0000 </r>
       <r>    4.4857    1.0000 </r>
       <r>    4.4857    1.0000 </r>
       <r>    4.4857    1.0000 </r>
       <r>    4.4857    1.0000 </r>
       <r>    4.4857    1.0000 </r>
       <r>    4.4857    1.0000 </r>
       <r>    4.4980    1.0000 </r>
       <r>    4.4980    1.0000 </r>
       <r>    4.4980    1.0000 </r>
       <r>    4.4980    1.0000 </r>
       <r>    4.4980    1.0000 </r>
       <r>    4.4980    1.0000 </r>
       <r>    4.6161    1.0000 </r>
       <r>    4.6161    1.0000 </r>
       <r>    4.6161    1.0000 </r>
       <r>    4.6409    1.0000 </r>
       <r>    4.6409    1.0000 </r>
       <r>    4.6409    1.0000 </r>
       <r>    4.6555    1.0000 </r>
       <r>    4.6555    1.0000 </r>
       <r>    4.6556    1.0000 </r>
       <r>    4.7461    1.0000 </r>
       <r>    4.8282    1.0000 </r>
       <r>    4.8282    1.0000 </r>
       <r>    4.8282    1.0000 </r>
       <r>    4.8282    1.0000 </r>
       <r>    4.8282    1.0000 </r>
       <r>    4.8282    1.0000 </r>
       <r>    4.8360    1.0000 </r>
       <r>    4.8360    1.0000 </r>
       <r>    4.8360    1.0000 </r>
       <r>    4.8360    1.0000 </r>
       <r>    4.8360    1.0000 </r>
       <r>    4.8360    1.0000 </r>
       <r>    4.8415    1.0000 </r>
       <r>    4.8415    1.0000 </r>
       <r>    4.8415    1.0000 </r>
       <r>    4.9787    1.0000 </r>
       <r>    4.9787    1.0000 </r>
       <r>    4.9787    1.0000 </r>
       <r>    4.9787    1.0000 </r>
       <r>    4.9787    1.0000 </r>
       <r>    4.9787    1.0000 </r>
       <r>    5.0736    1.0000 </r>
       <r>    5.0736    1.0000 </r>
       <r>    5.0736    1.0000 </r>
       <r>    5.0787    1.0000 </r>
       <r>    5.0787    1.0000 </r>
       <r>    5.0787    1.0000 </r>
       <r>    5.0830    1.0000 </r>
       <r>    5.0830    1.0000 </r>
       <r>    5.0830    1.0000 </r>
       <r>    5.0830    1.0000 </r>
       <r>    5.0830    1.0000 </r>
       <r>    5.0830    1.0000 </r>
       <r>    5.1082    1.0000 </r>
       <r>    5.1082    1.0000 </r>
       <r>    5.1082    1.0000 </r>
       <r>    5.1363    1.0000 </r>
       <r>    5.1363    1.0000 </r>
       <r>    5.1363    1.0000 </r>
       <r>    5.1363    1.0000 </r>
       <r>    5.1363    1.0000 </r>
       <r>    5.1363    1.0000 </r>
       <r>    5.1513    1.0000 </r>
       <r>    5.1799    1.0000 </r>
       <r>    5.1799    1.0000 </r>
       <r>    5.1799    1.0000 </r>
       <r>    5.1804    1.0000 </r>
       <r>    5.1804    1.0000 </r>
       <r>    5.1804    1.0000 </r>
       <r>    5.2016    1.0000 </r>
       <r>    5.2016    1.0000 </r>
       <r>    5.2201    1.0000 </r>
       <r>    5.2201    1.0000 </r>
       <r>    5.2366    1.0000 </r>
       <r>    5.2366    1.0000 </r>
       <r>    5.2366    1.0000 </r>
       <r>    5.2366    1.0000 </r>
       <r>    5.2366    1.0000 </r>
       <r>    5.2366    1.0000 </r>
       <r>    5.2532    1.0000 </r>
       <r>    5.2532    1.0000 </r>
       <r>    5.2532    1.0000 </r>
       <r>    5.2993    1.0000 </r>
       <r>    5.2993    1.0000 </r>
       <r>    5.2993    1.0000 </r>
       <r>    5.3013    1.0000 </r>
       <r>    5.3014    1.0000 </r>
       <r>    5.3014    1.0000 </r>
       <r>    5.3185    1.0000 </r>
       <r>    5.3185    1.0000 </r>
       <r>    5.3185    1.0000 </r>
       <r>    5.3185    1.0000 </r>
       <r>    5.3185    1.0000 </r>
       <r>    5.3185    1.0000 </r>
       <r>    5.3461    1.0000 </r>
       <r>    5.3461    1.0000 </r>
       <r>    5.3461    1.0000 </r>
       <r>    5.3778    1.0000 </r>
       <r>    5.3778    1.0000 </r>
       <r>    5.3778    1.0000 </r>
       <r>    5.3906    1.0000 </r>
       <r>    5.3906    1.0000 </r>
       <r>    5.4314    1.0000 </r>
       <r>    5.4314    1.0000 </r>
       <r>    5.4314    1.0000 </r>
       <r>    5.4332    1.0000 </r>
       <r>    5.4332    1.0000 </r>
       <r>    5.4332    1.0000 </r>
       <r>    5.5674    1.0000 </r>
       <r>    5.5847    1.0000 </r>
       <r>    5.5847    1.0000 </r>
       <r>    5.5847    1.0000 </r>
       <r>    5.6020    1.0000 </r>
       <r>    5.6020    1.0000 </r>
       <r>    5.6020    1.0000 </r>
       <r>    5.6096    1.0000 </r>
       <r>    5.6096    1.0000 </r>
       <r>    5.6096    1.0000 </r>
       <r>    5.6096    1.0000 </r>
       <r>    5.6096    1.0000 </r>
       <r>    5.6096    1.0000 </r>
       <r>    5.6115    1.0000 </r>
       <r>    5.6115    1.0000 </r>
       <r>    5.6115    1.0000 </r>
       <r>    5.6362    1.0000 </r>
       <r>    5.6362    1.0000 </r>
       <r>    5.6362    1.0000 </r>
       <r>    5.7520    1.0000 </r>
       <r>    5.7520    1.0000 </r>
       <r>    5.7520    1.0000 </r>
       <r>    5.7546    1.0000 </r>
       <r>    5.7546    1.0000 </r>
       <r>    5.7546    1.0000 </r>
       <r>    5.7605    1.0000 </r>
       <r>    5.7605    1.0000 </r>
       <r>    5.7605    1.0000 </r>
       <r>    5.7605    1.0000 </r>
       <r>    5.7605    1.0000 </r>
       <r>    5.7605    1.0000 </r>
       <r>    5.7790    1.0000 </r>
       <r>    5.7790    1.0000 </r>
       <r>    5.7790    1.0000 </r>
       <r>    5.8289    1.0000 </r>
       <r>    5.8289    1.0000 </r>
       <r>    5.8289    1.0000 </r>
       <r>    5.8289    1.0000 </r>
       <r>    5.8289    1.0000 </r>
       <r>    5.8289    1.0000 </r>
       <r>    5.8734    1.0000 </r>
       <r>    5.8734    1.0000 </r>
       <r>    5.8734    1.0000 </r>
       <r>    5.9109    1.0000 </r>
       <r>    5.9109    1.0000 </r>
       <r>    5.9109    1.0000 </r>
       <r>    5.9109    1.0000 </r>
       <r>    5.9109    1.0000 </r>
       <r>    5.9109    1.0000 </r>
       <r>    5.9434    1.0000 </r>
       <r>    5.9434    1.0000 </r>
       <r>    5.9434    1.0000 </r>
       <r>    5.9897    1.0000 </r>
       <r>    5.9897    1.0000 </r>
       <r>    5.9897    1.0000 </r>
       <r>    6.0909    1.0000 </r>
       <r>    6.0909    1.0000 </r>
       <r>    6.0909    1.0000 </r>
       <r>    6.1189    1.0000 </r>
       <r>    6.1189    1.0000 </r>
       <r>    6.1189    1.0000 </r>
       <r>    6.2538    1.0003 </r>
       <r>    6.2538    1.0003 </r>
       <r>    6.2538    1.0003 </r>
       <r>    6.2539    1.0003 </r>
       <r>    6.2539    1.0003 </r>
       <r>    6.2539    1.0003 </r>
       <r>    6.2554    1.0003 </r>
       <r>    6.2554    1.0003 </r>
       <r>    6.2554    1.0003 </r>
       <r>    6.2585    1.0004 </r>
       <r>    6.2585    1.0004 </r>
       <r>    6.2585    1.0004 </r>
       <r>    6.2602    1.0004 </r>
       <r>    6.2602    1.0004 </r>
       <r>    6.2602    1.0004 </r>
       <r>    6.3378    1.0022 </r>
       <r>    6.3378    1.0022 </r>
       <r>    6.3378    1.0022 </r>
       <r>    6.4410    1.0132 </r>
       <r>    6.4410    1.0132 </r>
       <r>    6.4410    1.0132 </r>
       <r>    6.4410    1.0132 </r>
       <r>    6.4410    1.0132 </r>
       <r>    6.4410    1.0132 </r>
       <r>    6.5091    1.0280 </r>
       <r>    6.5091    1.0280 </r>
       <r>    6.5091    1.0280 </r>
       <r>    6.5091    1.0280 </r>
       <r>    6.5091    1.0280 </r>
       <r>    6.5091    1.0280 </r>
       <r>    6.6338    1.0056 </r>
       <r>    6.6338    1.0056 </r>
       <r>    6.6338    1.0056 </r>
       <r>    6.6338    1.0056 </r>
       <r>    6.6338    1.0056 </r>
       <r>    6.6338    1.0056 </r>
       <r>    6.6538    0.9816 </r>
       <r>    6.6538    0.9816 </r>
       <r>    6.6538    0.9816 </r>
       <r>    6.6538    0.9816 </r>
       <r>    6.6538    0.9816 </r>
       <r>    6.6538    0.9816 </r>
       <r>    6.7003    0.8896 </r>
       <r>    6.7003    0.8896 </r>
       <r>    6.7003    0.8896 </r>
       <r>    6.7086    0.8673 </r>
       <r>    6.7086    0.8673 </r>
       <r>    6.7086    0.8673 </r>
       <r>    6.7288    0.8065 </r>
       <r>    6.7288    0.8065 </r>
       <r>    6.8150    0.4689 </r>
       <r>    6.8150    0.4689 </r>
       <r>    6.8150    0.4689 </r>
       <r>    6.8150    0.4689 </r>
       <r>    6.8150    0.4689 </r>
       <r>    6.8150    0.4689 </r>
       <r>    6.8875    0.1899 </r>
       <r>    6.8875    0.1899 </r>
       <r>    6.8875    0.1899 </r>
       <r>    6.8875    0.1899 </r>
       <r>    6.8875    0.1899 </r>
       <r>    6.8875    0.1899 </r>
       <r>    6.8973    0.1594 </r>
       <r>    6.8973    0.1594 </r>
       <r>    6.8973    0.1594 </r>
       <r>    6.9337    0.0669 </r>
       <r>    6.9337    0.0669 </r>
       <r>    6.9337    0.0669 </r>
       <r>    7.0458   -0.0353 </r>
       <r>    7.0458   -0.0353 </r>
       <r>    7.0458   -0.0353 </r>
       <r>    7.0458   -0.0353 </r>
       <r>    7.0458   -0.0353 </r>
       <r>    7.0458   -0.0353 </r>
       <r>    7.0563   -0.0354 </r>
       <r>    7.0563   -0.0354 </r>
       <r>    7.0563   -0.0354 </r>
       <r>    7.0607   -0.0352 </r>
       <r>    7.0607   -0.0352 </r>
       <r>    7.0848   -0.0323 </r>
       <r>    7.0848   -0.0323 </r>
       <r>    7.0848   -0.0323 </r>
       <r>    7.0848   -0.0323 </r>
       <r>    7.0848   -0.0323 </r>
       <r>    7.0848   -0.0323 </r>
       <r>    7.1105   -0.0270 </r>
       <r>    7.1105   -0.0270 </r>
       <r>    7.1105   -0.0270 </r>
       <r>    7.1105   -0.0270 </r>
       <r>    7.1105   -0.0270 </r>
       <r>    7.1105   -0.0270 </r>
       <r>    7.1482   -0.0184 </r>
       <r>    7.1482   -0.0184 </r>
       <r>    7.1482   -0.0184 </r>
       <r>    7.1610   -0.0157 </r>
       <r>    7.1610   -0.0157 </r>
       <r>    7.1610   -0.0157 </r>
       <r>    7.2239   -0.0061 </r>
       <r>    7.2239   -0.0061 </r>
       <r>    7.2239   -0.0061 </r>
       <r>    7.2434   -0.0043 </r>
       <r>    7.2434   -0.0043 </r>
       <r>    7.2434   -0.0043 </r>
       <r>    7.2714   -0.0025 </r>
       <r>    7.2714   -0.0025 </r>
       <r>    7.2714   -0.0025 </r>
       <r>    7.2765   -0.0023 </r>
       <r>    7.2765   -0.0023 </r>
       <r>    7.2765   -0.0023 </r>
       <r>    7.3357   -0.0006 </r>
       <r>    7.3371   -0.0006 </r>
       <r>    7.3392   -0.0006 </r>
       <r>    7.3740   -0.0002 </r>
       <r>    7.3747   -0.0002 </r>
       <r>    7.3753   -0.0002 </r>
       <r>    7.3761   -0.0002 </r>
       <r>    7.3766   -0.0002 </r>
       <r>    7.3791   -0.0002 </r>
       <r>    7.4069   -0.0001 </r>
       <r>    7.4083   -0.0001 </r>
       <r>    7.4089   -0.0001 </r>
       <r>    7.4105   -0.0001 </r>
       <r>    7.4122   -0.0001 </r>
       <r>    7.4172   -0.0001 </r>
       <r>    7.4697   -0.0000 </r>
       <r>    7.4719   -0.0000 </r>
       <r>    7.4746   -0.0000 </r>
       <r>    7.4783   -0.0000 </r>
       <r>    7.4796   -0.0000 </r>
       <r>    7.4865   -0.0000 </r>
       <r>    7.4911   -0.0000 </r>
       <r>    7.4987   -0.0000 </r>
       <r>    7.5032   -0.0000 </r>
       <r>    7.5178   -0.0000 </r>
       <r>    7.5324   -0.0000 </r>
       <r>    7.5825   -0.0000 </r>
       <r>    7.5849   -0.0000 </r>
       <r>    7.5900   -0.0000 </r>
       <r>    7.5962   -0.0000 </r>
       <r>    7.6019   -0.0000 </r>
       <r>    7.6181   -0.0000 </r>
       <r>    7.6373   -0.0000 </r>
[...]
       <r>    -1.7782     2.9420     0.4411 </r>
       <r>    -1.7325     3.4256     0.5977 </r>
       <r>    -1.6868     3.7413     0.7688 </r>
       <r>    -1.6411     3.8892     0.9466 </r>
       <r>    -1.5954     3.9360     1.1265 </r>
       <r>    -1.5496     3.9709     1.3081 </r>
       <r>    -1.5039     4.0653     1.4940 </r>
       <r>    -1.4582     4.2629     1.6889 </r>
       <r>    -1.4125     4.5863     1.8986 </r>
       <r>    -1.3668     5.0424     2.1291 </r>
       <r>    -1.3210     5.6190     2.3860 </r>
       <r>    -1.2753     6.2676     2.6726 </r>
       <r>    -1.2296     6.8758     2.9869 </r>
       <r>    -1.1839     7.2665     3.3192 </r>
       <r>    -1.1382     7.2665     3.6514 </r>
       <r>    -1.0924     6.8246     3.9634 </r>
       <r>    -1.0467     6.0914     4.2419 </r>
       <r>    -1.0010     5.3788     4.4879 </r>
       <r>    -0.9553     5.0184     4.7173 </r>
       <r>    -0.9095     5.2159     4.9558 </r>
       <r>    -0.8638     5.9875     5.2295 </r>
       <r>    -0.8181     7.1934     5.5584 </r>
       <r>    -0.7724     8.6115     5.9522 </r>
       <r>    -0.7267     9.9828     6.4086 </r>
       <r>    -0.6809    11.0156     6.9122 </r>
       <r>    -0.6352    11.4107     7.4339 </r>
       <r>    -0.5895    10.9742     7.9357 </r>
       <r>    -0.5438     9.7758     8.3827 </r>
       <r>    -0.4981     8.2136     8.7582 </r>
       <r>    -0.4523     6.8817     9.0728 </r>
       <r>    -0.4066     6.2997     9.3609 </r>
       <r>    -0.3609     6.6803     9.6663 </r>
       <r>    -0.3152     7.8720    10.0262 </r>
       <r>    -0.2694     9.4754    10.4594 </r>
       <r>    -0.2237    11.0279    10.9636 </r>
       <r>    -0.1780    12.1525    11.5193 </r>
       <r>    -0.1323    12.6430    12.0973 </r>
       <r>    -0.0866    12.5083    12.6692 </r>
       <r>    -0.0408    11.9741    13.2167 </r>
       <r>     0.0049    11.4052    13.7381 </r>
       <r>     0.0506    11.1452    14.2477 </r>
       <r>     0.0963    11.3534    14.7668 </r>
       <r>     0.1420    11.9499    15.3132 </r>
       <r>     0.1878    12.7034    15.8940 </r>
       <r>     0.2335    13.3837    16.5059 </r>
       <r>     0.2792    13.8618    17.1397 </r>
       <r>     0.3249    14.1066    17.7846 </r>
       <r>     0.3706    14.1222    18.4303 </r>
       <r>     0.4164    13.9056    19.0661 </r>
       <r>     0.4621    13.4612    19.6816 </r>
       <r>     0.5078    12.8528    20.2692 </r>
       <r>     0.5535    12.2592    20.8297 </r>
       <r>     0.5993    11.9927    21.3780 </r>
       <r>     0.6450    12.4289    21.9463 </r>
       <r>     0.6907    13.8166    22.5780 </r>
       <r>     0.7364    16.0481    23.3118 </r>
       <r>     0.7821    18.5756    24.1611 </r>
       <r>     0.8279    20.6186    25.1038 </r>
       <r>     0.8736    21.5848    26.0906 </r>
       <r>     0.9193    21.4115    27.0696 </r>
       <r>     0.9650    20.5521    28.0093 </r>
       <r>     1.0107    19.5994    28.9054 </r>
       <r>     1.0565    18.8515    29.7673 </r>
       <r>     1.1022    18.1889    30.5989 </r>
       <r>     1.1479    17.3715    31.3932 </r>
       <r>     1.1936    16.4831    32.1468 </r>
       <r>     1.2393    16.1040    32.8831 </r>
       <r>     1.2851    17.0225    33.6614 </r>
       <r>     1.3308    19.6896    34.5616 </r>
       <r>     1.3765    23.8142    35.6504 </r>
       <r>     1.4222    28.3720    36.9476 </r>
       <r>     1.4680    32.0063    38.4110 </r>
       <r>     1.5137    33.6049    39.9474 </r>
       <r>     1.5594    32.7935    41.4468 </r>
       <r>     1.6051    30.1575    42.8256 </r>
       <r>     1.6508    27.1124    44.0652 </r>
       <r>     1.6966    25.4717    45.2298 </r>
       <r>     1.7423    26.8663    46.4582 </r>
       <r>     1.7880    32.2075    47.9307 </r>
       <r>     1.8337    41.3761    49.8225 </r>
       <r>     1.8794    53.2729    52.2582 </r>
       <r>     1.9252    66.2405    55.2868 </r>
       <r>     1.9709    78.6571    58.8831 </r>
       <r>     2.0166    89.3471    62.9681 </r>
       <r>     2.0623    97.6076    67.4309 </r>
       <r>     2.1081   103.0191    72.1410 </r>
       <r>     2.1538   105.4130    76.9606 </r>
       <r>     2.1995   105.1187    81.7668 </r>
       <r>     2.2452   103.1952    86.4850 </r>
       <r>     2.2909   101.2565    91.1145 </r>
       <r>     2.3367   100.8386    95.7250 </r>
       <r>     2.3824   102.6627   100.4189 </r>
       <r>     2.4281   106.2854   105.2784 </r>
       <r>     2.4738   110.4280   110.3273 </r>
       <r>     2.5195   113.8636   115.5332 </r>
       <r>     2.5653   116.3055   120.8508 </r>
       <r>     2.6110   118.6172   126.2742 </r>
       <r>     2.6567   122.0972   131.8566 </r>
       <r>     2.7024   127.3734   137.6802 </r>
       <r>     2.7481   133.8568   143.8003 </r>
       <r>     2.7939   140.2549   150.2130 </r>
       <r>     2.8396   145.6777   156.8735 </r>
       <r>     2.8853   150.3127   163.7460 </r>
       <r>     2.9310   155.0515   170.8351 </r>
       <r>     2.9768   160.4252   178.1699 </r>
       <r>     3.0225   165.8344   185.7521 </r>
       <r>     3.0682   169.7858   193.5149 </r>
       <r>     3.1139   170.9503   201.3309 </r>
       <r>     3.1596   169.1341   209.0639 </r>
       <r>     3.2054   165.3467   216.6238 </r>
       <r>     3.2511   160.9875   223.9843 </r>
       <r>     3.2968   156.9646   231.1609 </r>
       <r>     3.3425   153.5248   238.1802 </r>
       <r>     3.3882   150.7589   245.0731 </r>
       <r>     3.4340   149.0305   251.8870 </r>
       <r>     3.4797   148.7496   258.6880 </r>
       <r>     3.5254   149.7309   265.5338 </r>
       <r>     3.5711   150.8988   272.4331 </r>
       <r>     3.6168   150.7634   279.3262 </r>
       <r>     3.6626   148.3423   286.1086 </r>
       <r>     3.7083   143.8297   292.6846 </r>
       <r>     3.7540   138.5653   299.0200 </r>
       <r>     3.7997   134.3260   305.1615 </r>
       <r>     3.8455   132.3161   311.2112 </r>
       <r>     3.8912   132.3996   317.2646 </r>
       <r>     3.9369   133.1104   323.3506 </r>
       <r>     3.9826   132.6172   329.4140 </r>
       <r>     4.0283   130.1226   335.3634 </r>
       <r>     4.0741   126.6620   341.1545 </r>
       <r>     4.1198   124.5494   346.8490 </r>
       <r>     4.1655   125.7809   352.5999 </r>
       <r>     4.2112   130.6785   358.5747 </r>
       <r>     4.2569   137.9358   364.8812 </r>
       <r>     4.3027   145.9634   371.5549 </r>
       <r>     4.3484   154.1837   378.6043 </r>
       <r>     4.3941   162.9935   386.0566 </r>
       <r>     4.4398   172.5036   393.9436 </r>
       <r>     4.4856   181.4366   402.2391 </r>
       <r>     4.5313   187.3975   410.8072 </r>
       <r>     4.5770   188.3697   419.4196 </r>
       <r>     4.6227   184.2208   427.8424 </r>
       <r>     4.6684   177.1462   435.9418 </r>
       <r>     4.7142   170.8875   443.7549 </r>
       <r>     4.7599   169.2431   451.4929 </r>
       <r>     4.8056   174.5132   459.4719 </r>
       <r>     4.8513   186.4486   467.9965 </r>
       <r>     4.8970   202.2033   477.2415 </r>
       <r>     4.9428   217.4797   487.1849 </r>
       <r>     4.9885   228.4114   497.6281 </r>
       <r>     5.0342   233.1694   508.2889 </r>
       <r>     5.0799   232.4125   518.9151 </r>
       <r>     5.1256   228.5108   529.3629 </r>
       <r>     5.1714   224.2785   539.6171 </r>
       <r>     5.2171   222.0766   549.7707 </r>
       <r>     5.2628   223.5596   559.9921 </r>
       <r>     5.3085   229.6386   570.4915 </r>
       <r>     5.3543   240.1002   581.4691 </r>
       <r>     5.4000   252.9204   593.0329 </r>
       <r>     5.4457   264.0718   605.1066 </r>
       <r>     5.4914   268.6576   617.3899 </r>
       <r>     5.5371   263.2081   629.4241 </r>
       <r>     5.5829   247.7607   640.7520 </r>
       <r>     5.6286   226.1296   651.0909 </r>
       <r>     5.6743   203.9510   660.4158 </r>
       <r>     5.7200   185.7412   668.9081 </r>
       <r>     5.7657   172.9283   676.8146 </r>
       <r>     5.8115   164.0405   684.3147 </r>
       <r>     5.8572   156.6313   691.4761 </r>
       <r>     5.9029   149.3881   698.3063 </r>
       <r>     5.9486   142.9911   704.8440 </r>
       <r>     5.9943   139.3852   711.2168 </r>
       <r>     6.0401   140.2477   717.6291 </r>
       <r>     6.0858   145.7928   724.2950 </r>
       <r>     6.1315   154.5969   731.3633 </r>
       <r>     6.1772   164.3698   738.8785 </r>
       <r>     6.2230   173.1134   746.7934 </r>
       <r>     6.2687   180.0406   755.0251 </r>
       <r>     6.3144   185.7841   763.5194 </r>
       <r>     6.3601   191.7026   772.2842 </r>
       <r>     6.4058   198.5944   781.3642 </r>
       <r>     6.4516   205.7088   790.7694 </r>
       <r>     6.4973   210.9951   800.4164 </r>
       <r>     6.5430   212.6259   810.1379 </r>
       <r>     6.5887   210.5950   819.7665 </r>
       <r>     6.6344   206.8835   829.2255 </r>
       <r>     6.6802   203.8510   838.5458 </r>
       <r>     6.7259   202.1679   847.7891 </r>
       <r>     6.7716   200.1631   856.9408 </r>
       <r>     6.8173   195.3022   865.8703 </r>
       <r>     6.8631   186.6277   874.4031 </r>
       <r>     6.9088   176.0812   882.4537 </r>
       <r>     6.9545   167.5226   890.1131 </r>
       <r>     7.0002   164.1863   897.6198 </r>
       <r>     7.0459   166.5928   905.2367 </r>
       <r>     7.0917   172.4699   913.1222 </r>
       <r>     7.1374   178.5219   921.2844 </r>
       <r>     7.1831   182.4912   929.6281 </r>
       <r>     7.2288   184.0343   938.0424 </r>
       <r>     7.2745   184.1899   946.4638 </r>
       <r>     7.3203   184.3052   954.8904 </r>
       <r>     7.3660   185.3108   963.3630 </r>
       <r>     7.4117   187.5178   971.9366 </r>
       <r>     7.4574   190.5757   980.6499 </r>
       <r>     7.5031   193.3352   989.4894 </r>
       <r>     7.5489   193.7562   998.3482 </r>
       <r>     7.5946   189.1696  1006.9972 </r>
       <r>     7.6403   177.0364  1015.0915 </r>
       <r>     7.6860   156.0317  1022.2255 </r>
       <r>     7.7318   127.0080  1028.0324 </r>
       <r>     7.7775    93.2627  1032.2965 </r>
       <r>     7.8232    59.7270  1035.0273 </r>
       <r>     7.8689    31.2774  1036.4573 </r>
       <r>     7.9146    11.0048  1036.9605 </r>
       <r>     7.9604    -0.6151  1036.9324 </r>
       <r>     8.0061    -5.2971  1036.6902 </r>
       <r>     8.0518    -5.7199  1036.4287 </r>
       <r>     8.0975    -4.3177  1036.2312 </r>
       <r>     8.1432    -2.6495  1036.1101 </r>
       <r>     8.1890    -1.3875  1036.0467 </r>
       <r>     8.2347    -0.6337  1036.0177 </r>
       <r>     8.2804    -0.2554  1036.0060 </r>
       <r>     8.3261    -0.0914  1036.0018 </r>
       <r>     8.3718    -0.0292  1036.0005 </r>
       <r>     8.4176    -0.0083  1036.0001 </r>
       <r>     8.4633    -0.0021  1036.0000 </r>
       <r>     8.5090    -0.0005  1036.0000 </r>
       <r>     8.5547    -0.0001  1036.0000 </r>
       <r>     8.6005    -0.0000  1036.0000 </r>
       <r>     8.6462    -0.0000  1036.0000 </r>
       <r>     8.6919    -0.0000  1036.0000 </r>
       <r>     8.7376    -0.0000  1036.0000 </r>
       <r>     8.7833    -0.0000  1036.0000 </r>
       <r>     8.8291    -0.0000  1036.0000 </r>
       <r>     8.8748    -0.0000  1036.0000 </r>
       <r>     8.9205    -0.0000  1036.0000 </r>
       <r>     8.9662    -0.0000  1036.0000 </r>
       <r>     9.0119    -0.0000  1036.0000 </r>
       <r>     9.0577     0.0000  1036.0000 </r>
       <r>     9.1034     0.0000  1036.0000 </r>
       <r>     9.1491     0.0000  1036.0000 </r>
       <r>     9.1948     0.0000  1036.0000 </r>
       <r>     9.2406     0.0000  1036.0000 </r>
       <r>     9.2863     0.0000  1036.0000 </r>
       <r>     9.3320     0.0000  1036.0000 </r>
       <r>     9.3777     0.0000  1036.0000 </r>
       <r>     9.4234     0.0000  1036.0000 </r>
       <r>     9.4692     0.0000  1036.0000 </r>
       <r>     9.5149     0.0000  1036.0000 </r>
       <r>     9.5606     0.0000  1036.0000 </r>
       <r>     9.6063     0.0000  1036.0000 </r>
       <r>     9.6520     0.0000  1036.0000 </r>
       <r>     9.6978     0.0000  1036.0000 </r>
       <r>     9.7435     0.0000  1036.0000 </r>
       <r>     9.7892     0.0000  1036.0000 </r>
      </set>
     </set>
    </array>
   </total>
  </dos>
 </calculation>
 <structure name="finalpos" >
  <crystal>
   <varray name="basis" >
    <v>      10.33484705       0.00000000       0.00000000 </v>
    <v>       0.00000000      10.33484705       0.00000000 </v>
    <v>       0.00000000       0.00000000      10.33484705 </v>
   </varray>
   <i name="volume">   1103.85533447 </i>
   <varray name="rec_basis" >
    <v>       0.09676002       0.00000000       0.00000000 </v>
    <v>       0.00000000       0.09676002       0.00000000 </v>
    <v>       0.00000000       0.00000000       0.09676002 </v>
   </varray>
  </crystal>
  <varray name="positions" >
   <v>       0.00000000       0.00000000       0.00000000 </v>
   <v>       0.00000000       0.16666893       0.16666893 </v>
   <v>       0.16666893       0.00000000       0.16666893 </v>
   <v>       0.16666893       0.16666893       0.00000000 </v>
   <v>       0.33333106       0.00000000       0.00000000 </v>
   <v>       0.33333107       0.16666893       0.16666893 </v>
   <v>       0.50000000       0.00000000       0.16666894 </v>
   <v>       0.50000000       0.16666894       0.00000000 </v>
   <v>       0.66666897       0.00000000       0.00000000 </v>
   <v>       0.66666896       0.16666893       0.16666893 </v>
   <v>       0.83333104       0.00000000       0.16666893 </v>
   <v>       0.83333104       0.16666893       0.00000000 </v>
   <v>       0.00000000       0.33333106       0.00000000 </v>
   <v>       0.00000000       0.50000000       0.16666894 </v>
   <v>       0.16666893       0.33333107       0.16666893 </v>
   <v>       0.16666894       0.50000000       0.00000000 </v>
   <v>       0.33333107       0.33333107       0.00000000 </v>
   <v>       0.33333107       0.50000000       0.16666893 </v>
   <v>       0.50000000       0.33333107       0.16666893 </v>
   <v>       0.50000000       0.50000000       0.00000000 </v>
   <v>       0.66666896       0.33333107       0.00000000 </v>
   <v>       0.66666896       0.50000000       0.16666893 </v>
   <v>       0.83333104       0.33333107       0.16666893 </v>
   <v>       0.83333103       0.50000000       0.00000000 </v>
   <v>       0.00000000       0.66666897       0.00000000 </v>
   <v>       0.00000000       0.83333104       0.16666893 </v>
   <v>       0.16666893       0.66666896       0.16666893 </v>
   <v>       0.16666893       0.83333104       0.00000000 </v>
   <v>       0.33333107       0.66666896       0.00000000 </v>
   <v>       0.33333107       0.83333104       0.16666893 </v>
   <v>       0.50000000       0.66666896       0.16666893 </v>
   <v>       0.50000000       0.83333103       0.00000000 </v>
   <v>       0.66666896       0.66666896       0.00000000 </v>
   <v>       0.66666896       0.83333104       0.16666893 </v>
   <v>       0.83333104       0.66666896       0.16666893 </v>
   <v>       0.83333104       0.83333104       0.00000000 </v>
   <v>       0.00000000       0.00000000       0.33333106 </v>
   <v>       0.00000000       0.16666894       0.50000000 </v>
   <v>       0.16666894       0.00000000       0.50000000 </v>
   <v>       0.16666893       0.16666893       0.33333107 </v>
   <v>       0.33333107       0.00000000       0.33333107 </v>
   <v>       0.33333107       0.16666893       0.50000000 </v>
   <v>       0.50000000       0.00000000       0.50000000 </v>
   <v>       0.50000000       0.16666893       0.33333107 </v>
   <v>       0.66666896       0.00000000       0.33333107 </v>
   <v>       0.66666896       0.16666893       0.50000000 </v>
   <v>       0.83333103       0.00000000       0.50000000 </v>
   <v>       0.83333104       0.16666893       0.33333107 </v>
   <v>       0.00000000       0.33333107       0.33333107 </v>
   <v>       0.00000000       0.50000000       0.50000000 </v>
   <v>       0.16666893       0.33333107       0.50000000 </v>
   <v>       0.16666893       0.50000000       0.33333107 </v>
   <v>       0.33333107       0.33333107       0.33333107 </v>
   <v>       0.33333106       0.50000000       0.50000000 </v>
   <v>       0.50000000       0.33333106       0.50000000 </v>
   <v>       0.50000000       0.50000000       0.33333106 </v>
   <v>       0.66666896       0.33333107       0.33333107 </v>
   <v>       0.66666897       0.50000000       0.50000000 </v>
   <v>       0.83333104       0.33333107       0.50000000 </v>
   <v>       0.83333104       0.50000000       0.33333107 </v>
   <v>       0.00000000       0.66666896       0.33333107 </v>
   <v>       0.00000000       0.83333103       0.50000000 </v>
   <v>       0.16666893       0.66666896       0.50000000 </v>
   <v>       0.16666893       0.83333104       0.33333107 </v>
   <v>       0.33333107       0.66666896       0.33333107 </v>
   <v>       0.33333107       0.83333104       0.50000000 </v>
   <v>       0.50000000       0.66666897       0.50000000 </v>
   <v>       0.50000000       0.83333104       0.33333107 </v>
   <v>       0.66666896       0.66666896       0.33333107 </v>
   <v>       0.66666896       0.83333104       0.50000000 </v>
   <v>       0.83333104       0.66666896       0.50000000 </v>
   <v>       0.83333104       0.83333104       0.33333107 </v>
   <v>       0.00000000       0.00000000       0.66666897 </v>
   <v>       0.00000000       0.16666893       0.83333104 </v>
   <v>       0.16666893       0.00000000       0.83333104 </v>
   <v>       0.16666893       0.16666893       0.66666896 </v>
   <v>       0.33333107       0.00000000       0.66666896 </v>
   <v>       0.33333107       0.16666893       0.83333104 </v>
   <v>       0.50000000       0.00000000       0.83333103 </v>
   <v>       0.50000000       0.16666893       0.66666896 </v>
   <v>       0.66666896       0.00000000       0.66666896 </v>
   <v>       0.66666896       0.16666893       0.83333104 </v>
   <v>       0.83333104       0.00000000       0.83333104 </v>
   <v>       0.83333104       0.16666893       0.66666896 </v>
   <v>       0.00000000       0.33333107       0.66666896 </v>
   <v>       0.00000000       0.50000000       0.83333103 </v>
   <v>       0.16666893       0.33333107       0.83333104 </v>
   <v>       0.16666893       0.50000000       0.66666896 </v>
   <v>       0.33333107       0.33333107       0.66666896 </v>
   <v>       0.33333107       0.50000000       0.83333104 </v>
   <v>       0.50000000       0.33333107       0.83333104 </v>
   <v>       0.50000000       0.50000000       0.66666897 </v>
   <v>       0.66666896       0.33333107       0.66666896 </v>
   <v>       0.66666896       0.50000000       0.83333104 </v>
   <v>       0.83333104       0.33333107       0.83333104 </v>
   <v>       0.83333104       0.50000000       0.66666896 </v>
   <v>       0.00000000       0.66666896       0.66666896 </v>
   <v>       0.00000000       0.83333104       0.83333104 </v>
   <v>       0.16666893       0.66666896       0.83333104 </v>
   <v>       0.16666893       0.83333104       0.66666896 </v>
   <v>       0.33333107       0.66666896       0.66666896 </v>
   <v>       0.33333107       0.83333104       0.83333104 </v>
   <v>       0.50000000       0.66666896       0.83333104 </v>
   <v>       0.50000000       0.83333104       0.66666896 </v>
   <v>       0.66666896       0.66666896       0.66666896 </v>
   <v>       0.66666896       0.83333104       0.83333104 </v>
   <v>       0.83333104       0.66666896       0.83333104 </v>
   <v>       0.83333104       0.83333104       0.66666896 </v>
  </varray>
 </structure>
</modeling>
