 107 107   0   0
  0.1031640E+02  0.1033485E-08  0.1033485E-08  0.1033485E-08  0.3000000E-16
  1.000000000000000E-004
  CAR 
 Vib                                     
      9.68790830     -3.98882400  301      6.70136141      1.00000000
     -3.989  0.0000E+00  0.0000E+00
     -3.943  0.0000E+00  0.0000E+00
     -3.898  0.0000E+00  0.0000E+00
     -3.852  0.0000E+00  0.0000E+00
     -3.806  0.0000E+00  0.0000E+00
     -3.761  0.0000E+00  0.0000E+00
     -3.715  0.0000E+00  0.0000E+00
     -3.670  0.0000E+00  0.0000E+00
     -3.624 -0.1169E-27 -0.5327E-29
     -3.579 -0.4367E-26 -0.2044E-27
     -3.533 -0.1505E-24 -0.7064E-26
     -3.487 -0.4667E-23 -0.2198E-24
     -3.442 -0.1303E-21 -0.6160E-23
     -3.396 -0.3274E-20 -0.1554E-21
     -3.351 -0.7403E-19 -0.3530E-20
     -3.305 -0.1506E-17 -0.7220E-19
     -3.259 -0.2757E-16 -0.1329E-17
     -3.214 -0.4540E-15 -0.2203E-16
     -3.168 -0.6420E-14 -0.3147E-15
     -3.123 -0.8680E-13 -0.4272E-14
     -3.077 -0.1036E-11 -0.5150E-13
     -3.031 -0.1111E-10 -0.5581E-12
     -2.986 -0.1070E-09 -0.5437E-11
     -2.940 -0.9253E-09 -0.4762E-10
     -2.895 -0.7178E-08 -0.3749E-09
     -2.849 -0.4992E-07 -0.2651E-08
     -2.804 -0.3111E-06 -0.1683E-07
     -2.758 -0.1735E-05 -0.9594E-07
     -2.712 -0.8655E-05 -0.4905E-06
     -2.667 -0.3855E-04 -0.2248E-05
     -2.621 -0.1530E-03 -0.9223E-05
     -2.576 -0.5402E-03 -0.3385E-04
     -2.530 -0.1691E-02 -0.1109E-03
     -2.484 -0.4675E-02 -0.3241E-03
     -2.439 -0.1135E-01 -0.8414E-03
     -2.393 -0.2397E-01 -0.1934E-02
     -2.348 -0.4340E-01 -0.3913E-02
     -2.302 -0.6551E-01 -0.6899E-02
     -2.256 -0.7707E-01 -0.1041E-01
     -2.211 -0.5484E-01 -0.1291E-01
     -2.165  0.2858E-01 -0.1161E-01
     -2.120  0.1940E+00 -0.2766E-02
     -2.074  0.4486E+00  0.1769E-01
     -2.028  0.7907E+00  0.5373E-01
     -1.983  0.1221E+01  0.1094E+00
     -1.937  0.1739E+01  0.1887E+00
     -1.892  0.2326E+01  0.2947E+00
     -1.846  0.2918E+01  0.4277E+00
     -1.801  0.3422E+01  0.5837E+00
     -1.755  0.3760E+01  0.7552E+00
     -1.709  0.3923E+01  0.9340E+00
     -1.664  0.3966E+01  0.1115E+01
     -1.618  0.3978E+01  0.1296E+01
     -1.573  0.4041E+01  0.1480E+01
     -1.527  0.4216E+01  0.1673E+01
     -1.481  0.4536E+01  0.1879E+01
     -1.436  0.5004E+01  0.2108E+01
     -1.390  0.5588E+01  0.2362E+01
     -1.345  0.6224E+01  0.2646E+01
     -1.299  0.6809E+01  0.2956E+01
     -1.253  0.7197E+01  0.3284E+01
     -1.208  0.7239E+01  0.3615E+01
     -1.162  0.6873E+01  0.3928E+01
     -1.117  0.6199E+01  0.4210E+01
     -1.071  0.5485E+01  0.4460E+01
     -1.026  0.5058E+01  0.4691E+01
     -0.980  0.5163E+01  0.4926E+01
     -0.934  0.5863E+01  0.5194E+01
     -0.889  0.7038E+01  0.5515E+01
     -0.843  0.8446E+01  0.5900E+01
     -0.798  0.9799E+01  0.6346E+01
     -0.752  0.1080E+02  0.6839E+01
     -0.706  0.1120E+02  0.7350E+01
     -0.661  0.1085E+02  0.7844E+01
     -0.615  0.9814E+01  0.8292E+01
     -0.570  0.8414E+01  0.8675E+01
     -0.524  0.7145E+01  0.9001E+01
     -0.478  0.6479E+01  0.9297E+01
     -0.433  0.6676E+01  0.9601E+01
     -0.387  0.7687E+01  0.9951E+01
     -0.342  0.9197E+01  0.1037E+02
     -0.296  0.1076E+02  0.1086E+02
     -0.251  0.1198E+02  0.1141E+02
     -0.205  0.1259E+02  0.1198E+02
     -0.159  0.1256E+02  0.1255E+02
     -0.114  0.1209E+02  0.1310E+02
     -0.068  0.1152E+02  0.1363E+02
     -0.023  0.1119E+02  0.1414E+02
      0.023  0.1129E+02  0.1465E+02
      0.069  0.1179E+02  0.1519E+02
      0.114  0.1250E+02  0.1576E+02
      0.160  0.1319E+02  0.1636E+02
      0.205  0.1370E+02  0.1699E+02
      0.251  0.1398E+02  0.1763E+02
      0.297  0.1403E+02  0.1826E+02
      0.342  0.1385E+02  0.1890E+02
      0.388  0.1345E+02  0.1951E+02
      0.433  0.1291E+02  0.2010E+02
      0.479  0.1238E+02  0.2066E+02
      0.524  0.1215E+02  0.2122E+02
      0.570  0.1253E+02  0.2179E+02
      0.616  0.1374E+02  0.2241E+02
      0.661  0.1572E+02  0.2313E+02
      0.707  0.1802E+02  0.2395E+02
      0.752  0.1999E+02  0.2486E+02
      0.798  0.2107E+02  0.2582E+02
      0.844  0.2112E+02  0.2679E+02
      0.889  0.2050E+02  0.2772E+02
      0.935  0.1974E+02  0.2862E+02
      0.980  0.1914E+02  0.2949E+02
      1.026  0.1863E+02  0.3034E+02
      1.072  0.1794E+02  0.3116E+02
      1.117  0.1706E+02  0.3194E+02
      1.163  0.1648E+02  0.3269E+02
      1.208  0.1698E+02  0.3346E+02
      1.254  0.1914E+02  0.3434E+02
      1.300  0.2284E+02  0.3538E+02
      1.345  0.2721E+02  0.3662E+02
      1.391  0.3095E+02  0.3803E+02
      1.436  0.3293E+02  0.3953E+02
      1.482  0.3268E+02  0.4102E+02
      1.527  0.3066E+02  0.4242E+02
      1.573  0.2813E+02  0.4370E+02
      1.619  0.2678E+02  0.4492E+02
      1.664  0.2813E+02  0.4620E+02
      1.710  0.3305E+02  0.4771E+02
      1.755  0.4147E+02  0.4960E+02
      1.801  0.5248E+02  0.5199E+02
      1.847  0.6468E+02  0.5494E+02
      1.892  0.7671E+02  0.5844E+02
      1.938  0.8748E+02  0.6243E+02
      1.983  0.9616E+02  0.6681E+02
      2.029  0.1021E+03  0.7146E+02
      2.075  0.1049E+03  0.7625E+02
      2.120  0.1050E+03  0.8103E+02
      2.166  0.1032E+03  0.8574E+02
      2.211  0.1013E+03  0.9036E+02
      2.257  0.1007E+03  0.9495E+02
      2.302  0.1021E+03  0.9960E+02
      2.348  0.1051E+03  0.1044E+03
      2.394  0.1086E+03  0.1093E+03
      2.439  0.1117E+03  0.1144E+03
      2.485  0.1144E+03  0.1197E+03
      2.530  0.1173E+03  0.1250E+03
      2.576  0.1217E+03  0.1306E+03
      2.622  0.1277E+03  0.1364E+03
      2.667  0.1344E+03  0.1425E+03
      2.713  0.1406E+03  0.1489E+03
      2.758  0.1455E+03  0.1555E+03
      2.804  0.1493E+03  0.1623E+03
      2.850  0.1529E+03  0.1693E+03
      2.895  0.1571E+03  0.1765E+03
      2.941  0.1614E+03  0.1838E+03
      2.986  0.1651E+03  0.1914E+03
      3.032  0.1671E+03  0.1990E+03
      3.077  0.1669E+03  0.2066E+03
      3.123  0.1648E+03  0.2141E+03
      3.169  0.1615E+03  0.2215E+03
      3.214  0.1576E+03  0.2287E+03
      3.260  0.1539E+03  0.2357E+03
      3.305  0.1509E+03  0.2425E+03
      3.351  0.1493E+03  0.2494E+03
      3.397  0.1492E+03  0.2562E+03
      3.442  0.1500E+03  0.2630E+03
      3.488  0.1508E+03  0.2699E+03
      3.533  0.1505E+03  0.2767E+03
      3.579  0.1484E+03  0.2835E+03
      3.625  0.1448E+03  0.2901E+03
      3.670  0.1406E+03  0.2965E+03
      3.716  0.1371E+03  0.3028E+03
      3.761  0.1350E+03  0.3089E+03
      3.807  0.1344E+03  0.3150E+03
      3.853  0.1343E+03  0.3212E+03
      3.898  0.1334E+03  0.3272E+03
      3.944  0.1310E+03  0.3332E+03
      3.989  0.1277E+03  0.3390E+03
      4.035  0.1256E+03  0.3448E+03
      4.080  0.1263E+03  0.3505E+03
      4.126  0.1306E+03  0.3565E+03
      4.172  0.1378E+03  0.3628E+03
      4.217  0.1464E+03  0.3694E+03
      4.263  0.1552E+03  0.3765E+03
      4.308  0.1640E+03  0.3840E+03
      4.354  0.1724E+03  0.3918E+03
      4.400  0.1795E+03  0.4000E+03
      4.445  0.1840E+03  0.4084E+03
      4.491  0.1846E+03  0.4168E+03
      4.536  0.1814E+03  0.4251E+03
      4.582  0.1764E+03  0.4331E+03
      4.628  0.1724E+03  0.4410E+03
      4.673  0.1723E+03  0.4489E+03
      4.719  0.1774E+03  0.4569E+03
      4.764  0.1876E+03  0.4655E+03
      4.810  0.2006E+03  0.4746E+03
      4.855  0.2133E+03  0.4844E+03
      4.901  0.2228E+03  0.4945E+03
      4.947  0.2278E+03  0.5049E+03
      4.992  0.2286E+03  0.5153E+03
      5.038  0.2269E+03  0.5257E+03
      5.083  0.2248E+03  0.5359E+03
      5.129  0.2243E+03  0.5462E+03
      5.175  0.2268E+03  0.5565E+03
      5.220  0.2326E+03  0.5671E+03
      5.266  0.2411E+03  0.5781E+03
      5.311  0.2504E+03  0.5895E+03
      5.357  0.2576E+03  0.6012E+03
      5.403  0.2592E+03  0.6131E+03
      5.448  0.2530E+03  0.6246E+03
      5.494  0.2392E+03  0.6355E+03
      5.539  0.2207E+03  0.6456E+03
      5.585  0.2017E+03  0.6548E+03
      5.630  0.1856E+03  0.6632E+03
      5.676  0.1739E+03  0.6711E+03
      5.722  0.1655E+03  0.6787E+03
      5.767  0.1587E+03  0.6859E+03
      5.813  0.1521E+03  0.6929E+03
      5.858  0.1461E+03  0.6995E+03
      5.904  0.1421E+03  0.7060E+03
      5.950  0.1419E+03  0.7125E+03
      5.995  0.1461E+03  0.7191E+03
      6.041  0.1541E+03  0.7262E+03
      6.086  0.1640E+03  0.7336E+03
      6.132  0.1736E+03  0.7415E+03
      6.178  0.1817E+03  0.7498E+03
      6.223  0.1880E+03  0.7584E+03
      6.269  0.1935E+03  0.7672E+03
      6.314  0.1990E+03  0.7763E+03
      6.360  0.2044E+03  0.7856E+03
      6.405  0.2086E+03  0.7951E+03
      6.451  0.2104E+03  0.8047E+03
      6.497  0.2099E+03  0.8143E+03
      6.542  0.2081E+03  0.8238E+03
      6.588  0.2062E+03  0.8332E+03
      6.633  0.2041E+03  0.8425E+03
      6.679  0.2005E+03  0.8516E+03
      6.725  0.1941E+03  0.8605E+03
      6.770  0.1849E+03  0.8689E+03
      6.816  0.1751E+03  0.8769E+03
      6.861  0.1680E+03  0.8845E+03
      6.907  0.1658E+03  0.8921E+03
      6.953  0.1684E+03  0.8998E+03
      6.998  0.1736E+03  0.9077E+03
      7.044  0.1787E+03  0.9158E+03
      7.089  0.1820E+03  0.9241E+03
      7.135  0.1836E+03  0.9325E+03
      7.181  0.1846E+03  0.9409E+03
      7.226  0.1865E+03  0.9494E+03
      7.272  0.1904E+03  0.9581E+03
      7.317  0.1974E+03  0.9671E+03
      7.363  0.2084E+03  0.9766E+03
      7.408  0.2233E+03  0.9868E+03
      7.454  0.2399E+03  0.9977E+03
      7.500  0.2534E+03  0.1009E+04
      7.545  0.2566E+03  0.1021E+04
      7.591  0.2431E+03  0.1032E+04
      7.636  0.2103E+03  0.1042E+04
      7.682  0.1622E+03  0.1049E+04
      7.728  0.1079E+03  0.1054E+04
      7.773  0.5836E+02  0.1057E+04
      7.819  0.2154E+02  0.1058E+04
      7.864 -0.9468E-01  0.1058E+04
      7.910 -0.8985E+01  0.1057E+04
      7.956 -0.9929E+01  0.1057E+04
      8.001 -0.7471E+01  0.1056E+04
      8.047 -0.4527E+01  0.1056E+04
      8.092 -0.2329E+01  0.1056E+04
      8.138 -0.1040E+01  0.1056E+04
      8.183 -0.4089E+00  0.1056E+04
      8.229 -0.1424E+00  0.1056E+04
      8.275 -0.4416E-01  0.1056E+04
      8.320 -0.1223E-01  0.1056E+04
      8.366 -0.3032E-02  0.1056E+04
      8.411 -0.6739E-03  0.1056E+04
      8.457 -0.1345E-03  0.1056E+04
      8.503 -0.2411E-04  0.1056E+04
      8.548 -0.3888E-05  0.1056E+04
      8.594 -0.5641E-06  0.1056E+04
      8.639 -0.7367E-07  0.1056E+04
      8.685 -0.8662E-08  0.1056E+04
      8.731 -0.9174E-09  0.1056E+04
      8.776 -0.8753E-10  0.1056E+04
      8.822 -0.7537E-11  0.1056E+04
      8.867 -0.5878E-12  0.1056E+04
      8.913 -0.3653E-13  0.1056E+04
      8.958  0.0000E+00  0.1056E+04
      9.004  0.0000E+00  0.1056E+04
      9.050  0.0000E+00  0.1056E+04
      9.095  0.0000E+00  0.1056E+04
      9.141  0.0000E+00  0.1056E+04
      9.186  0.0000E+00  0.1056E+04
      9.232  0.0000E+00  0.1056E+04
      9.278  0.0000E+00  0.1056E+04
      9.323  0.0000E+00  0.1056E+04
      9.369  0.0000E+00  0.1056E+04
      9.414  0.0000E+00  0.1056E+04
      9.460  0.0000E+00  0.1056E+04
      9.506  0.0000E+00  0.1056E+04
      9.551  0.0000E+00  0.1056E+04
      9.597  0.0000E+00  0.1056E+04
      9.642  0.0000E+00  0.1056E+04
      9.688  0.0000E+00  0.1056E+04
