  107  107    1    1
  0.1031640E+02  0.1033485E-08  0.1033485E-08  0.1033485E-08  0.3000000E-16
  1.000000000000000E-004
  CAR 
 Vib                                     
    856     32    528
 
  0.1250000E+00  0.1250000E+00  0.1250000E+00  0.3125000E-01
    1       -1.988824   1.000000
    2       -0.883444   1.000000
    3       -0.882559   1.000000
    4       -0.811849   1.000000
    5       -0.199536   1.000000
    6       -0.198664   1.000000
    7       -0.130993   1.000000
    8        0.133129   1.000000
    9        0.133954   1.000000
   10        0.215574   1.000000
   11        0.730325   1.000000
   12        0.738937   1.000000
   13        0.739301   1.000000
   14        0.763748   1.000000
   15        0.765609   1.000000
   16        0.826135   1.000000
   17        0.906665   1.000000
   18        1.256176   1.000000
   19        1.257255   1.000000
   20        1.271075   1.000000
   21        1.290142   1.000000
   22        1.290980   1.000000
   23        1.377224   1.000000
   24        1.524039   1.000000
   25        1.525091   1.000000
   26        1.571404   1.000000
   27        1.673490   1.000000
   28        1.728720   1.000000
   29        1.729489   1.000000
   30        1.759657   1.000000
   31        1.819080   1.000000
   32        1.838178   1.000000
   33        1.838865   1.000000
   34        1.936694   1.000000
   35        1.937759   1.000000
   36        1.963628   1.000000
   37        2.278501   1.000000
   38        2.278606   1.000000
   39        2.278901   1.000000
   40        2.384863   1.000000
   41        2.386755   1.000000
   42        2.387245   1.000000
   43        2.404147   1.000000
   44        2.404871   1.000000
   45        2.408192   1.000000
   46        2.409658   1.000000
   47        2.418923   1.000000
   48        2.426273   1.000000
   49        2.443214   1.000000
   50        2.445093   1.000000
   51        2.445425   1.000000
   52        2.446024   1.000000
   53        2.455989   1.000000
   54        2.456594   1.000000
   55        2.470691   1.000000
   56        2.472653   1.000000
   57        2.473315   1.000000
   58        2.519031   1.000000
   59        2.520775   1.000000
   60        2.543209   1.000000
   61        2.546259   1.000000
   62        2.547032   1.000000
   63        2.567624   1.000000
   64        2.567914   1.000000
   65        2.568640   1.000000
   66        2.640058   1.000000
   67        2.640935   1.000000
   68        2.642767   1.000000
   69        2.643039   1.000000
   70        2.662735   1.000000
   71        2.663572   1.000000
   72        2.675038   1.000000
   73        2.678467   1.000000
   74        2.679010   1.000000
   75        2.679929   1.000000
   76        2.699805   1.000000
   77        2.700402   1.000000
   78        2.706569   1.000000
   79        2.736426   1.000000
   80        2.737073   1.000000
   81        2.737901   1.000000
   82        2.740451   1.000000
   83        2.744596   1.000000
   84        2.744966   1.000000
   85        2.780747   1.000000
   86        2.810576   1.000000
   87        2.811384   1.000000
   88        2.849689   1.000000
   89        2.859583   1.000000
   90        2.860248   1.000000
   91        2.913394   1.000000
   92        2.914369   1.000000
   93        2.957931   1.000000
   94        2.975951   1.000000
   95        2.977019   1.000000
   96        2.994893   1.000000
   97        2.995972   1.000000
   98        3.003640   1.000000
   99        3.010241   1.000000
  100        3.014633   1.000000
  101        3.017730   1.000000
  102        3.018191   1.000000
  103        3.073888   1.000000
  104        3.077128   1.000000
  105        3.077912   1.000000
  106        3.096686   1.000000
  107        3.098079   1.000000
  108        3.117952   1.000000
  109        3.125126   1.000000
  110        3.127324   1.000000
  111        3.190196   1.000000
  112        3.226963   1.000000
  113        3.241542   1.000000
  114        3.243297   1.000000
  115        3.254528   1.000000
  116        3.256085   1.000000
  117        3.260060   1.000000
  118        3.295605   1.000000
  119        3.297662   1.000000
  120        3.308429   1.000000
  121        3.361215   1.000000
  122        3.362810   1.000000
  123        3.377923   1.000000
  124        3.379244   1.000000
  125        3.379574   1.000000
  126        3.397224   1.000000
  127        3.398224   1.000000
  128        3.400273   1.000000
  129        3.403164   1.000000
  130        3.405891   1.000000
  131        3.413355   1.000000
  132        3.423094   1.000000
  133        3.429606   1.000000
  134        3.430004   1.000000
  135        3.431336   1.000000
  136        3.470140   1.000000
  137        3.482619   1.000000
  138        3.483511   1.000000
  139        3.483868   1.000000
  140        3.516991   1.000000
  141        3.517539   1.000000
  142        3.526061   1.000000
  143        3.550773   1.000000
  144        3.551610   1.000000
  145        3.594546   1.000000
  146        3.603519   1.000000
  147        3.604108   1.000000
  148        3.629719   1.000000
  149        3.631415   1.000000
  150        3.642443   1.000000
  151        3.658304   1.000000
  152        3.659932   1.000000
  153        3.660408   1.000000
  154        3.664249   1.000000
  155        3.697630   1.000000
  156        3.700235   1.000000
  157        3.713055   1.000000
  158        3.715919   1.000000
  159        3.788676   1.000000
  160        3.815157   1.000000
  161        3.818556   1.000000
  162        3.818901   1.000000
  163        3.835135   1.000000
  164        3.848920   1.000000
  165        3.849433   1.000000
  166        3.899950   1.000000
  167        3.930771   1.000000
  168        3.932625   1.000000
  169        4.020343   1.000000
  170        4.022896   1.000000
  171        4.038211   1.000000
  172        4.038742   1.000000
  173        4.073966   1.000000
  174        4.075690   1.000000
  175        4.177374   1.000000
  176        4.178420   1.000000
  177        4.179557   1.000000
  178        4.187264   1.000000
  179        4.188026   1.000000
  180        4.192814   1.000000
  181        4.216630   1.000000
  182        4.216874   1.000000
  183        4.223715   1.000000
  184        4.225902   1.000000
  185        4.236358   1.000000
  186        4.236965   1.000000
  187        4.257691   1.000000
  188        4.265359   1.000000
  189        4.266996   1.000000
  190        4.292423   1.000000
  191        4.294080   1.000000
  192        4.297654   1.000000
  193        4.355585   1.000000
  194        4.362133   1.000000
  195        4.363036   1.000000
  196        4.364081   1.000000
  197        4.372115   1.000000
  198        4.372404   1.000000
  199        4.383999   1.000000
  200        4.384568   1.000000
  201        4.386232   1.000000
  202        4.388846   1.000000
  203        4.400876   1.000000
  204        4.402749   1.000000
  205        4.405792   1.000000
  206        4.414519   1.000000
  207        4.415357   1.000000
  208        4.431179   1.000000
  209        4.456367   1.000000
  210        4.466430   1.000000
  211        4.467284   1.000000
  212        4.478438   1.000000
  213        4.481232   1.000000
  214        4.518656   1.000000
  215        4.544819   1.000000
  216        4.548825   1.000000
  217        4.549876   1.000000
  218        4.575427   1.000000
  219        4.576421   1.000000
  220        4.613070   1.000000
  221        4.621867   1.000000
  222        4.623275   1.000000
  223        4.701097   1.000000
  224        4.729254   1.000000
  225        4.731393   1.000000
  226        4.732280   1.000000
  227        4.732756   1.000000
  228        4.737322   1.000000
  229        4.738094   1.000000
  230        4.739954   1.000000
  231        4.748330   1.000000
  232        4.748895   1.000000
  233        4.771036   1.000000
  234        4.787468   1.000000
  235        4.790138   1.000000
  236        4.805512   1.000000
  237        4.829608   1.000000
  238        4.832476   1.000000
  239        4.882291   1.000000
  240        4.886432   1.000000
  241        4.887635   1.000000
  242        4.917272   1.000000
  243        4.918809   1.000000
  244        4.919454   1.000000
  245        4.977267   1.000000
  246        4.980846   1.000000
  247        4.982006   1.000000
  248        4.982609   1.000000
  249        4.984110   1.000000
  250        4.984549   1.000000
  251        4.987422   1.000000
  252        4.989054   1.000000
  253        4.990314   1.000000
  254        5.006189   1.000000
  255        5.008018   1.000000
  256        5.011962   1.000000
  257        5.022759   1.000000
  258        5.023174   1.000000
  259        5.039750   1.000000
  260        5.046853   1.000000
  261        5.056339   1.000000
  262        5.057376   1.000000
  263        5.060007   1.000000
  264        5.076871   1.000000
  265        5.077546   1.000000
  266        5.083997   1.000000
  267        5.087873   1.000000
  268        5.088343   1.000000
  269        5.104056   1.000000
  270        5.105182   1.000000
  271        5.106983   1.000000
  272        5.116213   1.000000
  273        5.116911   1.000000
  274        5.136697   1.000000
  275        5.137453   1.000000
  276        5.139998   1.000000
  277        5.141090   1.000000
  278        5.160842   1.000000
  279        5.162493   1.000000
  280        5.163146   1.000000
  281        5.184477   1.000000
  282        5.187714   1.000000
  283        5.188878   1.000000
  284        5.200997   1.000000
  285        5.203426   1.000000
  286        5.204019   1.000000
  287        5.204944   1.000000
  288        5.210413   1.000000
  289        5.212210   1.000000
  290        5.228788   1.000000
  291        5.229695   1.000000
  292        5.231181   1.000000
  293        5.239992   1.000000
  294        5.241147   1.000000
  295        5.258462   1.000000
  296        5.259459   1.000000
  297        5.268984   1.000000
  298        5.269945   1.000000
  299        5.282314   1.000000
  300        5.298627   1.000000
  301        5.307170   1.000000
  302        5.307985   1.000000
  303        5.310120   1.000000
  304        5.325958   1.000000
  305        5.326726   1.000000
  306        5.340535   1.000000
  307        5.399023   1.000000
  308        5.402790   1.000000
  309        5.404878   1.000000
  310        5.456689   1.000000
  311        5.457918   1.000000
  312        5.485526   1.000000
  313        5.498529   1.000000
  314        5.503298   1.000000
  315        5.504064   1.000000
  316        5.513790   1.000000
  317        5.514917   1.000000
  318        5.515965   1.000000
  319        5.517694   1.000000
  320        5.521543   1.000000
  321        5.522664   1.000000
  322        5.534915   1.000000
  323        5.536243   1.000000
  324        5.546635   1.000000
  325        5.548877   1.000000
  326        5.569037   1.000000
  327        5.569643   1.000000
  328        5.578882   1.000000
  329        5.580942   1.000000
  330        5.633740   1.000000
  331        5.655682   1.000000
  332        5.657182   1.000000
  333        5.658008   1.000000
  334        5.658993   1.000000
  335        5.666177   1.000000
  336        5.670414   1.000000
  337        5.672449   1.000000
  338        5.679892   1.000000
  339        5.686931   1.000000
  340        5.689230   1.000000
  341        5.698537   1.000000
  342        5.706228   1.000000
  343        5.706977   1.000000
  344        5.733687   1.000000
  345        5.734581   1.000000
  346        5.736670   1.000000
  347        5.749581   1.000000
  348        5.751488   1.000000
  349        5.764384   1.000000
  350        5.765326   1.000000
  351        5.770497   1.000000
  352        5.780110   1.000000
  353        5.810051   1.000000
  354        5.810696   1.000000
  355        5.817752   1.000000
  356        5.821752   1.000000
  357        5.824158   1.000000
  358        5.839105   1.000000
  359        5.840136   1.000000
  360        5.855578   1.000000
  361        5.899877   1.000000
  362        5.926427   1.000000
  363        5.928010   1.000000
  364        6.000200   1.000004
  365        6.013029   1.000006
  366        6.013900   1.000007
  367        6.036967   1.000014
  368        6.038189   1.000014
  369        6.039957   1.000015
  370        6.114953   1.000136
  371        6.116065   1.000140
  372        6.132296   1.000216
  373        6.147805   1.000322
  374        6.148081   1.000325
  375        6.149429   1.000336
  376        6.155650   1.000393
  377        6.158416   1.000421
  378        6.159040   1.000427
  379        6.160116   1.000439
  380        6.163011   1.000471
  381        6.164072   1.000484
  382        6.164907   1.000494
  383        6.230026   1.002144
  384        6.232067   1.002237
  385        6.238667   1.002558
  386        6.287589   1.006359
  387        6.289768   1.006599
  388        6.333523   1.012971
  389        6.340232   1.014215
  390        6.341094   1.014380
  391        6.346622   1.015463
  392        6.369513   1.020355
  393        6.370157   1.020501
  394        6.406916   1.028871
  395        6.412326   1.030011
  396        6.413099   1.030169
  397        6.414040   1.030360
  398        6.467109   1.034984
  399        6.467793   1.034919
  400        6.487688   1.030845
  401        6.489619   1.030196
  402        6.501110   1.025257
  403        6.532426   1.000610
  404        6.532810   1.000192
  405        6.538787   0.993268
  406        6.544166   0.986372
  407        6.550744   0.977054
  408        6.551329   0.976176
  409        6.566394   0.950780
  410        6.580586   0.921748
  411        6.581242   0.920282
  412        6.599834   0.874264
  413        6.601689   0.869197
  414        6.603881   0.863099
  415        6.605309   0.859064
  416        6.620657   0.812614
  417        6.621870   0.808710
  418        6.667554   0.640810
  419        6.668683   0.636248
  420        6.679640   0.591313
  421        6.681305   0.584394
  422        6.682919   0.577671
  423        6.719673   0.422877
  424        6.720260   0.420427
  425        6.722226   0.412243
  426        6.723831   0.405586
  427        6.765160   0.244670
  428        6.766867   0.238616
  429        6.789182   0.165159
  430        6.794502   0.149317
  431        6.795181   0.147343
  432        6.797008   0.142092
  433        6.809279   0.108939
  434        6.820343   0.082282
  435        6.821867   0.078855
  436        6.837188   0.047623
  437        6.844757   0.034339
  438        6.845425   0.033233
  439        6.904969  -0.026899
  440        6.905700  -0.027235
  441        6.944801  -0.035449
  442        6.948178  -0.035445
  443        6.950009  -0.035407
  444        6.954694  -0.035202
  445        6.956700  -0.035071
  446        6.958157  -0.034960
  447        6.969185  -0.033741
  448        6.969792  -0.033656
  449        6.975076  -0.032857
  450        6.978682  -0.032251
  451        6.979388  -0.032127
  452        6.990102  -0.030072
  453        6.990790  -0.029930
  454        6.991913  -0.029697
  455        6.997246  -0.028559
  456        7.009417  -0.025826
  457        7.014357  -0.024687
  458        7.014884  -0.024565
  459        7.024880  -0.022254
  460        7.042927  -0.018207
  461        7.043764  -0.018027
  462        7.053194  -0.016049
  463        7.055044  -0.015675
  464        7.059295  -0.014832
  465        7.081373  -0.010893
  466        7.083636  -0.010532
  467        7.122290  -0.005619
  468        7.127806  -0.005096
  469        7.129703  -0.004925
  470        7.141601  -0.003958
  471        7.146276  -0.003623
  472        7.147373  -0.003548
  473        7.152228  -0.003231
  474        7.163671  -0.002577
  475        7.164761  -0.002522
  476        7.173770  -0.002097
  477        7.213573  -0.000878
  478        7.218067  -0.000791
  479        7.219994  -0.000756
  480        7.235118  -0.000527
  481        7.247151  -0.000392
  482        7.248842  -0.000376
  483        7.270503  -0.000216
  484        7.274513  -0.000194
  485        7.275135  -0.000191
  486        7.276343  -0.000185
  487        7.298195  -0.000102
  488        7.299209  -0.000099
  489        7.305186  -0.000084
  490        7.306430  -0.000081
  491        7.307571  -0.000078
  492        7.331876  -0.000039
  493        7.349846  -0.000023
  494        7.349999  -0.000022
  495        7.352163  -0.000021
  496        7.353585  -0.000020
  497        7.375378  -0.000010
  498        7.377063  -0.000010
  499        7.377788  -0.000009
  500        7.381016  -0.000008
  501        7.381671  -0.000008
  502        7.390257  -0.000006
  503        7.440754  -0.000001
  504        7.441231  -0.000001
  505        7.448110  -0.000001
  506        7.449333  -0.000001
  507        7.450951  -0.000001
  508        7.477830  -0.000000
  509        7.479004  -0.000000
  510        7.480630  -0.000000
  511        7.483603  -0.000000
  512        7.484354  -0.000000
  513        7.485623  -0.000000
  514        7.499770  -0.000000
  515        7.510046  -0.000000
  516        7.510464  -0.000000
  517        7.531866  -0.000000
  518        7.574979  -0.000000
  519        7.584688  -0.000000
  520        7.586371  -0.000000
  521        7.613093  -0.000000
  522        7.613462  -0.000000
  523        7.640213  -0.000000
  524        7.641795  -0.000000
  525        7.647701  -0.000000
  526        7.660807  -0.000000
  527        7.665282  -0.000000
  528        7.668217  -0.000000
 
  0.3750000E+00  0.1250000E+00  0.1250000E+00  0.3125000E-01
    1       -1.794677   1.000000
    2       -1.408426   1.000000
    3       -0.706106   1.000000
    4       -0.662309   1.000000
    5       -0.360811   1.000000
    6       -0.309003   1.000000
    7       -0.033598   1.000000
    8        0.013215   1.000000
    9        0.279200   1.000000
   10        0.286652   1.000000
   11        0.350495   1.000000
   12        0.533162   1.000000
   13        0.583393   1.000000
   14        0.846741   1.000000
   15        0.872574   1.000000
   16        1.024483   1.000000
   17        1.053584   1.000000
   18        1.264025   1.000000
   19        1.349065   1.000000
   20        1.402104   1.000000
   21        1.427451   1.000000
   22        1.467393   1.000000
   23        1.677875   1.000000
   24        1.804425   1.000000
   25        1.810093   1.000000
   26        1.820622   1.000000
   27        1.863618   1.000000
   28        1.865357   1.000000
   29        1.875201   1.000000
   30        1.884206   1.000000
   31        1.908791   1.000000
   32        1.946040   1.000000
   33        1.954680   1.000000
   34        1.981543   1.000000
   35        2.024080   1.000000
   36        2.029610   1.000000
   37        2.042682   1.000000
   38        2.060828   1.000000
   39        2.076307   1.000000
   40        2.084749   1.000000
   41        2.097001   1.000000
   42        2.113979   1.000000
   43        2.131428   1.000000
   44        2.154996   1.000000
   45        2.174163   1.000000
   46        2.198334   1.000000
   47        2.222129   1.000000
   48        2.248568   1.000000
   49        2.322893   1.000000
   50        2.326369   1.000000
   51        2.400968   1.000000
   52        2.416328   1.000000
   53        2.432607   1.000000
   54        2.435834   1.000000
   55        2.436800   1.000000
   56        2.455476   1.000000
   57        2.464079   1.000000
   58        2.471487   1.000000
   59        2.495544   1.000000
   60        2.510765   1.000000
   61        2.521800   1.000000
   62        2.549878   1.000000
   63        2.558043   1.000000
   64        2.565005   1.000000
   65        2.575301   1.000000
   66        2.600854   1.000000
   67        2.606332   1.000000
   68        2.639972   1.000000
   69        2.640843   1.000000
   70        2.650667   1.000000
   71        2.664477   1.000000
   72        2.670082   1.000000
   73        2.671400   1.000000
   74        2.683862   1.000000
   75        2.694056   1.000000
   76        2.705128   1.000000
   77        2.718603   1.000000
   78        2.735479   1.000000
   79        2.747228   1.000000
   80        2.757281   1.000000
   81        2.777444   1.000000
   82        2.817911   1.000000
   83        2.822435   1.000000
   84        2.829506   1.000000
   85        2.830693   1.000000
   86        2.838518   1.000000
   87        2.851548   1.000000
   88        2.860385   1.000000
   89        2.862601   1.000000
   90        2.882668   1.000000
   91        2.894483   1.000000
   92        2.924136   1.000000
   93        2.938974   1.000000
   94        2.943798   1.000000
   95        2.950516   1.000000
   96        2.958966   1.000000
   97        2.963127   1.000000
   98        2.985269   1.000000
   99        2.995380   1.000000
  100        3.005159   1.000000
  101        3.057730   1.000000
  102        3.065938   1.000000
  103        3.074936   1.000000
  104        3.083691   1.000000
  105        3.115790   1.000000
  106        3.129943   1.000000
  107        3.132734   1.000000
  108        3.136000   1.000000
  109        3.144036   1.000000
  110        3.156000   1.000000
  111        3.179620   1.000000
  112        3.181177   1.000000
  113        3.203925   1.000000
  114        3.206873   1.000000
  115        3.214793   1.000000
  116        3.240619   1.000000
  117        3.242942   1.000000
  118        3.249940   1.000000
  119        3.259423   1.000000
  120        3.295467   1.000000
  121        3.312350   1.000000
  122        3.331084   1.000000
  123        3.356395   1.000000
  124        3.364459   1.000000
  125        3.366382   1.000000
  126        3.402477   1.000000
  127        3.420018   1.000000
  128        3.421119   1.000000
  129        3.431343   1.000000
  130        3.437339   1.000000
  131        3.461221   1.000000
  132        3.465195   1.000000
  133        3.467180   1.000000
  134        3.482636   1.000000
  135        3.490777   1.000000
  136        3.499162   1.000000
  137        3.512225   1.000000
  138        3.535556   1.000000
  139        3.540528   1.000000
  140        3.553035   1.000000
  141        3.556423   1.000000
  142        3.564242   1.000000
  143        3.572185   1.000000
  144        3.587691   1.000000
  145        3.589760   1.000000
  146        3.599206   1.000000
  147        3.631028   1.000000
  148        3.663230   1.000000
  149        3.670517   1.000000
  150        3.706996   1.000000
  151        3.709609   1.000000
  152        3.722726   1.000000
  153        3.746115   1.000000
  154        3.749204   1.000000
  155        3.750840   1.000000
  156        3.799576   1.000000
  157        3.816822   1.000000
  158        3.819107   1.000000
  159        3.832553   1.000000
  160        3.836851   1.000000
  161        3.849812   1.000000
  162        3.857851   1.000000
  163        3.876143   1.000000
  164        3.878838   1.000000
  165        3.898345   1.000000
  166        3.900589   1.000000
  167        3.916961   1.000000
  168        3.926146   1.000000
  169        3.952944   1.000000
  170        3.963348   1.000000
  171        3.964862   1.000000
  172        3.971869   1.000000
  173        4.002844   1.000000
  174        4.013623   1.000000
  175        4.030003   1.000000
  176        4.042985   1.000000
  177        4.058985   1.000000
  178        4.085910   1.000000
  179        4.096773   1.000000
  180        4.125259   1.000000
  181        4.133656   1.000000
  182        4.144587   1.000000
  183        4.158349   1.000000
  184        4.172009   1.000000
  185        4.178141   1.000000
  186        4.184840   1.000000
  187        4.211200   1.000000
  188        4.218783   1.000000
  189        4.237843   1.000000
  190        4.252356   1.000000
  191        4.254250   1.000000
  192        4.274327   1.000000
  193        4.327935   1.000000
  194        4.341660   1.000000
  195        4.346436   1.000000
  196        4.357957   1.000000
  197        4.366383   1.000000
  198        4.385009   1.000000
  199        4.389961   1.000000
  200        4.402216   1.000000
  201        4.404560   1.000000
  202        4.425709   1.000000
  203        4.431721   1.000000
  204        4.435300   1.000000
  205        4.461336   1.000000
  206        4.479905   1.000000
  207        4.486424   1.000000
  208        4.503158   1.000000
  209        4.506437   1.000000
  210        4.510429   1.000000
  211        4.513528   1.000000
  212        4.524292   1.000000
  213        4.546483   1.000000
  214        4.548285   1.000000
  215        4.558670   1.000000
  216        4.578161   1.000000
  217        4.593002   1.000000
  218        4.604609   1.000000
  219        4.609866   1.000000
  220        4.615523   1.000000
  221        4.618444   1.000000
  222        4.639991   1.000000
  223        4.653316   1.000000
  224        4.687248   1.000000
  225        4.703605   1.000000
  226        4.720734   1.000000
  227        4.722197   1.000000
  228        4.736893   1.000000
  229        4.763558   1.000000
  230        4.781183   1.000000
  231        4.790149   1.000000
  232        4.797208   1.000000
  233        4.801288   1.000000
  234        4.803187   1.000000
  235        4.811034   1.000000
  236        4.814545   1.000000
  237        4.817057   1.000000
  238        4.823639   1.000000
  239        4.832321   1.000000
  240        4.841215   1.000000
  241        4.854516   1.000000
  242        4.859087   1.000000
  243        4.872117   1.000000
  244        4.873419   1.000000
  245        4.878417   1.000000
  246        4.885176   1.000000
  247        4.897525   1.000000
  248        4.907475   1.000000
  249        4.911732   1.000000
  250        4.913225   1.000000
  251        4.937591   1.000000
  252        4.944854   1.000000
  253        4.949519   1.000000
  254        4.950833   1.000000
  255        4.961764   1.000000
  256        4.972642   1.000000
  257        4.983180   1.000000
  258        4.987008   1.000000
  259        4.996686   1.000000
  260        5.009838   1.000000
  261        5.013347   1.000000
  262        5.016632   1.000000
  263        5.041156   1.000000
  264        5.051552   1.000000
  265        5.054014   1.000000
  266        5.069900   1.000000
  267        5.090344   1.000000
  268        5.099837   1.000000
  269        5.122207   1.000000
  270        5.125210   1.000000
  271        5.132019   1.000000
  272        5.137980   1.000000
  273        5.154326   1.000000
  274        5.161161   1.000000
  275        5.167755   1.000000
  276        5.175748   1.000000
  277        5.184976   1.000000
  278        5.195799   1.000000
  279        5.200907   1.000000
  280        5.210515   1.000000
  281        5.217451   1.000000
  282        5.218861   1.000000
  283        5.224992   1.000000
  284        5.231174   1.000000
  285        5.232431   1.000000
  286        5.243532   1.000000
  287        5.244719   1.000000
  288        5.257281   1.000000
  289        5.258093   1.000000
  290        5.273352   1.000000
  291        5.274690   1.000000
  292        5.309517   1.000000
  293        5.314773   1.000000
  294        5.327143   1.000000
  295        5.329692   1.000000
  296        5.339510   1.000000
  297        5.340656   1.000000
  298        5.341580   1.000000
  299        5.345069   1.000000
  300        5.355564   1.000000
  301        5.359128   1.000000
  302        5.366766   1.000000
  303        5.370276   1.000000
  304        5.376501   1.000000
  305        5.377365   1.000000
  306        5.388765   1.000000
  307        5.391617   1.000000
  308        5.400619   1.000000
  309        5.413239   1.000000
  310        5.417318   1.000000
  311        5.433124   1.000000
  312        5.434447   1.000000
  313        5.436727   1.000000
  314        5.445235   1.000000
  315        5.451245   1.000000
  316        5.452909   1.000000
  317        5.454585   1.000000
  318        5.469018   1.000000
  319        5.473463   1.000000
  320        5.487361   1.000000
  321        5.495240   1.000000
  322        5.503102   1.000000
  323        5.503898   1.000000
  324        5.516652   1.000000
  325        5.519762   1.000000
  326        5.526202   1.000000
  327        5.537092   1.000000
  328        5.554548   1.000000
  329        5.565970   1.000000
  330        5.571782   1.000000
  331        5.578434   1.000000
  332        5.579383   1.000000
  333        5.595543   1.000000
  334        5.630566   1.000000
  335        5.635318   1.000000
  336        5.641006   1.000000
  337        5.654477   1.000000
  338        5.674029   1.000000
  339        5.696661   1.000000
  340        5.702823   1.000000
  341        5.730169   1.000000
  342        5.745812   1.000000
  343        5.758296   1.000000
  344        5.766055   1.000000
  345        5.773303   1.000000
  346        5.776264   1.000000
  347        5.788194   1.000000
  348        5.790862   1.000000
  349        5.798328   1.000000
  350        5.799343   1.000000
  351        5.860076   1.000000
  352        5.871338   1.000000
  353        5.908030   1.000000
  354        5.911073   1.000000
  355        5.952179   1.000001
  356        5.967070   1.000001
  357        5.988885   1.000003
  358        5.992059   1.000003
  359        6.004839   1.000005
  360        6.012139   1.000006
  361        6.026254   1.000010
  362        6.046556   1.000019
  363        6.053957   1.000023
  364        6.059573   1.000028
  365        6.071414   1.000039
  366        6.076237   1.000045
  367        6.097885   1.000085
  368        6.112439   1.000127
  369        6.122644   1.000167
  370        6.136794   1.000243
  371        6.144452   1.000296