 running on   24 total cores
 distrk:  each k-point on   24 cores,    1 groups
 distr:  one band on    1 cores,   24 groups
 using from now: INCAR     
 vasp.5.4.1 24Jun15 (build Jun 21 2019 17:19:10) complex                        
  
 POSCAR found type information on POSCAR  Fe
 POSCAR found :  1 types and     107 ions
 scaLAPACK will be used

 ----------------------------------------------------------------------------- 
|                                                                             |
|           W    W    AA    RRRRR   N    N  II  N    N   GGGG   !!!           |
|           W    W   A  A   R    R  NN   N  II  NN   N  G    G  !!!           |
|           W    W  A    A  R    R  N N  N  II  N N  N  G       !!!           |
|           W WW W  AAAAAA  RRRRR   N  N N  II  N  N N  G  GGG   !            |
|           WW  WW  A    A  R   R   N   NN  II  N   NN  G    G                |
|           W    W  A    A  R    R  N    N  II  N    N   GGGG   !!!           |
|                                                                             |
|      For optimal performance we recommend to set                            |
|        NCORE= 4 - approx SQRT( number of cores)                             |
|      NCORE specifies how many cores store one orbital (NPAR=cpu/NCORE).     |
|      This setting can  greatly improve the performance of VASP for DFT.     |
|      The default, NPAR=number of cores might be grossly inefficient         |
|      on modern multi-core architectures or massively parallel machines.     |
|      Do your own testing !!!!                                               |
|      Unfortunately you need to use the default for GW and RPA calculations. |
|      (for HF NCORE is supported but not extensively tested yet)             |
|                                                                             |
 ----------------------------------------------------------------------------- 

 LDA part: xc-table for Pade appr. of Perdew
 POSCAR found type information on POSCAR  Fe
 POSCAR found :  1 types and     107 ions
 POSCAR, INCAR and KPOINTS ok, starting setup
 FFT: planning ...
 WAVECAR not read
 entering main loop
       N       E                     dE             d eps       ncg     rms          rms(c)
DAV:   1     0.731882510573E+04    0.73188E+04   -0.28766E+05 33840   0.178E+03
DAV:   2    -0.101665120515E+03   -0.74205E+04   -0.72153E+04 33792   0.438E+02
DAV:   3    -0.870985086560E+03   -0.76932E+03   -0.65263E+03 33792   0.182E+02
DAV:   4    -0.102198752834E+04   -0.15100E+03   -0.14097E+03 61368   0.529E+01
DAV:   5    -0.103310790435E+04   -0.11120E+02   -0.10641E+02 53736   0.188E+01    0.931E+01
RMM:   6    -0.881395906863E+03    0.15171E+03   -0.13927E+03 33792   0.109E+02    0.417E+01
RMM:   7    -0.117941145737E+04   -0.29802E+03   -0.35449E+02 43371   0.306E+01    0.176E+02
RMM:   8    -0.886920142128E+03    0.29249E+03   -0.19194E+02 33792   0.388E+01    0.599E+01
RMM:   9    -0.870072120123E+03    0.16848E+02   -0.57685E+01 35816   0.145E+01    0.205E+01
RMM:  10    -0.872126764441E+03   -0.20546E+01   -0.33309E+01 46875   0.760E+00    0.212E+01
RMM:  11    -0.870349047049E+03    0.17777E+01   -0.93224E+00 37722   0.570E+00    0.115E+01
RMM:  12    -0.870259621633E+03    0.89425E-01   -0.44317E+00 47189   0.262E+00    0.117E+01
RMM:  13    -0.869467161183E+03    0.79246E+00   -0.18066E+00 34318   0.345E+00    0.691E+00
RMM:  14    -0.869338776021E+03    0.12839E+00   -0.90172E-01 40725   0.155E+00    0.561E+00
RMM:  15    -0.869211362767E+03    0.12741E+00   -0.41601E-01 37738   0.132E+00    0.523E+00
RMM:  16    -0.869150252638E+03    0.61110E-01   -0.18341E-01 40472   0.688E-01    0.412E+00
RMM:  17    -0.869123435288E+03    0.26817E-01   -0.16433E-01 34896   0.905E-01    0.337E+00
RMM:  18    -0.869068788685E+03    0.54647E-01   -0.12001E-01 35633   0.780E-01    0.563E-01
RMM:  19    -0.869075633210E+03   -0.68445E-02   -0.77256E-02 49827   0.271E-01    0.969E-01
RMM:  20    -0.869075329915E+03    0.30329E-03   -0.18868E-02 38567   0.248E-01    0.102E+00
RMM:  21    -0.869073731321E+03    0.15986E-02   -0.81676E-03 41014   0.144E-01    0.845E-01
RMM:  22    -0.869071154862E+03    0.25765E-02   -0.43362E-03 34683   0.159E-01    0.423E-01
RMM:  23    -0.869070608496E+03    0.54637E-03   -0.17264E-03 42159   0.642E-02    0.222E-01
RMM:  24    -0.869070581503E+03    0.26993E-04   -0.72045E-04 46522   0.352E-02    0.187E-01
RMM:  25    -0.869070416742E+03    0.16476E-03   -0.39267E-04 40473   0.337E-02    0.917E-02
RMM:  26    -0.869070381107E+03    0.35634E-04   -0.15687E-04 45323   0.184E-02    0.229E-02
RMM:  27    -0.869070353131E+03    0.27976E-04   -0.51433E-05 42376   0.129E-02    0.424E-02
RMM:  28    -0.869070337793E+03    0.15338E-04    0.87911E-07 36756   0.910E-03    0.128E-02
RMM:  29    -0.869070336604E+03    0.11887E-05    0.73562E-06 36812   0.500E-03    0.228E-02
RMM:  30    -0.869070331452E+03    0.51525E-05    0.15248E-05 22591   0.414E-03    0.682E-03
RMM:  31    -0.869070329789E+03    0.16632E-05    0.15625E-05 19926   0.188E-03    0.508E-03
RMM:  32    -0.869070329351E+03    0.43766E-06    0.13455E-05 19365   0.202E-03    0.545E-03
RMM:  33    -0.869070328670E+03    0.68118E-06    0.12776E-05 19034   0.166E-03    0.131E-03
RMM:  34    -0.869070328062E+03    0.60761E-06    0.11057E-05 18733   0.105E-03    0.275E-03
RMM:  35    -0.869070327782E+03    0.28078E-06    0.10291E-05 18664   0.115E-03    0.806E-04
RMM:  36    -0.869070326966E+03    0.81519E-06    0.89173E-06 13226   0.547E-04
   1 F= -.86907033E+03 E0= -.86904949E+03  d E =-.625135E-01
 Finite differences POTIM= 0.03000 DOF=   3
 bond charge predicted
       N       E                     dE             d eps       ncg     rms          rms(c)
DAV:   1    -0.869065493726E+03    0.48341E-02   -0.34588E+00 35976   0.246E+00    0.384E-01
RMM:   2    -0.869128040405E+03   -0.62547E-01   -0.13993E-01 35152   0.885E-01    0.345E+00
RMM:   3    -0.869069687050E+03    0.58353E-01   -0.34311E-02 33792   0.542E-01    0.537E-01
RMM:   4    -0.869067757518E+03    0.19295E-02   -0.86839E-03 44701   0.132E-01    0.227E-01
RMM:   5    -0.869069058086E+03   -0.13006E-02   -0.55758E-03 39646   0.126E-01    0.605E-01
RMM:   6    -0.869067158928E+03    0.18992E-02   -0.24116E-03 34073   0.115E-01    0.155E-01
RMM:   7    -0.869067809100E+03   -0.65017E-03   -0.29789E-03 37883   0.101E-01    0.385E-01
RMM:   8    -0.869067130161E+03    0.67894E-03   -0.74957E-04 34101   0.689E-02    0.127E-01
RMM:   9    -0.869067070911E+03    0.59250E-04   -0.36919E-04 42506   0.247E-02    0.424E-02
RMM:  10    -0.869067080724E+03   -0.98126E-05   -0.12225E-04 44951   0.148E-02    0.567E-02
RMM:  11    -0.869067066202E+03    0.14521E-04   -0.27988E-05 36146   0.110E-02    0.203E-02
RMM:  12    -0.869067066344E+03   -0.14136E-06   -0.18121E-05 39310   0.622E-03    0.182E-02
RMM:  13    -0.869067067861E+03   -0.15171E-05   -0.97867E-06 34761   0.610E-03    0.239E-02
RMM:  14    -0.869067065333E+03    0.25282E-05   -0.28001E-06 22107   0.455E-03    0.842E-03
RMM:  15    -0.869067065598E+03   -0.26506E-06   -0.16045E-06 19910   0.252E-03
   2 F= -.86906707E+03 E0= -.86904630E+03  d E =-.623085E-01
 Finite differences progress:
  Degree of freedom:   1/  3
  Displacement:        1/  2
  Total:               1/  6
 bond charge predicted
       N       E                     dE             d eps       ncg     rms          rms(c)
DAV:   1    -0.869059147137E+03    0.79182E-02   -0.13937E+01 35256   0.498E+00    0.844E-01
RMM:   2    -0.869357685370E+03   -0.29854E+00   -0.71554E-01 34879   0.197E+00    0.738E+00
RMM:   3    -0.869079491637E+03    0.27819E+00   -0.17045E-01 33792   0.121E+00    0.124E+00
RMM:   4    -0.869069414740E+03    0.10077E-01   -0.37388E-02 43409   0.289E-01    0.466E-01
RMM:   5    -0.869073868621E+03   -0.44539E-02   -0.21504E-02 40693   0.239E-01    0.114E+00
RMM:   6    -0.869067179054E+03    0.66896E-02   -0.89818E-03 34451   0.212E-01    0.344E-01
RMM:   7    -0.869069991719E+03   -0.28127E-02   -0.12095E-02 36767   0.212E-01    0.821E-01
RMM:   8    -0.869067025938E+03    0.29658E-02   -0.34279E-03 33993   0.146E-01    0.312E-01
RMM:   9    -0.869066606665E+03    0.41927E-03   -0.15458E-03 40693   0.595E-02    0.920E-02
RMM:  10    -0.869066658477E+03   -0.51812E-04   -0.62450E-04 45659   0.336E-02    0.127E-01
RMM:  11    -0.869066585935E+03    0.72542E-04   -0.13785E-04 36329   0.240E-02    0.441E-02
RMM:  12    -0.869066585425E+03    0.51027E-06   -0.86671E-05 44800   0.127E-02    0.352E-02
RMM:  13    -0.869066593171E+03   -0.77468E-05   -0.45957E-05 36879   0.132E-02    0.511E-02
RMM:  14    -0.869066581529E+03    0.11642E-04   -0.16648E-05 34271   0.101E-02    0.184E-02
RMM:  15    -0.869066583213E+03   -0.16845E-05   -0.11843E-05 35469   0.513E-03    0.248E-02
RMM:  16    -0.869066580815E+03    0.23981E-05   -0.29014E-06 23048   0.430E-03    0.108E-02
RMM:  17    -0.869066580313E+03    0.50200E-06   -0.12534E-06 19724   0.275E-03
   3 F= -.86906658E+03 E0= -.86904577E+03  d E =-.624401E-01
 Finite differences progress:
  Degree of freedom:   1/  3
  Displacement:        2/  2
  Total:               2/  6
 bond charge predicted
       N       E                     dE             d eps       ncg     rms          rms(c)
DAV:   1    -0.869062922462E+03    0.36584E-02   -0.69204E+00 34728   0.350E+00    0.567E-01
RMM:   2    -0.869205968515E+03   -0.14305E+00   -0.31940E-01 35097   0.133E+00    0.522E+00
RMM:   3    -0.869072485397E+03    0.13348E+00   -0.76813E-02 33792   0.813E-01    0.807E-01
RMM:   4    -0.869067869736E+03    0.46157E-02   -0.17635E-02 43850   0.194E-01    0.327E-01
RMM:   5    -0.869070127101E+03   -0.22574E-02   -0.10488E-02 40216   0.170E-01    0.810E-01
RMM:   6    -0.869066655130E+03    0.34720E-02   -0.45576E-03 34351   0.154E-01    0.211E-01
RMM:   7    -0.869068294036E+03   -0.16389E-02   -0.63917E-03 37072   0.153E-01    0.603E-01
RMM:   8    -0.869066541017E+03    0.17530E-02   -0.17953E-03 33844   0.110E-01    0.155E-01
RMM:   9    -0.869066464696E+03    0.76321E-04   -0.78909E-04 43767   0.345E-02    0.624E-02
RMM:  10    -0.869066489060E+03   -0.24364E-04   -0.23847E-04 44416   0.207E-02    0.877E-02
RMM:  11    -0.869066454504E+03    0.34557E-04   -0.57831E-05 36075   0.159E-02    0.317E-02
RMM:  12    -0.869066453878E+03    0.62539E-06   -0.40525E-05 44358   0.887E-03    0.249E-02
RMM:  13    -0.869066457432E+03   -0.35531E-05   -0.21264E-05 36706   0.894E-03    0.351E-02
RMM:  14    -0.869066452070E+03    0.53613E-05   -0.72255E-06 30665   0.665E-03    0.132E-02
RMM:  15    -0.869066452863E+03   -0.79310E-06   -0.42829E-06 25839   0.378E-03
   4 F= -.86906645E+03 E0= -.86904565E+03  d E =-.623959E-01
 Finite differences progress:
  Degree of freedom:   2/  3
  Displacement:        1/  2
  Total:               3/  6
 bond charge predicted
       N       E                     dE             d eps       ncg     rms          rms(c)
DAV:   1    -0.869058130996E+03    0.83211E-02   -0.13884E+01 33792   0.496E+00    0.841E-01
RMM:   2    -0.869379402320E+03   -0.32127E+00   -0.73882E-01 35126   0.199E+00    0.776E+00
RMM:   3    -0.869079801496E+03    0.29960E+00   -0.17419E-01 33792   0.122E+00    0.123E+00
RMM:   4    -0.869069214904E+03    0.10587E-01   -0.39414E-02 43341   0.289E-01    0.475E-01
RMM:   5    -0.869073446830E+03   -0.42319E-02   -0.21421E-02 41017   0.234E-01    0.111E+00
RMM:   6    -0.869066944631E+03    0.65022E-02   -0.89885E-03 34711   0.209E-01    0.311E-01
RMM:   7    -0.869070523986E+03   -0.35794E-02   -0.13312E-02 36701   0.222E-01    0.895E-01
RMM:   8    -0.869066638083E+03    0.38859E-02   -0.39703E-03 33820   0.163E-01    0.227E-01
RMM:   9    -0.869066467874E+03    0.17021E-03   -0.16971E-03 43178   0.538E-02    0.902E-02
RMM:  10    -0.869066538024E+03   -0.70149E-04   -0.54448E-04 44424   0.316E-02    0.140E-01
RMM:  11    -0.869066450066E+03    0.87958E-04   -0.13344E-04 36174   0.238E-02    0.453E-02
RMM:  12    -0.869066450280E+03   -0.21473E-06   -0.98345E-05 46235   0.125E-02    0.373E-02
RMM:  13    -0.869066455589E+03   -0.53089E-05   -0.41762E-05 36228   0.129E-02    0.480E-02
RMM:  14    -0.869066446125E+03    0.94638E-05   -0.15425E-05 34381   0.952E-03    0.203E-02
RMM:  15    -0.869066449265E+03   -0.31395E-05   -0.14672E-05 37295   0.627E-03    0.313E-02
RMM:  16    -0.869066444922E+03    0.43433E-05   -0.36396E-06 24015   0.496E-03    0.102E-02
RMM:  17    -0.869066444502E+03    0.41969E-06   -0.13509E-06 20484   0.227E-03
   5 F= -.86906644E+03 E0= -.86904564E+03  d E =-.624014E-01
 Finite differences progress:
  Degree of freedom:   2/  3
  Displacement:        2/  2
  Total:               4/  6
 bond charge predicted
       N       E                     dE             d eps       ncg     rms          rms(c)
DAV:   1    -0.869063550905E+03    0.28940E-02   -0.69195E+00 34080   0.349E+00    0.566E-01
RMM:   2    -0.869206800084E+03   -0.14325E+00   -0.31999E-01 35093   0.133E+00    0.522E+00
RMM:   3    -0.869073083424E+03    0.13372E+00   -0.76905E-02 33792   0.814E-01    0.804E-01
RMM:   4    -0.869068483425E+03    0.46000E-02   -0.17609E-02 43892   0.193E-01    0.327E-01
RMM:   5    -0.869070722120E+03   -0.22387E-02   -0.10446E-02 40291   0.169E-01    0.808E-01
RMM:   6    -0.869067272876E+03    0.34492E-02   -0.45435E-03 34355   0.154E-01    0.209E-01
RMM:   7    -0.869068930062E+03   -0.16572E-02   -0.64187E-03 37041   0.153E-01    0.606E-01
RMM:   8    -0.869067155616E+03    0.17744E-02   -0.18107E-03 33842   0.110E-01    0.152E-01
RMM:   9    -0.869067084624E+03    0.70992E-04   -0.79324E-04 44055   0.342E-02    0.627E-02
RMM:  10    -0.869067108888E+03   -0.24264E-04   -0.23437E-04 44063   0.208E-02    0.882E-02
RMM:  11    -0.869067073798E+03    0.35090E-04   -0.57979E-05 36030   0.160E-02    0.313E-02
RMM:  12    -0.869067073368E+03    0.42924E-06   -0.40722E-05 44392   0.882E-03    0.251E-02
RMM:  13    -0.869067076762E+03   -0.33940E-05   -0.21074E-05 36674   0.891E-03    0.349E-02
RMM:  14    -0.869067071487E+03    0.52757E-05   -0.71733E-06 30589   0.661E-03    0.131E-02
RMM:  15    -0.869067072308E+03   -0.82126E-06   -0.43195E-06 25883   0.382E-03
   6 F= -.86906707E+03 E0= -.86904630E+03  d E =-.623048E-01
 Finite differences progress:
  Degree of freedom:   3/  3
  Displacement:        1/  2
  Total:               5/  6
 bond charge predicted
       N       E                     dE             d eps       ncg     rms          rms(c)
DAV:   1    -0.869059212540E+03    0.78589E-02   -0.13936E+01 33792   0.498E+00    0.848E-01
RMM:   2    -0.869361254089E+03   -0.30204E+00   -0.72513E-01 34879   0.198E+00    0.742E+00
RMM:   3    -0.869079747862E+03    0.28151E+00   -0.17215E-01 33792   0.122E+00    0.125E+00
RMM:   4    -0.869069410475E+03    0.10337E-01   -0.37187E-02 43177   0.290E-01    0.467E-01
RMM:   5    -0.869073861965E+03   -0.44515E-02   -0.21572E-02 40737   0.240E-01    0.114E+00
RMM:   6    -0.869067192767E+03    0.66692E-02   -0.89954E-03 34468   0.211E-01    0.348E-01
RMM:   7    -0.869069996004E+03   -0.28032E-02   -0.12086E-02 36755   0.212E-01    0.822E-01
RMM:   8    -0.869067038168E+03    0.29578E-02   -0.34324E-03 33996   0.145E-01    0.317E-01
RMM:   9    -0.869066600991E+03    0.43718E-03   -0.15421E-03 40467   0.602E-02    0.923E-02
RMM:  10    -0.869066652929E+03   -0.51938E-04   -0.63310E-04 45682   0.339E-02    0.127E-01
RMM:  11    -0.869066580252E+03    0.72677E-04   -0.13876E-04 36317   0.241E-02    0.443E-02
RMM:  12    -0.869066579720E+03    0.53248E-06   -0.87058E-05 44803   0.127E-02    0.354E-02
RMM:  13    -0.869066587549E+03   -0.78295E-05   -0.46126E-05 36861   0.132E-02    0.514E-02
RMM:  14    -0.869066575789E+03    0.11761E-04   -0.16706E-05 34249   0.101E-02    0.187E-02
RMM:  15    -0.869066577415E+03   -0.16268E-05   -0.11893E-05 35524   0.515E-03    0.248E-02
RMM:  16    -0.869066575049E+03    0.23667E-05   -0.29518E-06 23089   0.433E-03    0.109E-02
RMM:  17    -0.869066574538E+03    0.51096E-06   -0.12709E-06 19701   0.278E-03
   7 F= -.86906657E+03 E0= -.86904576E+03  d E =-.624400E-01
 Finite differences progress:
  Degree of freedom:   3/  3
  Displacement:        2/  2
  Total:               6/  6
 Finite differences POTIM=  3.000000000000000E-002
