<?xml version="1.0" encoding="ISO-8859-1"?>
<modeling>
 <generator>
  <i name="program" type="string">vasp </i>
  <i name="version" type="string">5.4.1  </i>
  <i name="subversion" type="string">24Jun15 (build Jun 21 2019 17:19:10) complex                          parallel </i>
  <i name="platform" type="string">IFC91_ompi </i>
  <i name="date" type="string">2019 07 19 </i>
  <i name="time" type="string">16:09:23 </i>
 </generator>
 <incar>
  <i type="string" name="SYSTEM">Vib</i>
  <i type="int" name="ISTART">     0</i>
  <i type="string" name="PREC">accurate</i>
  <i type="string" name="ALGO"> Fast</i>
  <i type="int" name="ISPIN">     1</i>
  <i type="int" name="ICHARG">     2</i>
  <i type="int" name="NELM">   400</i>
  <i type="int" name="IBRION">     5</i>
  <i type="int" name="NFREE">     2</i>
  <i name="EDIFF">      0.00000100</i>
  <i name="EDIFFG">     -0.01000000</i>
  <i type="int" name="NSW">     1</i>
  <i type="int" name="ISIF">     2</i>
  <i type="int" name="ISYM">     0</i>
  <i name="ENCUT">    400.00000000</i>
  <i type="int" name="NGX">    72</i>
  <i type="int" name="NGY">    72</i>
  <i type="int" name="NGZ">    72</i>
  <i name="POTIM">      0.03000000</i>
  <i type="string" name="LREAL">Auto</i>
  <i type="logical" name="LWAVE"> F  </i>
  <i type="logical" name="LCHARG"> F  </i>
  <v type="int" name="KPOINT_BSE">    -1     0     0     0</v>
  <i type="int" name="NELM">   400</i>
 </incar>
 <kpoints>
  <generation param="Monkhorst-Pack">
   <v type="int" name="divisions">       4        4        4 </v>
   <v name="usershift">      0.00000000       0.00000000       0.00000000 </v>
   <v name="genvec1">      0.25000000       0.00000000       0.00000000 </v>
   <v name="genvec2">      0.00000000       0.25000000       0.00000000 </v>
   <v name="genvec3">      0.00000000       0.00000000       0.25000000 </v>
   <v name="shift">      0.50000000       0.50000000       0.50000000 </v>
  </generation>
  <varray name="kpointlist" >
   <v>       0.12500000       0.12500000       0.12500000 </v>
   <v>       0.37500000       0.12500000       0.12500000 </v>
   <v>      -0.37500000       0.12500000       0.12500000 </v>
   <v>      -0.12500000       0.12500000       0.12500000 </v>
   <v>       0.12500000       0.37500000       0.12500000 </v>
   <v>       0.37500000       0.37500000       0.12500000 </v>
   <v>      -0.37500000       0.37500000       0.12500000 </v>
   <v>      -0.12500000       0.37500000       0.12500000 </v>
   <v>       0.12500000      -0.37500000       0.12500000 </v>
   <v>       0.37500000      -0.37500000       0.12500000 </v>
   <v>      -0.37500000      -0.37500000       0.12500000 </v>
   <v>      -0.12500000      -0.37500000       0.12500000 </v>
   <v>       0.12500000      -0.12500000       0.12500000 </v>
   <v>       0.37500000      -0.12500000       0.12500000 </v>
   <v>      -0.37500000      -0.12500000       0.12500000 </v>
   <v>      -0.12500000      -0.12500000       0.12500000 </v>
   <v>       0.12500000       0.12500000       0.37500000 </v>
   <v>       0.37500000       0.12500000       0.37500000 </v>
   <v>      -0.37500000       0.12500000       0.37500000 </v>
   <v>      -0.12500000       0.12500000       0.37500000 </v>
   <v>       0.12500000       0.37500000       0.37500000 </v>
   <v>       0.37500000       0.37500000       0.37500000 </v>
   <v>      -0.37500000       0.37500000       0.37500000 </v>
   <v>      -0.12500000       0.37500000       0.37500000 </v>
   <v>       0.12500000      -0.37500000       0.37500000 </v>
   <v>       0.37500000      -0.37500000       0.37500000 </v>
   <v>      -0.37500000      -0.37500000       0.37500000 </v>
   <v>      -0.12500000      -0.37500000       0.37500000 </v>
   <v>       0.12500000      -0.12500000       0.37500000 </v>
   <v>       0.37500000      -0.12500000       0.37500000 </v>
   <v>      -0.37500000      -0.12500000       0.37500000 </v>
   <v>      -0.12500000      -0.12500000       0.37500000 </v>
  </varray>
  <varray name="weights" >
   <v>       0.03125000 </v>
   <v>       0.03125000 </v>
   <v>       0.03125000 </v>
   <v>       0.03125000 </v>
   <v>       0.03125000 </v>
   <v>       0.03125000 </v>
   <v>       0.03125000 </v>
   <v>       0.03125000 </v>
   <v>       0.03125000 </v>
   <v>       0.03125000 </v>
   <v>       0.03125000 </v>
   <v>       0.03125000 </v>
   <v>       0.03125000 </v>
   <v>       0.03125000 </v>
   <v>       0.03125000 </v>
   <v>       0.03125000 </v>
   <v>       0.03125000 </v>
   <v>       0.03125000 </v>
   <v>       0.03125000 </v>
   <v>       0.03125000 </v>
   <v>       0.03125000 </v>
   <v>       0.03125000 </v>
   <v>       0.03125000 </v>
   <v>       0.03125000 </v>
   <v>       0.03125000 </v>
   <v>       0.03125000 </v>
   <v>       0.03125000 </v>
   <v>       0.03125000 </v>
   <v>       0.03125000 </v>
   <v>       0.03125000 </v>
   <v>       0.03125000 </v>
   <v>       0.03125000 </v>
  </varray>
 </kpoints>
 <parameters>
  <separator name="general" >
   <i type="string" name="SYSTEM">Vib</i>
   <i type="logical" name="LCOMPAT"> F  </i>
  </separator>
  <separator name="electronic" >
   <i type="string" name="PREC">accura</i>
   <i name="ENMAX">    400.00000000</i>
   <i name="ENAUG">    511.36800000</i>
   <i name="EDIFF">      0.00000100</i>
   <i type="int" name="IALGO">    68</i>
   <i type="int" name="IWAVPR">    11</i>
   <i type="int" name="NBANDS">   528</i>
   <i name="NELECT">    856.00000000</i>
   <i type="int" name="TURBO">     0</i>
   <i type="int" name="IRESTART">     0</i>
   <i type="int" name="NREBOOT">     0</i>
   <i type="int" name="NMIN">     0</i>
   <i name="EREF">      0.00000000</i>
   <separator name="electronic smearing" >
    <i type="int" name="ISMEAR">     1</i>
    <i name="SIGMA">      0.20000000</i>
    <i name="KSPACING">      0.50000000</i>
    <i type="logical" name="KGAMMA"> T  </i>
   </separator>
   <separator name="electronic projectors" >
    <i type="logical" name="LREAL"> T  </i>
    <v name="ROPT">     -0.00025000</v>
    <i type="int" name="LMAXPAW">  -100</i>
    <i type="int" name="LMAXMIX">     2</i>
    <i type="logical" name="NLSPLINE"> F  </i>
   </separator>
   <separator name="electronic startup" >
    <i type="int" name="ISTART">     0</i>
    <i type="int" name="ICHARG">     2</i>
    <i type="int" name="INIWAV">     1</i>
   </separator>
   <separator name="electronic spin" >
    <i type="int" name="ISPIN">     1</i>
    <i type="logical" name="LNONCOLLINEAR"> F  </i>
    <v name="MAGMOM">      1.00000000      1.00000000      1.00000000      1.00000000      1.00000000      1.00000000      1.00000000      1.00000000      1.00000000      1.00000000      1.00000000      1.00000000      1.00000000      1.00000000      1.00000000      1.00000000      1.00000000      1.00000000      1.00000000      1.00000000
      1.00000000      1.00000000      1.00000000      1.00000000      1.00000000      1.00000000      1.00000000      1.00000000      1.00000000      1.00000000      1.00000000      1.00000000      1.00000000      1.00000000      1.00000000      1.00000000      1.00000000      1.00000000      1.00000000      1.00000000
      1.00000000      1.00000000      1.00000000      1.00000000      1.00000000      1.00000000      1.00000000      1.00000000      1.00000000      1.00000000      1.00000000      1.00000000      1.00000000      1.00000000      1.00000000      1.00000000      1.00000000      1.00000000      1.00000000      1.00000000
      1.00000000      1.00000000      1.00000000      1.00000000      1.00000000      1.00000000      1.00000000      1.00000000      1.00000000      1.00000000      1.00000000      1.00000000      1.00000000      1.00000000      1.00000000      1.00000000      1.00000000      1.00000000      1.00000000      1.00000000
      1.00000000      1.00000000      1.00000000      1.00000000      1.00000000      1.00000000      1.00000000      1.00000000      1.00000000      1.00000000      1.00000000      1.00000000      1.00000000      1.00000000      1.00000000      1.00000000      1.00000000      1.00000000      1.00000000      1.00000000
      1.00000000      1.00000000      1.00000000      1.00000000      1.00000000      1.00000000      1.00000000</v>
    <i name="NUPDOWN">     -1.00000000</i>
    <i type="logical" name="LSORBIT"> F  </i>
    <v name="SAXIS">      0.00000000      0.00000000      1.00000000</v>
    <i type="logical" name="LSPIRAL"> F  </i>
    <v name="QSPIRAL">      0.00000000      0.00000000      0.00000000</v>
    <i type="logical" name="LZEROZ"> F  </i>
   </separator>
   <separator name="electronic exchange-correlation" >
    <i type="logical" name="LASPH"> F  </i>
    <i type="logical" name="LMETAGGA"> F  </i>
   </separator>
   <separator name="electronic convergence" >
    <i type="int" name="NELM">   400</i>
    <i type="int" name="NELMDL">    -5</i>
    <i type="int" name="NELMIN">     2</i>
    <i name="ENINI">    400.00000000</i>
    <separator name="electronic convergence detail" >
     <i type="logical" name="LDIAG"> T  </i>
     <i type="logical" name="LSUBROT"> F  </i>
     <i name="WEIMIN">      0.00100000</i>
     <i name="EBREAK">      0.00000000</i>
     <i name="DEPER">      0.30000000</i>
     <i type="int" name="NRMM">     4</i>
     <i name="TIME">      0.40000000</i>
    </separator>
   </separator>
   <separator name="electronic mixer" >
    <i name="AMIX">      0.40000000</i>
    <i name="BMIX">      1.00000000</i>
    <i name="AMIN">      0.10000000</i>
    <i name="AMIX_MAG">      1.60000000</i>
    <i name="BMIX_MAG">      1.00000000</i>
    <separator name="electronic mixer details" >
     <i type="int" name="IMIX">     4</i>
     <i type="logical" name="MIXFIRST"> F  </i>
     <i type="int" name="MAXMIX">   -45</i>
     <i name="WC">    100.00000000</i>
     <i type="int" name="INIMIX">     1</i>
     <i type="int" name="MIXPRE">     1</i>
     <i type="int" name="MREMOVE">     5</i>
    </separator>
   </separator>
   <separator name="electronic dipolcorrection" >
    <i type="logical" name="LDIPOL"> F  </i>
    <i type="logical" name="LMONO"> F  </i>
    <i type="int" name="IDIPOL">     0</i>
    <i name="EPSILON">      1.00000000</i>
    <v name="DIPOL">   -100.00000000   -100.00000000   -100.00000000</v>
    <i name="EFIELD">      0.00000000</i>
   </separator>
  </separator>
  <separator name="grids" >
   <i type="int" name="NGX">    72</i>
   <i type="int" name="NGY">    72</i>
   <i type="int" name="NGZ">    72</i>
   <i type="int" name="NGXF">   144</i>
   <i type="int" name="NGYF">   144</i>
   <i type="int" name="NGZF">   144</i>
   <i type="logical" name="ADDGRID"> F  </i>
  </separator>
  <separator name="ionic" >
   <i type="int" name="NSW">  1321</i>
   <i type="int" name="IBRION">     5</i>
   <i type="int" name="ISIF">     2</i>
   <i name="PSTRESS">      0.00000000</i>
   <i name="EDIFFG">     -0.01000000</i>
   <i type="int" name="NFREE">     2</i>
   <i name="POTIM">      0.03000000</i>
   <i name="SMASS">     -3.00000000</i>
   <i name="SCALEE">      1.00000000</i>
  </separator>
  <separator name="ionic md" >
   <i name="TEBEG">      0.00010000</i>
   <i name="TEEND">      0.00010000</i>
   <i type="int" name="NBLOCK">     1</i>
   <i type="int" name="KBLOCK">     1</i>
   <i type="int" name="NPACO">   256</i>
   <i name="APACO">     16.00000000</i>
  </separator>
  <separator name="symmetry" >
   <i type="int" name="ISYM">     0</i>
   <i name="SYMPREC">      0.00001000</i>
  </separator>
  <separator name="dos" >
   <i type="logical" name="LORBIT"> F  </i>
   <v name="RWIGS">     -1.00000000</v>
   <i type="int" name="NEDOS">   301</i>
   <i name="EMIN">     10.00000000</i>
   <i name="EMAX">    -10.00000000</i>
   <i name="EFERMI">      0.00000000</i>
  </separator>
  <separator name="writing" >
   <i type="int" name="NWRITE">     2</i>
   <i type="logical" name="LWAVE"> F  </i>
   <i type="logical" name="LCHARG"> F  </i>
   <i type="logical" name="LPARD"> F  </i>
   <i type="logical" name="LVTOT"> F  </i>
   <i type="logical" name="LVHAR"> F  </i>
   <i type="logical" name="LELF"> F  </i>
   <i type="logical" name="LOPTICS"> F  </i>
   <v name="STM">      0.00000000      0.00000000      0.00000000      0.00000000      0.00000000      0.00000000      0.00000000</v>
  </separator>
  <separator name="performance" >
   <i type="int" name="NPAR">    24</i>
   <i type="int" name="NSIM">     4</i>
   <i type="int" name="NBLK">    -1</i>
   <i type="logical" name="LPLANE"> T  </i>
   <i type="logical" name="LSCALAPACK"> T  </i>
   <i type="logical" name="LSCAAWARE"> F  </i>
   <i type="logical" name="LSCALU"> F  </i>
   <i type="logical" name="LASYNC"> F  </i>
   <i type="logical" name="LORBITALREAL"> F  </i>
  </separator>
  <separator name="miscellaneous" >
   <i type="int" name="IDIOT">     3</i>
   <i type="logical" name="LMUSIC"> F  </i>
   <v name="POMASS">     55.84700000</v>
   <v name="DARWINR">      0.00000000</v>
   <v name="DARWINV">      1.00000000</v>
   <i type="logical" name="LCORR"> T  </i>
  </separator>
  <i type="logical" name="GGA_COMPAT"> T  </i>
  <i type="logical" name="LBERRY"> F  </i>
  <i type="int" name="ICORELEVEL">     0</i>
  <i type="logical" name="LDAU"> F  </i>
  <i type="int" name="I_CONSTRAINED_M">     0</i>
  <separator name="electronic exchange-correlation" >
   <i type="string" name="GGA">--</i>
   <i type="int" name="VOSKOWN">     0</i>
   <i type="logical" name="LHFCALC"> F  </i>
   <i type="string" name="PRECFOCK"></i>
   <i type="logical" name="LSYMGRAD"> F  </i>
   <i type="logical" name="LHFONE"> F  </i>
   <i type="logical" name="LRHFCALC"> F  </i>
   <i type="logical" name="LTHOMAS"> F  </i>
   <i type="logical" name="LMODELHF"> F  </i>
   <i name="ENCUT4O">     -1.00000000</i>
   <i type="int" name="EXXOEP">     0</i>
   <i type="int" name="FOURORBIT">     0</i>
   <i name="AEXX">      0.00000000</i>
   <i name="HFALPHA">      0.00000000</i>
   <i name="MCALPHA">      0.00000000</i>
   <i name="ALDAX">      1.00000000</i>
   <i name="AGGAX">      1.00000000</i>
   <i name="ALDAC">      1.00000000</i>
   <i name="AGGAC">      1.00000000</i>
   <i type="int" name="NKREDX">     1</i>
   <i type="int" name="NKREDY">     1</i>
   <i type="int" name="NKREDZ">     1</i>
   <i type="logical" name="SHIFTRED"> F  </i>
   <i type="logical" name="ODDONLY"> F  </i>
   <i type="logical" name="EVENONLY"> F  </i>
   <i type="int" name="LMAXFOCK">     0</i>
   <i type="int" name="NMAXFOCKAE">     0</i>
   <i type="logical" name="LFOCKAEDFT"> F  </i>
   <i name="HFSCREEN">      0.00000000</i>
   <i name="HFSCREENC">      0.00000000</i>
   <i type="int" name="NBANDSGWLOW">     0</i>
  </separator>
  <separator name="vdW DFT" >
   <i type="logical" name="LUSE_VDW"> F  </i>
   <i name="Zab_VDW">     -0.84910000</i>
   <i name="PARAM1">      0.12340000</i>
   <i name="PARAM2">      1.00000000</i>
   <i name="PARAM3">      0.00000000</i>
  </separator>
  <separator name="model GW" >
   <i type="int" name="MODEL_GW">     0</i>
   <i name="MODEL_EPS0">      6.18984300</i>
   <i name="MODEL_ALPHA">      1.00000000</i>
  </separator>
  <separator name="linear response parameters" >
   <i type="logical" name="LEPSILON"> F  </i>
   <i type="logical" name="LRPA"> F  </i>
   <i type="logical" name="LNABLA"> F  </i>
   <i type="logical" name="LVEL"> F  </i>
   <i type="int" name="KINTER">     0</i>
   <i name="CSHIFT">      0.10000000</i>
   <i name="OMEGAMAX">     -1.00000000</i>
   <i name="DEG_THRESHOLD">      0.00200000</i>
  </separator>
  <separator name="orbital magnetization" >
   <i type="logical" name="NUCIND"> F  </i>
   <v name="MAGPOS">      0.00000000      0.00000000      0.00000000</v>
   <i type="logical" name="LNICSALL"> T  </i>
   <i type="logical" name="ORBITALMAG"> F  </i>
   <i type="logical" name="LMAGBLOCH"> F  </i>
   <i type="logical" name="LCHIMAG"> F  </i>
   <i type="logical" name="LGAUGE"> T  </i>
   <i type="int" name="MAGATOM">     0</i>
   <v name="MAGDIPOL">      0.00000000      0.00000000      0.00000000</v>
   <v name="AVECCONST">      0.00000000      0.00000000      0.00000000</v>
  </separator>
  <separator name="response functions" >
   <i type="logical" name="LADDER"> F  </i>
   <i type="logical" name="LFXC"> F  </i>
   <i type="logical" name="LHARTREE"> T  </i>
   <i type="int" name="IBSE">     0</i>
   <v type="int" name="KPOINT">    -1     0     0     0</v>
   <i type="logical" name="LTCTE"> F  </i>
   <i type="logical" name="LTETE"> F  </i>
   <i type="logical" name="LTRIPLET"> F  </i>
   <i type="logical" name="LFXCEPS"> F  </i>
   <i type="logical" name="LFXHEG"> F  </i>
   <i type="int" name="NATURALO">     0</i>
   <i type="logical" name="L2ORDER"> F  </i>
   <i type="logical" name="LUSEW"> F  </i>
   <i name="ENCUTGW">     -2.00000000</i>
   <i name="ENCUTGWSOFT">     -2.00000000</i>
   <i name="ENCUTLF">     -1.00000000</i>
   <i type="int" name="LMAXMP2">    -1</i>
   <i name="SCISSOR">      0.00000000</i>
   <i type="int" name="NOMEGA">     0</i>
   <i type="int" name="NOMEGAR">     0</i>
   <i type="int" name="NBANDSGW">    -1</i>
   <i type="int" name="NBANDSO">    -1</i>
   <i type="int" name="NBANDSV">    -1</i>
   <i type="int" name="NELM">   400</i>
   <i type="int" name="NELMHF">     1</i>
   <i type="int" name="DIM">     3</i>
   <i type="int" name="ANTIRES">     0</i>
   <i name="OMEGAMAX">    -30.00000000</i>
   <i name="OMEGAMIN">    -30.00000000</i>
   <i name="OMEGATL">   -200.00000000</i>
   <i type="int" name="OMEGAGRID">     0</i>
   <i name="CSHIFT">     -0.10000000</i>
   <i type="logical" name="SELFENERGY"> F  </i>
   <i type="logical" name="LSPECTRAL"> F  </i>
   <i type="logical" name="LSPECTRALGW"> F  </i>
   <i type="logical" name="LSINGLES"> F  </i>
   <i type="logical" name="LFERMIGW"> F  </i>
   <i type="logical" name="ODDONLYGW"> F  </i>
   <i type="logical" name="EVENONLYGW"> F  </i>
   <i type="int" name="NKREDLFX">     1</i>
   <i type="int" name="NKREDLFY">     1</i>
   <i type="int" name="NKREDLFZ">     1</i>
   <i type="int" name="MAXMEM">  1800</i>
   <i type="int" name="TELESCOPE">     0</i>
   <i type="int" name="TAUPAR">     1</i>
   <i type="int" name="OMEGAPAR">    -1</i>
   <i name="LAMBDA">      1.00000000</i>
  </separator>
  <separator name="External order field" >
   <i name="OFIELD_KAPPA">      0.00000000</i>
   <v name="OFIELD_K">      0.00000000      0.00000000      0.00000000</v>
   <i name="OFIELD_Q6_NEAR">      0.00000000</i>
   <i name="OFIELD_Q6_FAR">      0.00000000</i>
   <i name="OFIELD_A">      0.00000000</i>
  </separator>
 </parameters>
 <atominfo>
  <atoms>     107 </atoms>
  <types>       1 </types>
  <array name="atoms" >
   <dimension dim="1">ion</dimension>
   <field type="string">element</field>
   <field type="int">atomtype</field>
   <set>
    <rc><c>Fe</c><c>   1</c></rc>
    <rc><c>Fe</c><c>   1</c></rc>
    <rc><c>Fe</c><c>   1</c></rc>
    <rc><c>Fe</c><c>   1</c></rc>
    <rc><c>Fe</c><c>   1</c></rc>
    <rc><c>Fe</c><c>   1</c></rc>
    <rc><c>Fe</c><c>   1</c></rc>
    <rc><c>Fe</c><c>   1</c></rc>
    <rc><c>Fe</c><c>   1</c></rc>
    <rc><c>Fe</c><c>   1</c></rc>
    <rc><c>Fe</c><c>   1</c></rc>
    <rc><c>Fe</c><c>   1</c></rc>
    <rc><c>Fe</c><c>   1</c></rc>
    <rc><c>Fe</c><c>   1</c></rc>
    <rc><c>Fe</c><c>   1</c></rc>
    <rc><c>Fe</c><c>   1</c></rc>
    <rc><c>Fe</c><c>   1</c></rc>
    <rc><c>Fe</c><c>   1</c></rc>
    <rc><c>Fe</c><c>   1</c></rc>
    <rc><c>Fe</c><c>   1</c></rc>
    <rc><c>Fe</c><c>   1</c></rc>
    <rc><c>Fe</c><c>   1</c></rc>
    <rc><c>Fe</c><c>   1</c></rc>
    <rc><c>Fe</c><c>   1</c></rc>
    <rc><c>Fe</c><c>   1</c></rc>
    <rc><c>Fe</c><c>   1</c></rc>
    <rc><c>Fe</c><c>   1</c></rc>
    <rc><c>Fe</c><c>   1</c></rc>
    <rc><c>Fe</c><c>   1</c></rc>
    <rc><c>Fe</c><c>   1</c></rc>
    <rc><c>Fe</c><c>   1</c></rc>
    <rc><c>Fe</c><c>   1</c></rc>
    <rc><c>Fe</c><c>   1</c></rc>
    <rc><c>Fe</c><c>   1</c></rc>
    <rc><c>Fe</c><c>   1</c></rc>
    <rc><c>Fe</c><c>   1</c></rc>
    <rc><c>Fe</c><c>   1</c></rc>
    <rc><c>Fe</c><c>   1</c></rc>
    <rc><c>Fe</c><c>   1</c></rc>
    <rc><c>Fe</c><c>   1</c></rc>
    <rc><c>Fe</c><c>   1</c></rc>
    <rc><c>Fe</c><c>   1</c></rc>
    <rc><c>Fe</c><c>   1</c></rc>
    <rc><c>Fe</c><c>   1</c></rc>
    <rc><c>Fe</c><c>   1</c></rc>
    <rc><c>Fe</c><c>   1</c></rc>
    <rc><c>Fe</c><c>   1</c></rc>
    <rc><c>Fe</c><c>   1</c></rc>
    <rc><c>Fe</c><c>   1</c></rc>
    <rc><c>Fe</c><c>   1</c></rc>
    <rc><c>Fe</c><c>   1</c></rc>
    <rc><c>Fe</c><c>   1</c></rc>
    <rc><c>Fe</c><c>   1</c></rc>
    <rc><c>Fe</c><c>   1</c></rc>
    <rc><c>Fe</c><c>   1</c></rc>
    <rc><c>Fe</c><c>   1</c></rc>
    <rc><c>Fe</c><c>   1</c></rc>
    <rc><c>Fe</c><c>   1</c></rc>
    <rc><c>Fe</c><c>   1</c></rc>
    <rc><c>Fe</c><c>   1</c></rc>
    <rc><c>Fe</c><c>   1</c></rc>
    <rc><c>Fe</c><c>   1</c></rc>
    <rc><c>Fe</c><c>   1</c></rc>
    <rc><c>Fe</c><c>   1</c></rc>
    <rc><c>Fe</c><c>   1</c></rc>
    <rc><c>Fe</c><c>   1</c></rc>
    <rc><c>Fe</c><c>   1</c></rc>
    <rc><c>Fe</c><c>   1</c></rc>
    <rc><c>Fe</c><c>   1</c></rc>
    <rc><c>Fe</c><c>   1</c></rc>
    <rc><c>Fe</c><c>   1</c></rc>
    <rc><c>Fe</c><c>   1</c></rc>
    <rc><c>Fe</c><c>   1</c></rc>
    <rc><c>Fe</c><c>   1</c></rc>
    <rc><c>Fe</c><c>   1</c></rc>
    <rc><c>Fe</c><c>   1</c></rc>
    <rc><c>Fe</c><c>   1</c></rc>
    <rc><c>Fe</c><c>   1</c></rc>
    <rc><c>Fe</c><c>   1</c></rc>
    <rc><c>Fe</c><c>   1</c></rc>
    <rc><c>Fe</c><c>   1</c></rc>
    <rc><c>Fe</c><c>   1</c></rc>
    <rc><c>Fe</c><c>   1</c></rc>
    <rc><c>Fe</c><c>   1</c></rc>
    <rc><c>Fe</c><c>   1</c></rc>
    <rc><c>Fe</c><c>   1</c></rc>
    <rc><c>Fe</c><c>   1</c></rc>
    <rc><c>Fe</c><c>   1</c></rc>
    <rc><c>Fe</c><c>   1</c></rc>
    <rc><c>Fe</c><c>   1</c></rc>
    <rc><c>Fe</c><c>   1</c></rc>
    <rc><c>Fe</c><c>   1</c></rc>
    <rc><c>Fe</c><c>   1</c></rc>
    <rc><c>Fe</c><c>   1</c></rc>
    <rc><c>Fe</c><c>   1</c></rc>
    <rc><c>Fe</c><c>   1</c></rc>
    <rc><c>Fe</c><c>   1</c></rc>
    <rc><c>Fe</c><c>   1</c></rc>
    <rc><c>Fe</c><c>   1</c></rc>
    <rc><c>Fe</c><c>   1</c></rc>
    <rc><c>Fe</c><c>   1</c></rc>
    <rc><c>Fe</c><c>   1</c></rc>
    <rc><c>Fe</c><c>   1</c></rc>
    <rc><c>Fe</c><c>   1</c></rc>
    <rc><c>Fe</c><c>   1</c></rc>
    <rc><c>Fe</c><c>   1</c></rc>
    <rc><c>Fe</c><c>   1</c></rc>
   </set>
  </array>
  <array name="atomtypes" >
   <dimension dim="1">type</dimension>
   <field type="int">atomspertype</field>
   <field type="string">element</field>
   <field>mass</field>
   <field>valence</field>
   <field type="string">pseudopotential</field>
   <set>
    <rc><c> 107</c><c>Fe</c><c>     55.84700000</c><c>      8.00000000</c><c> PAW_PBE Fe 06Sep2000                   </c></rc>
   </set>
  </array>
 </atominfo>
 <structure name="initialpos" >
  <crystal>
   <varray name="basis" >
    <v>      10.33484705       0.00000000       0.00000000 </v>
    <v>       0.00000000      10.33484705       0.00000000 </v>
    <v>       0.00000000       0.00000000      10.33484705 </v>
   </varray>
   <i name="volume">   1103.85533447 </i>
   <varray name="rec_basis" >
    <v>       0.09676002       0.00000000       0.00000000 </v>
    <v>       0.00000000       0.09676002       0.00000000 </v>
    <v>       0.00000000       0.00000000       0.09676002 </v>
   </varray>
  </crystal>
  <varray name="positions" >
   <v>       0.99999938       0.00000098       0.00016562 </v>
   <v>       0.99999934       0.16650171       0.16666795 </v>
   <v>       0.99999944       0.33376685       0.99980627 </v>
   <v>       0.99999930       0.49999902       0.16666782 </v>
   <v>       0.99999934       0.66623220       0.99980624 </v>
   <v>       0.99999930       0.83349920       0.16666804 </v>
   <v>       0.99999926       0.00000094       0.33316834 </v>
   <v>       0.99999929       0.16686131       0.50043282 </v>
   <v>       0.99999932       0.33376689       0.33352795 </v>
   <v>       0.99999942       0.49999901       0.50045706 </v>
   <v>       0.99999924       0.66623220       0.33352798 </v>
   <v>       0.99999935       0.83313964       0.50043280 </v>
   <v>       0.99999934       0.00000094       0.66666541 </v>
   <v>       0.99999937       0.16686130       0.83289896 </v>
   <v>       0.99999946       0.33379006       0.66666536 </v>
   <v>       0.99999948       0.49999895       0.83287482 </v>
   <v>       0.99999946       0.66620903       0.66666528 </v>
   <v>       0.99999940       0.83313970       0.83289890 </v>
   <v>       0.16650234       0.00000098       0.16666790 </v>
   <v>       0.16641578       0.16641522       0.00025253 </v>
   <v>       0.16641576       0.83358588       0.00025250 </v>
   <v>       0.16655682       0.33319083       0.49985824 </v>
   <v>       0.16866287       0.49999901       0.33532981 </v>
   <v>       0.16655664       0.66680837       0.49985819 </v>
   <v>       0.16686199       0.00000091       0.83289887 </v>
   <v>       0.16850551       0.49999888       0.66666533 </v>
   <v>       0.16686172       0.33376669       0.16666777 </v>
   <v>       0.16686169       0.66623236       0.16666783 </v>
   <v>       0.16641583       0.16641530       0.33308135 </v>
   <v>       0.16641579       0.83358573       0.33308146 </v>
   <v>       0.16866051       0.16865981       0.66666471 </v>
   <v>       0.16655674       0.33319051       0.83347364 </v>
   <v>       0.16655659       0.66680864       0.83347363 </v>
   <v>       0.16866046       0.83134129       0.66666454 </v>
   <v>       0.16866304       0.49999894       0.99800449 </v>
   <v>       0.16686195       0.00000085       0.50043296 </v>
   <v>       0.33376897       0.00000098       0.99980620 </v>
   <v>       0.33376876       0.16686111       0.16666781 </v>
   <v>       0.33376876       0.83313992       0.16666782 </v>
   <v>       0.33319337       0.33319112       0.33322327 </v>
   <v>       0.33319325       0.66680797       0.33322314 </v>
   <v>       0.33319273       0.16655616       0.83347357 </v>
   <v>       0.33430839       0.33430480       0.66666817 </v>
   <v>       0.33430668       0.66569446       0.66666883 </v>
   <v>       0.33319257       0.83344508       0.83347361 </v>
   <v>       0.33319318       0.33319103       0.00011123 </v>
   <v>       0.33379238       0.49999892       0.16666764 </v>
   <v>       0.33319316       0.66680805       0.00011136 </v>
   <v>       0.33376905       0.00000097       0.33352799 </v>
   <v>       0.33319309       0.16655633       0.49985827 </v>
   <v>       0.33319287       0.83344492       0.49985821 </v>
   <v>       0.33379221       0.00000092       0.66666541 </v>
   <v>       0.33430824       0.49999881       0.83235635 </v>
   <v>       0.50000051       0.00000098       0.16666779 </v>
   <v>       0.50000037       0.16866242       0.99800443 </v>
   <v>       0.50000050       0.33379024       0.16666768 </v>
   <v>       0.50000047       0.49999884       0.99816283 </v>
   <v>       0.50000055       0.66620880       0.16666764 </v>
   <v>       0.50000048       0.83133868       0.99800433 </v>
   <v>       0.50000055       0.00000093       0.50045712 </v>
   <v>       0.50000045       0.16866231       0.33532986 </v>
   <v>       0.50000156       0.33430527       0.50097546 </v>
   <v>       0.50000056       0.49999884       0.33517210 </v>
   <v>       0.50000227       0.66569247       0.50097524 </v>
   <v>       0.50000054       0.83133880       0.33532973 </v>
   <v>       0.50000044       0.00000093       0.83287479 </v>
   <v>       0.50000048       0.16850497       0.66666532 </v>
   <v>       0.50000144       0.33430502       0.83235656 </v>
   <v>       0.50000144       0.66569406       0.83235684 </v>
   <v>       0.50000048       0.83149653       0.66666525 </v>
   <v>       0.66680710       0.33319110       0.00011134 </v>
   <v>       0.66620806       0.49999897       0.16666768 </v>
   <v>       0.66680723       0.66680809       0.00011153 </v>
   <v>       0.66623142       0.00000089       0.33352798 </v>
   <v>       0.66680733       0.16655630       0.49985828 </v>
   <v>       0.66680750       0.83344500       0.49985811 </v>
   <v>       0.66620819       0.00000091       0.66666527 </v>
   <v>       0.66569199       0.49999880       0.83235629 </v>
   <v>       0.66623164       0.16686108       0.16666788 </v>
   <v>       0.66623167       0.83313991       0.16666786 </v>
   <v>       0.66680703       0.33319119       0.33322331 </v>
   <v>       0.66680723       0.66680798       0.33322310 </v>
   <v>       0.66680763       0.16655615       0.83347349 </v>
   <v>       0.66569322       0.33430460       0.66666872 </v>
   <v>       0.66569359       0.66569449       0.66666867 </v>
   <v>       0.66680775       0.83344513       0.83347367 </v>
   <v>       0.66623137       0.00000087       0.99980625 </v>
   <v>       0.66569288       0.49999774       0.50097509 </v>
   <v>       0.83133624       0.49999904       0.99800452 </v>
   <v>       0.83313726       0.00000091       0.50043285 </v>
   <v>       0.83313754       0.33376671       0.16666790 </v>
   <v>       0.83313752       0.66623237       0.16666792 </v>
   <v>       0.83358344       0.16641525       0.33308141 </v>
   <v>       0.83358338       0.83358570       0.33308146 </v>
   <v>       0.83133880       0.16865969       0.66666452 </v>
   <v>       0.83344258       0.33319042       0.83347361 </v>
   <v>       0.83344275       0.66680870       0.83347372 </v>
   <v>       0.83133882       0.83134137       0.66666436 </v>
   <v>       0.83349693       0.00000094       0.16666806 </v>
   <v>       0.83358357       0.16641517       0.00025257 </v>
   <v>       0.83358347       0.83358583       0.00025260 </v>
   <v>       0.83344235       0.33319077       0.49985815 </v>
   <v>       0.83133636       0.49999908       0.33532958 </v>
   <v>       0.83344258       0.66680837       0.49985799 </v>
   <v>       0.83313734       0.00000094       0.83289883 </v>
   <v>       0.83149375       0.49999887       0.66666519 </v>
   <v>       0.33431120       0.49999883       0.50097605 </v>
  </varray>
  <varray name="selective"  type="logical" >
   <v type="logical" >  F  F  F </v>
   <v type="logical" >  F  F  F </v>
   <v type="logical" >  F  F  F </v>
   <v type="logical" >  F  F  F </v>
   <v type="logical" >  F  F  F </v>
   <v type="logical" >  F  F  F </v>
   <v type="logical" >  F  F  F </v>
   <v type="logical" >  F  F  F </v>
   <v type="logical" >  F  F  F </v>
   <v type="logical" >  F  F  F </v>
   <v type="logical" >  F  F  F </v>
   <v type="logical" >  F  F  F </v>
   <v type="logical" >  F  F  F </v>
   <v type="logical" >  F  F  F </v>
   <v type="logical" >  F  F  F </v>
   <v type="logical" >  F  F  F </v>
   <v type="logical" >  F  F  F </v>
   <v type="logical" >  F  F  F </v>
   <v type="logical" >  F  F  F </v>
   <v type="logical" >  F  F  F </v>
   <v type="logical" >  F  F  F </v>
   <v type="logical" >  F  F  F </v>
   <v type="logical" >  F  F  F </v>
   <v type="logical" >  F  F  F </v>
   <v type="logical" >  F  F  F </v>
   <v type="logical" >  F  F  F </v>
   <v type="logical" >  F  F  F </v>
   <v type="logical" >  F  F  F </v>
   <v type="logical" >  F  F  F </v>
   <v type="logical" >  F  F  F </v>
   <v type="logical" >  F  F  F </v>
   <v type="logical" >  F  F  F </v>
   <v type="logical" >  F  F  F </v>
   <v type="logical" >  F  F  F </v>
   <v type="logical" >  F  F  F </v>
   <v type="logical" >  F  F  F </v>
   <v type="logical" >  F  F  F </v>
   <v type="logical" >  F  F  F </v>
   <v type="logical" >  F  F  F </v>
   <v type="logical" >  F  F  F </v>
   <v type="logical" >  F  F  F </v>
   <v type="logical" >  F  F  F </v>
   <v type="logical" >  F  F  F </v>
   <v type="logical" >  F  F  F </v>
   <v type="logical" >  F  F  F </v>
   <v type="logical" >  F  F  F </v>
   <v type="logical" >  F  F  F </v>
   <v type="logical" >  F  F  F </v>
   <v type="logical" >  F  F  F </v>
   <v type="logical" >  F  F  F </v>
   <v type="logical" >  F  F  F </v>
   <v type="logical" >  F  F  F </v>
   <v type="logical" >  F  F  F </v>
   <v type="logical" >  F  F  F </v>
   <v type="logical" >  F  F  F </v>
   <v type="logical" >  F  F  F </v>
   <v type="logical" >  F  F  F </v>
   <v type="logical" >  F  F  F </v>
   <v type="logical" >  F  F  F </v>
   <v type="logical" >  F  F  F </v>
   <v type="logical" >  F  F  F </v>
   <v type="logical" >  F  F  F </v>
   <v type="logical" >  F  F  F </v>
   <v type="logical" >  F  F  F </v>
   <v type="logical" >  F  F  F </v>
   <v type="logical" >  F  F  F </v>
   <v type="logical" >  F  F  F </v>
   <v type="logical" >  F  F  F </v>
   <v type="logical" >  F  F  F </v>
   <v type="logical" >  F  F  F </v>
   <v type="logical" >  F  F  F </v>
   <v type="logical" >  F  F  F </v>
   <v type="logical" >  F  F  F </v>
   <v type="logical" >  F  F  F </v>
   <v type="logical" >  F  F  F </v>
   <v type="logical" >  F  F  F </v>
   <v type="logical" >  F  F  F </v>
   <v type="logical" >  F  F  F </v>
   <v type="logical" >  F  F  F </v>
   <v type="logical" >  F  F  F </v>
   <v type="logical" >  F  F  F </v>
   <v type="logical" >  F  F  F </v>
   <v type="logical" >  F  F  F </v>
   <v type="logical" >  F  F  F </v>
   <v type="logical" >  F  F  F </v>
   <v type="logical" >  F  F  F </v>
   <v type="logical" >  F  F  F </v>
   <v type="logical" >  F  F  F </v>
   <v type="logical" >  F  F  F </v>
   <v type="logical" >  F  F  F </v>
   <v type="logical" >  F  F  F </v>
   <v type="logical" >  F  F  F </v>
   <v type="logical" >  F  F  F </v>
   <v type="logical" >  F  F  F </v>
   <v type="logical" >  F  F  F </v>
   <v type="logical" >  F  F  F </v>
   <v type="logical" >  F  F  F </v>
   <v type="logical" >  F  F  F </v>
   <v type="logical" >  F  F  F </v>
   <v type="logical" >  F  F  F </v>
   <v type="logical" >  F  F  F </v>
   <v type="logical" >  F  F  F </v>
   <v type="logical" >  F  F  F </v>
   <v type="logical" >  F  F  F </v>
   <v type="logical" >  F  F  F </v>
   <v type="logical" >  F  F  F </v>
   <v type="logical" >  T  T  T </v>
  </varray>
  <nose>
   <v>      -3.00000000       0.00000000       0.00010000       0.00010000 </v>
  </nose>
 </structure>
 <calculation>
  <scstep>
   <time name="dav">  182.34  182.43</time>
   <time name="total">  182.47  182.57</time>
   <energy>
    <i name="alphaZ">   7165.75404585 </i>
    <i name="ewald"> -65169.07313690 </i>
    <i name="hartreedc"> -11387.28144545 </i>
    <i name="XCdc">    440.37528354 </i>
    <i name="pawpsdc">  51244.96395782 </i>
    <i name="pawaedc"> -52061.72305433 </i>
    <i name="eentropy">      0.00453477 </i>
    <i name="bandstr">  13478.59395542 </i>
    <i name="atom">  63607.21096501 </i>
    <i name="e_fr_energy">   7318.82510573 </i>
    <i name="e_wo_entrp">   7318.82057096 </i>
    <i name="e_0_energy">   7318.82359414 </i>
   </energy>
  </scstep>
  <scstep>
   <time name="dav">  182.64  182.72</time>
   <time name="total">  182.64  182.74</time>
   <energy>
    <i name="e_fr_energy">   -101.66512052 </i>
    <i name="e_wo_entrp">   -101.66263453 </i>
    <i name="e_0_energy">   -101.66429185 </i>
   </energy>
  </scstep>
  <scstep>
   <time name="dav">  182.59  182.67</time>
   <time name="total">  182.59  182.68</time>
   <energy>
    <i name="e_fr_energy">   -870.98508656 </i>
    <i name="e_wo_entrp">   -871.01008447 </i>
    <i name="e_0_energy">   -870.99341920 </i>
   </energy>
  </scstep>
  <scstep>
   <time name="dav">  298.48  298.54</time>
   <time name="total">  298.49  298.55</time>
   <energy>
    <i name="e_fr_energy">  -1021.98752834 </i>
    <i name="e_wo_entrp">  -1021.94269637 </i>
    <i name="e_0_energy">  -1021.97258435 </i>
   </energy>
  </scstep>
  <scstep>
   <time name="dav">  266.04  266.10</time>
   <time name="total">  274.01  274.08</time>
   <energy>
    <i name="e_fr_energy">  -1033.10790435 </i>
    <i name="e_wo_entrp">  -1033.05895155 </i>
    <i name="e_0_energy">  -1033.09158675 </i>
   </energy>
  </scstep>
  <scstep>
   <time name="diag">   21.34   21.35</time>
   <time name="diis">   99.48   99.51</time>
   <time name="orth">    3.56    3.56</time>
   <time name="total">  132.47  132.51</time>
   <energy>
    <i name="e_fr_energy">   -881.39590686 </i>
    <i name="e_wo_entrp">   -881.41494956 </i>
    <i name="e_0_energy">   -881.40225443 </i>
   </energy>
  </scstep>
  <scstep>
   <time name="diag">   21.36   21.37</time>
   <time name="diis">  128.12  128.16</time>
   <time name="orth">    3.55    3.56</time>
   <time name="total">  161.11  161.15</time>
   <energy>
    <i name="e_fr_energy">  -1179.41145737 </i>
    <i name="e_wo_entrp">  -1179.35674126 </i>
    <i name="e_0_energy">  -1179.39321866 </i>
   </energy>
  </scstep>
  <scstep>
   <time name="diag">   21.35   21.36</time>
   <time name="diis">   99.33   99.34</time>
   <time name="orth">    3.56    3.56</time>
   <time name="total">  132.32  132.34</time>
   <energy>
    <i name="e_fr_energy">   -886.92014213 </i>
    <i name="e_wo_entrp">   -886.78495308 </i>
    <i name="e_0_energy">   -886.87507911 </i>
   </energy>
  </scstep>
  <scstep>
   <time name="diag">   21.35   21.35</time>
   <time name="diis">  106.31  106.34</time>
   <time name="orth">    3.55    3.55</time>
   <time name="total">  139.27  139.31</time>
   <energy>
    <i name="e_fr_energy">   -870.07212012 </i>
    <i name="e_wo_entrp">   -870.03401952 </i>
    <i name="e_0_energy">   -870.05941992 </i>
   </energy>
  </scstep>
  <scstep>
   <time name="diag">   21.37   21.38</time>
   <time name="diis">  137.32  137.33</time>
   <time name="orth">    3.56    3.56</time>
   <time name="total">  170.30  170.34</time>
   <energy>
    <i name="e_fr_energy">   -872.12676444 </i>
    <i name="e_wo_entrp">   -872.09259435 </i>
    <i name="e_0_energy">   -872.11537441 </i>
   </energy>
  </scstep>
  <scstep>
   <time name="diag">   21.38   21.38</time>
   <time name="diis">  110.84  110.86</time>
   <time name="orth">    3.55    3.55</time>
   <time name="total">  143.84  143.88</time>
   <energy>
    <i name="e_fr_energy">   -870.34904705 </i>
    <i name="e_wo_entrp">   -870.31538136 </i>
    <i name="e_0_energy">   -870.33782515 </i>
   </energy>
  </scstep>
  <scstep>
   <time name="diag">   21.35   21.35</time>
   <time name="diis">  138.60  138.61</time>
   <time name="orth">    3.55    3.55</time>
   <time name="total">  171.58  171.60</time>
   <energy>
    <i name="e_fr_energy">   -870.25962163 </i>
    <i name="e_wo_entrp">   -870.21525968 </i>
    <i name="e_0_energy">   -870.24483432 </i>
   </energy>
  </scstep>
  <scstep>
   <time name="diag">   21.36   21.37</time>
   <time name="diis">  100.83  100.85</time>
   <time name="orth">    3.56    3.56</time>
   <time name="total">  133.84  133.86</time>
   <energy>
    <i name="e_fr_energy">   -869.46716118 </i>
    <i name="e_wo_entrp">   -869.40819875 </i>
    <i name="e_0_energy">   -869.44750704 </i>
   </energy>
  </scstep>
  <scstep>
   <time name="diag">   21.36   21.36</time>
   <time name="diis">  120.91  120.94</time>
   <time name="orth">    3.55    3.55</time>
   <time name="total">  153.91  153.95</time>
   <energy>
    <i name="e_fr_energy">   -869.33877602 </i>
    <i name="e_wo_entrp">   -869.28091160 </i>
    <i name="e_0_energy">   -869.31948788 </i>
   </energy>
  </scstep>
  <scstep>
   <time name="diag">   21.36   21.37</time>
   <time name="diis">  111.09  111.10</time>
   <time name="orth">    3.57    3.58</time>
   <time name="total">  144.11  144.14</time>
   <energy>
    <i name="e_fr_energy">   -869.21136277 </i>
    <i name="e_wo_entrp">   -869.14845548 </i>
    <i name="e_0_energy">   -869.19039367 </i>
   </energy>
  </scstep>
  <scstep>
   <time name="diag">   21.34   21.34</time>
   <time name="diis">  119.72  119.77</time>
   <time name="orth">    3.56    3.56</time>
   <time name="total">  152.69  152.75</time>
   <energy>
    <i name="e_fr_energy">   -869.15025264 </i>
    <i name="e_wo_entrp">   -869.08568367 </i>
    <i name="e_0_energy">   -869.12872965 </i>
   </energy>
  </scstep>
  <scstep>
   <time name="diag">   21.36   21.38</time>
   <time name="diis">  102.38  102.42</time>
   <time name="orth">    3.56    3.56</time>
   <time name="total">  135.37  135.43</time>
   <energy>
    <i name="e_fr_energy">   -869.12343529 </i>
    <i name="e_wo_entrp">   -869.05898053 </i>
    <i name="e_0_energy">   -869.10195037 </i>
   </energy>
  </scstep>
  <scstep>
   <time name="diag">   21.38   21.38</time>
   <time name="diis">  104.77  104.78</time>
   <time name="orth">    3.55    3.56</time>
   <time name="total">  137.76  137.78</time>
   <energy>
    <i name="e_fr_energy">   -869.06878868 </i>
    <i name="e_wo_entrp">   -869.00527017 </i>
    <i name="e_0_energy">   -869.04761585 </i>
   </energy>
  </scstep>
  <scstep>
   <time name="diag">   21.35   21.35</time>
   <time name="diis">  146.92  146.96</time>
   <time name="orth">    3.55    3.55</time>
   <time name="total">  179.89  179.94</time>
   <energy>
    <i name="e_fr_energy">   -869.07563321 </i>
    <i name="e_wo_entrp">   -869.01275088 </i>
    <i name="e_0_energy">   -869.05467243 </i>
   </energy>
  </scstep>
  <scstep>
   <time name="diag">   21.37   21.38</time>
   <time name="diis">  112.88  112.89</time>
   <time name="orth">    3.56    3.56</time>
   <time name="total">  145.89  145.91</time>
   <energy>
    <i name="e_fr_energy">   -869.07532992 </i>
    <i name="e_wo_entrp">   -869.01306228 </i>
    <i name="e_0_energy">   -869.05457404 </i>
   </energy>
  </scstep>
  <scstep>
   <time name="diag">   21.36   21.36</time>
   <time name="diis">  120.51  120.53</time>
   <time name="orth">    3.56    3.56</time>
   <time name="total">  153.50  153.53</time>
   <energy>
    <i name="e_fr_energy">   -869.07373132 </i>
    <i name="e_wo_entrp">   -869.01127372 </i>
    <i name="e_0_energy">   -869.05291212 </i>
   </energy>
  </scstep>
  <scstep>
   <time name="diag">   21.33   21.33</time>
   <time name="diis">  101.79  101.80</time>
   <time name="orth">    3.55    3.55</time>
   <time name="total">  134.74  134.77</time>
   <energy>
    <i name="e_fr_energy">   -869.07115486 </i>
    <i name="e_wo_entrp">   -869.00842406 </i>
    <i name="e_0_energy">   -869.05024460 </i>
   </energy>
  </scstep>
  <scstep>
   <time name="diag">   21.33   21.34</time>
   <time name="diis">  125.57  125.60</time>
   <time name="orth">    3.56    3.56</time>
   <time name="total">  158.53  158.57</time>
   <energy>
    <i name="e_fr_energy">   -869.07060850 </i>
    <i name="e_wo_entrp">   -869.00789124 </i>
    <i name="e_0_energy">   -869.04970274 </i>
   </energy>
  </scstep>
  <scstep>
   <time name="diag">   21.36   21.36</time>
   <time name="diis">  137.07  137.09</time>
   <time name="orth">    3.54    3.54</time>
   <time name="total">  170.06  170.09</time>
   <energy>
    <i name="e_fr_energy">   -869.07058150 </i>
    <i name="e_wo_entrp">   -869.00785526 </i>
    <i name="e_0_energy">   -869.04967276 </i>
   </energy>
  </scstep>
  <scstep>
   <time name="diag">   21.37   21.37</time>
   <time name="diis">  119.47  119.49</time>
   <time name="orth">    3.54    3.54</time>
   <time name="total">  152.47  152.51</time>
   <energy>
    <i name="e_fr_energy">   -869.07041674 </i>
    <i name="e_wo_entrp">   -869.00761118 </i>
    <i name="e_0_energy">   -869.04948155 </i>
   </energy>
  </scstep>
  <scstep>
   <time name="diag">   21.33   21.34</time>
   <time name="diis">  133.23  133.27</time>
   <time name="orth">    3.55    3.55</time>
   <time name="total">  166.19  166.25</time>
   <energy>
    <i name="e_fr_energy">   -869.07038111 </i>
    <i name="e_wo_entrp">   -869.00761585 </i>
    <i name="e_0_energy">   -869.04945935 </i>
   </energy>
  </scstep>
  <scstep>
   <time name="diag">   21.36   21.36</time>
   <time name="diis">  124.35  124.38</time>
   <time name="orth">    3.56    3.56</time>
   <time name="total">  157.43  157.47</time>
   <energy>
    <i name="e_fr_energy">   -869.07035313 </i>
    <i name="e_wo_entrp">   -869.00763143 </i>
    <i name="e_0_energy">   -869.04944590 </i>
   </energy>
  </scstep>
  <scstep>
   <time name="diag">   21.37   21.37</time>
   <time name="diis">  108.39  108.41</time>
   <time name="orth">    3.57    3.57</time>
   <time name="total">  141.41  141.43</time>
   <energy>
    <i name="e_fr_energy">   -869.07033779 </i>
    <i name="e_wo_entrp">   -869.00765296 </i>
    <i name="e_0_energy">   -869.04944285 </i>
   </energy>
  </scstep>
  <scstep>
   <time name="diag">   21.34   21.34</time>
   <time name="diis">  108.68  108.71</time>
   <time name="orth">    3.54    3.55</time>
   <time name="total">  141.66  141.71</time>
   <energy>
    <i name="e_fr_energy">   -869.07033660 </i>
    <i name="e_wo_entrp">   -869.00768393 </i>
    <i name="e_0_energy">   -869.04945238 </i>
   </energy>
  </scstep>
  <scstep>
   <time name="diag">   21.35   21.35</time>
   <time name="diis">   68.54   68.55</time>
   <time name="orth">    3.55    3.55</time>
   <time name="total">  101.52  101.55</time>
   <energy>
    <i name="e_fr_energy">   -869.07033145 </i>
    <i name="e_wo_entrp">   -869.00770640 </i>
    <i name="e_0_energy">   -869.04945644 </i>
   </energy>
  </scstep>
  <scstep>
   <time name="diag">   21.33   21.34</time>
   <time name="diis">   62.66   62.67</time>
   <time name="orth">    3.55    3.56</time>
   <time name="total">   95.64   95.66</time>
   <energy>
    <i name="e_fr_energy">   -869.07032979 </i>
    <i name="e_wo_entrp">   -869.00772922 </i>
    <i name="e_0_energy">   -869.04946293 </i>
   </energy>
  </scstep>
  <scstep>
   <time name="diag">   21.36   21.37</time>
   <time name="diis">   60.70   60.71</time>
   <time name="orth">    3.55    3.55</time>
   <time name="total">   93.71   93.73</time>
   <energy>
    <i name="e_fr_energy">   -869.07032935 </i>
    <i name="e_wo_entrp">   -869.00775074 </i>
    <i name="e_0_energy">   -869.04946982 </i>
   </energy>
  </scstep>
  <scstep>
   <time name="diag">   21.35   21.35</time>
   <time name="diis">   59.40   59.40</time>
   <time name="orth">    3.55    3.55</time>
   <time name="total">   92.39   92.41</time>
   <energy>
    <i name="e_fr_energy">   -869.07032867 </i>
    <i name="e_wo_entrp">   -869.00777009 </i>
    <i name="e_0_energy">   -869.04947581 </i>
   </energy>
  </scstep>
  <scstep>
   <time name="diag">   21.37   21.38</time>
   <time name="diis">   58.80   58.81</time>
   <time name="orth">    3.55    3.55</time>
   <time name="total">   91.81   91.83</time>
   <energy>
    <i name="e_fr_energy">   -869.07032806 </i>
    <i name="e_wo_entrp">   -869.00778609 </i>
    <i name="e_0_energy">   -869.04948074 </i>
   </energy>
  </scstep>
  <scstep>
   <time name="diag">   21.35   21.35</time>
   <time name="diis">   58.51   58.52</time>
   <time name="orth">    3.55    3.55</time>
   <time name="total">   91.50   91.52</time>
   <energy>
    <i name="e_fr_energy">   -869.07032778 </i>
    <i name="e_wo_entrp">   -869.00780109 </i>
    <i name="e_0_energy">   -869.04948555 </i>
   </energy>
  </scstep>
  <scstep>
   <time name="diag">   21.35   21.35</time>
   <time name="diis">   53.21   53.22</time>
   <time name="orth">    3.55    3.55</time>
   <time name="total">   78.24   78.25</time>
   <energy>
    <i name="alphaZ">   7165.75404585 </i>
    <i name="ewald"> -65169.07313690 </i>
    <i name="hartreedc">  -9568.02841442 </i>
    <i name="XCdc">    355.46581361 </i>
    <i name="pawpsdc">  57398.66787638 </i>
    <i name="pawaedc"> -58324.64278885 </i>
    <i name="eentropy">     -0.06251345 </i>
    <i name="bandstr">   3665.63782580 </i>
    <i name="atom">  63607.21096501 </i>
    <i name="e_fr_energy">   -869.07032697 </i>
    <i name="e_wo_entrp">   -869.00781351 </i>
    <i name="e_0_energy">   -869.04948915 </i>
   </energy>
  </scstep>
  <structure>
   <crystal>
    <varray name="basis" >
     <v>      10.33484705       0.00000000       0.00000000 </v>
     <v>       0.00000000      10.33484705       0.00000000 </v>
     <v>       0.00000000       0.00000000      10.33484705 </v>
    </varray>
    <i name="volume">   1103.85533447 </i>
    <varray name="rec_basis" >
     <v>       0.09676002       0.00000000       0.00000000 </v>
     <v>       0.00000000       0.09676002       0.00000000 </v>
     <v>       0.00000000       0.00000000       0.09676002 </v>
    </varray>
   </crystal>
   <varray name="positions" >
    <v>       0.99999938       0.00000098       0.00016562 </v>
    <v>       0.99999934       0.16650171       0.16666795 </v>
    <v>       0.99999944       0.33376685       0.99980627 </v>
    <v>       0.99999930       0.49999902       0.16666782 </v>
    <v>       0.99999934       0.66623220       0.99980624 </v>
    <v>       0.99999930       0.83349920       0.16666804 </v>
    <v>       0.99999926       0.00000094       0.33316834 </v>
    <v>       0.99999929       0.16686131       0.50043282 </v>
    <v>       0.99999932       0.33376689       0.33352795 </v>
    <v>       0.99999942       0.49999901       0.50045706 </v>
    <v>       0.99999924       0.66623220       0.33352798 </v>
    <v>       0.99999935       0.83313964       0.50043280 </v>
    <v>       0.99999934       0.00000094       0.66666541 </v>
    <v>       0.99999937       0.16686130       0.83289896 </v>
    <v>       0.99999946       0.33379006       0.66666536 </v>
    <v>       0.99999948       0.49999895       0.83287482 </v>
    <v>       0.99999946       0.66620903       0.66666528 </v>
    <v>       0.99999940       0.83313970       0.83289890 </v>
    <v>       0.16650234       0.00000098       0.16666790 </v>
    <v>       0.16641578       0.16641522       0.00025253 </v>
    <v>       0.16641576       0.83358588       0.00025250 </v>
    <v>       0.16655682       0.33319083       0.49985824 </v>
    <v>       0.16866287       0.49999901       0.33532981 </v>
    <v>       0.16655664       0.66680837       0.49985819 </v>
    <v>       0.16686199       0.00000091       0.83289887 </v>
    <v>       0.16850551       0.49999888       0.66666533 </v>
    <v>       0.16686172       0.33376669       0.16666777 </v>
    <v>       0.16686169       0.66623236       0.16666783 </v>
    <v>       0.16641583       0.16641530       0.33308135 </v>
    <v>       0.16641579       0.83358573       0.33308146 </v>
    <v>       0.16866051       0.16865981       0.66666471 </v>
    <v>       0.16655674       0.33319051       0.83347364 </v>
    <v>       0.16655659       0.66680864       0.83347363 </v>
    <v>       0.16866046       0.83134129       0.66666454 </v>
    <v>       0.16866304       0.49999894       0.99800449 </v>
    <v>       0.16686195       0.00000085       0.50043296 </v>
    <v>       0.33376897       0.00000098       0.99980620 </v>
    <v>       0.33376876       0.16686111       0.16666781 </v>
    <v>       0.33376876       0.83313992       0.16666782 </v>
    <v>       0.33319337       0.33319112       0.33322327 </v>
    <v>       0.33319325       0.66680797       0.33322314 </v>
    <v>       0.33319273       0.16655616       0.83347357 </v>
    <v>       0.33430839       0.33430480       0.66666817 </v>
    <v>       0.33430668       0.66569446       0.66666883 </v>
    <v>       0.33319257       0.83344508       0.83347361 </v>
    <v>       0.33319318       0.33319103       0.00011123 </v>
    <v>       0.33379238       0.49999892       0.16666764 </v>
    <v>       0.33319316       0.66680805       0.00011136 </v>
    <v>       0.33376905       0.00000097       0.33352799 </v>
    <v>       0.33319309       0.16655633       0.49985827 </v>
    <v>       0.33319287       0.83344492       0.49985821 </v>
    <v>       0.33379221       0.00000092       0.66666541 </v>
    <v>       0.33430824       0.49999881       0.83235635 </v>
    <v>       0.50000051       0.00000098       0.16666779 </v>
    <v>       0.50000037       0.16866242       0.99800443 </v>
    <v>       0.50000050       0.33379024       0.16666768 </v>
    <v>       0.50000047       0.49999884       0.99816283 </v>
    <v>       0.50000055       0.66620880       0.16666764 </v>
    <v>       0.50000048       0.83133868       0.99800433 </v>
    <v>       0.50000055       0.00000093       0.50045712 </v>
    <v>       0.50000045       0.16866231       0.33532986 </v>
    <v>       0.50000156       0.33430527       0.50097546 </v>
    <v>       0.50000056       0.49999884       0.33517210 </v>
    <v>       0.50000227       0.66569247       0.50097524 </v>
    <v>       0.50000054       0.83133880       0.33532973 </v>
    <v>       0.50000044       0.00000093       0.83287479 </v>
    <v>       0.50000048       0.16850497       0.66666532 </v>
    <v>       0.50000144       0.33430502       0.83235656 </v>
    <v>       0.50000144       0.66569406       0.83235684 </v>
    <v>       0.50000048       0.83149653       0.66666525 </v>
    <v>       0.66680710       0.33319110       0.00011134 </v>
    <v>       0.66620806       0.49999897       0.16666768 </v>
    <v>       0.66680723       0.66680809       0.00011153 </v>
    <v>       0.66623142       0.00000089       0.33352798 </v>
    <v>       0.66680733       0.16655630       0.49985828 </v>
    <v>       0.66680750       0.83344500       0.49985811 </v>
    <v>       0.66620819       0.00000091       0.66666527 </v>
    <v>       0.66569199       0.49999880       0.83235629 </v>
    <v>       0.66623164       0.16686108       0.16666788 </v>
    <v>       0.66623167       0.83313991       0.16666786 </v>
    <v>       0.66680703       0.33319119       0.33322331 </v>
    <v>       0.66680723       0.66680798       0.33322310 </v>
    <v>       0.66680763       0.16655615       0.83347349 </v>
    <v>       0.66569322       0.33430460       0.66666872 </v>
    <v>       0.66569359       0.66569449       0.66666867 </v>
    <v>       0.66680775       0.83344513       0.83347367 </v>
    <v>       0.66623137       0.00000087       0.99980625 </v>
    <v>       0.66569288       0.49999774       0.50097509 </v>
    <v>       0.83133624       0.49999904       0.99800452 </v>
    <v>       0.83313726       0.00000091       0.50043285 </v>
    <v>       0.83313754       0.33376671       0.16666790 </v>
    <v>       0.83313752       0.66623237       0.16666792 </v>
    <v>       0.83358344       0.16641525       0.33308141 </v>
    <v>       0.83358338       0.83358570       0.33308146 </v>
    <v>       0.83133880       0.16865969       0.66666452 </v>
    <v>       0.83344258       0.33319042       0.83347361 </v>
    <v>       0.83344275       0.66680870       0.83347372 </v>
    <v>       0.83133882       0.83134137       0.66666436 </v>
    <v>       0.83349693       0.00000094       0.16666806 </v>
    <v>       0.83358357       0.16641517       0.00025257 </v>
    <v>       0.83358347       0.83358583       0.00025260 </v>
    <v>       0.83344235       0.33319077       0.49985815 </v>
    <v>       0.83133636       0.49999908       0.33532958 </v>
    <v>       0.83344258       0.66680837       0.49985799 </v>
    <v>       0.83313734       0.00000094       0.83289883 </v>
    <v>       0.83149375       0.49999887       0.66666519 </v>
    <v>       0.33431120       0.49999883       0.50097605 </v>
   </varray>
  </structure>
  <varray name="forces" >
   <v>       0.00005481      -0.00011878       0.00343113 </v>
   <v>       0.00006166      -0.00348988      -0.00011702 </v>
   <v>       0.00004399      -0.00171323      -0.00385656 </v>
   <v>       0.00006150       0.00010617      -0.00011425 </v>
   <v>       0.00003132       0.00183809      -0.00385517 </v>
   <v>       0.00005541       0.00339672      -0.00016848 </v>
   <v>       0.00006252      -0.00006927      -0.00353021 </v>
   <v>       0.00006585       0.00378926      -0.00172526 </v>
   <v>       0.00006114      -0.00173099       0.00381546 </v>
   <v>       0.00005258       0.00006741      -0.00146356 </v>
   <v>       0.00006076       0.00180377       0.00376320 </v>
   <v>       0.00004566      -0.00385540      -0.00171607 </v>
   <v>       0.00004792      -0.00006383       0.00009326 </v>
   <v>       0.00005139       0.00375366       0.00183788 </v>
   <v>       0.00004733      -0.00142856       0.00007780 </v>
   <v>       0.00004063       0.00012427       0.00157814 </v>
   <v>       0.00003710       0.00150558       0.00013008 </v>
   <v>       0.00003353      -0.00386642       0.00187726 </v>
   <v>      -0.00354357      -0.00008709      -0.00013497 </v>
   <v>      -0.00209948      -0.00207859       0.00197299 </v>
   <v>      -0.00213026       0.00195755       0.00197047 </v>
   <v>       0.00193482      -0.00079876      -0.00087188 </v>
   <v>       0.00047499       0.00008547       0.00049220 </v>
   <v>       0.00198175       0.00084042      -0.00086396 </v>
   <v>       0.00369545      -0.00008255       0.00187840 </v>
   <v>      -0.00446015       0.00010011       0.00008826 </v>
   <v>       0.00376714      -0.00170624      -0.00011074 </v>
   <v>       0.00375155       0.00180210      -0.00014481 </v>
   <v>      -0.00210774      -0.00204895      -0.00205429 </v>
   <v>      -0.00209077       0.00196211      -0.00208358 </v>
   <v>       0.00059100       0.00066647       0.00017153 </v>
   <v>       0.00189518      -0.00079117       0.00100833 </v>
   <v>       0.00188224       0.00087336       0.00104020 </v>
   <v>       0.00058090      -0.00075755       0.00020547 </v>
   <v>       0.00040514       0.00012028      -0.00055337 </v>
   <v>       0.00371386      -0.00005588      -0.00174658 </v>
   <v>      -0.00193873      -0.00007667      -0.00383331 </v>
   <v>      -0.00188923       0.00380193      -0.00012784 </v>
   <v>      -0.00190307      -0.00389030      -0.00013655 </v>
   <v>      -0.00100588      -0.00080270       0.00203339 </v>
   <v>      -0.00097804       0.00087507       0.00205368 </v>
   <v>      -0.00101263       0.00192701       0.00105354 </v>
   <v>       0.00691380       0.00727556      -0.00016645 </v>
   <v>       0.00708008      -0.00715654      -0.00023667 </v>
   <v>      -0.00100453      -0.00203997       0.00105306 </v>
   <v>      -0.00100479      -0.00082774      -0.00207646 </v>
   <v>      -0.00161688       0.00009894      -0.00011188 </v>
   <v>      -0.00102077       0.00090270      -0.00209709 </v>
   <v>      -0.00192882      -0.00007697       0.00376997 </v>
   <v>      -0.00103523       0.00198084      -0.00089974 </v>
   <v>      -0.00096385      -0.00212329      -0.00088090 </v>
   <v>      -0.00164099      -0.00007879       0.00010093 </v>
   <v>       0.00714125       0.00012242      -0.00689130 </v>
   <v>      -0.00005726      -0.00007700      -0.00010614 </v>
   <v>      -0.00004254       0.00042131      -0.00049527 </v>
   <v>      -0.00004655      -0.00143110      -0.00013252 </v>
   <v>      -0.00003360       0.00010794       0.00420150 </v>
   <v>      -0.00004684       0.00150600      -0.00012268 </v>
   <v>      -0.00004976      -0.00052259      -0.00049778 </v>
   <v>      -0.00003996      -0.00008849      -0.00149860 </v>
   <v>      -0.00004045       0.00044673       0.00040541 </v>
   <v>      -0.00014136       0.00732322       0.00701117 </v>
   <v>      -0.00003812       0.00011014      -0.00436582 </v>
   <v>      -0.00020086      -0.00710230       0.00707471 </v>
   <v>      -0.00004942      -0.00057267       0.00043465 </v>
   <v>      -0.00004529      -0.00008228       0.00160579 </v>
   <v>      -0.00003880      -0.00445705       0.00011183 </v>
   <v>      -0.00014044       0.00738977      -0.00682582 </v>
   <v>      -0.00013346      -0.00728346      -0.00688995 </v>
   <v>      -0.00003972       0.00427748       0.00009493 </v>
   <v>       0.00098576      -0.00081542      -0.00206136 </v>
   <v>       0.00158760       0.00009761      -0.00015106 </v>
   <v>       0.00100474       0.00088720      -0.00209358 </v>
   <v>       0.00187144      -0.00006356       0.00378300 </v>
   <v>       0.00101789       0.00194899      -0.00089596 </v>
   <v>       0.00097555      -0.00207188      -0.00086709 </v>
   <v>       0.00160326      -0.00008535       0.00009582 </v>
   <v>      -0.00716492       0.00013870      -0.00688286 </v>
   <v>       0.00183236       0.00380561      -0.00013864 </v>
   <v>       0.00184653      -0.00390337      -0.00014322 </v>
   <v>       0.00098428      -0.00081834       0.00200535 </v>
   <v>       0.00095007       0.00086682       0.00204515 </v>
   <v>       0.00097718       0.00190843       0.00105698 </v>
   <v>      -0.00705961       0.00714056      -0.00007943 </v>
   <v>      -0.00708845      -0.00716132      -0.00021656 </v>
   <v>       0.00098649      -0.00204915       0.00102987 </v>
   <v>       0.00188423      -0.00007313      -0.00384045 </v>
   <v>      -0.00718298       0.00021709       0.00708549 </v>
   <v>      -0.00035403       0.00011810      -0.00056020 </v>
   <v>      -0.00365269      -0.00006106      -0.00172934 </v>
   <v>      -0.00370372      -0.00169234      -0.00013247 </v>
   <v>      -0.00367937       0.00179071      -0.00017556 </v>
   <v>       0.00215713      -0.00204627      -0.00204634 </v>
   <v>       0.00215615       0.00196492      -0.00207311 </v>
   <v>      -0.00052183       0.00065014       0.00016761 </v>
   <v>      -0.00182042      -0.00077568       0.00102929 </v>
   <v>      -0.00181863       0.00087277       0.00104553 </v>
   <v>      -0.00052357      -0.00075906       0.00020336 </v>
   <v>       0.00359739      -0.00009205      -0.00014297 </v>
   <v>       0.00215421      -0.00206647       0.00197241 </v>
   <v>       0.00219469       0.00194825       0.00196234 </v>
   <v>      -0.00183719      -0.00083185      -0.00087486 </v>
   <v>      -0.00037336       0.00007442       0.00045276 </v>
   <v>      -0.00190503       0.00086958      -0.00084473 </v>
   <v>      -0.00363385      -0.00009673       0.00186237 </v>
   <v>       0.00452578       0.00011524       0.00012818 </v>
   <v>       0.00686251       0.00012109       0.00709118 </v>
  </varray>
  <varray name="stress" >
   <v>      -8.13611401      -0.00007656      -0.00019597 </v>
   <v>      -0.00007657      -8.13550829       0.00044751 </v>
   <v>      -0.00019619       0.00044750      -8.13742331 </v>
  </varray>
  <energy>
   <i name="e_fr_energy">   -869.07032697 </i>
   <i name="e_wo_entrp">   -869.04948915 </i>
   <i name="e_0_energy">     -0.06251345 </i>
  </energy>
  <time name="totalsc"> 5590.00 5591.51</time>
 </calculation>
 <calculation>
  <scstep>
   <time name="dav">  191.69  191.78</time>
   <time name="total">  199.81  199.90</time>
   <energy>
    <i name="alphaZ">   7165.75404585 </i>
    <i name="ewald"> -65171.79643759 </i>
    <i name="hartreedc">  -9565.45139449 </i>
    <i name="XCdc">    355.45900499 </i>
    <i name="pawpsdc">  57398.68076836 </i>
    <i name="pawaedc"> -58324.65737128 </i>
    <i name="eentropy">     -0.06220798 </i>
    <i name="bandstr">   3665.79713338 </i>
    <i name="atom">  63607.21096501 </i>
    <i name="e_fr_energy">   -869.06549373 </i>
    <i name="e_wo_entrp">   -869.00328574 </i>
    <i name="e_0_energy">   -869.04475773 </i>
   </energy>
  </scstep>
  <scstep>
   <time name="diag">   21.34   21.35</time>
   <time name="diis">  102.96  102.99</time>
   <time name="orth">    3.54    3.54</time>
   <time name="total">  135.94  135.99</time>
   <energy>
    <i name="e_fr_energy">   -869.12804041 </i>
    <i name="e_wo_entrp">   -869.06583101 </i>
    <i name="e_0_energy">   -869.10730394 </i>
   </energy>
  </scstep>
  <scstep>
   <time name="diag">   21.33   21.34</time>
   <time name="diis">   99.20   99.24</time>
   <time name="orth">    3.56    3.56</time>
   <time name="total">  132.19  132.25</time>
   <energy>
    <i name="e_fr_energy">   -869.06968705 </i>
    <i name="e_wo_entrp">   -869.00760411 </i>
    <i name="e_0_energy">   -869.04899274 </i>
   </energy>
  </scstep>
  <scstep>
   <time name="diag">   21.35   21.36</time>
   <time name="diis">  130.95  130.99</time>
   <time name="orth">    3.55    3.55</time>
   <time name="total">  163.99  164.05</time>
   <energy>
    <i name="e_fr_energy">   -869.06775752 </i>
    <i name="e_wo_entrp">   -869.00536878 </i>
    <i name="e_0_energy">   -869.04696127 </i>
   </energy>
  </scstep>
  <scstep>
   <time name="diag">   21.34   21.35</time>
   <time name="diis">  117.40  117.48</time>
   <time name="orth">    3.55    3.55</time>
   <time name="total">  150.39  150.49</time>
   <energy>
    <i name="e_fr_energy">   -869.06905809 </i>
    <i name="e_wo_entrp">   -869.00678458 </i>
    <i name="e_0_energy">   -869.04830025 </i>
   </energy>
  </scstep>
  <scstep>
   <time name="diag">   21.36   21.36</time>
   <time name="diis">   99.87   99.92</time>
   <time name="orth">    3.54    3.54</time>
   <time name="total">  132.85  132.92</time>
   <energy>
    <i name="e_fr_energy">   -869.06715893 </i>
    <i name="e_wo_entrp">   -869.00488976 </i>
    <i name="e_0_energy">   -869.04640254 </i>
   </energy>
  </scstep>
  <scstep>
   <time name="diag">   21.35   21.35</time>
   <time name="diis">  111.36  111.41</time>
   <time name="orth">    3.55    3.55</time>
   <time name="total">  144.41  144.48</time>
   <energy>
    <i name="e_fr_energy">   -869.06780910 </i>
    <i name="e_wo_entrp">   -869.00560744 </i>
    <i name="e_0_energy">   -869.04707521 </i>
   </energy>
  </scstep>
  <scstep>
   <time name="diag">   21.35   21.37</time>
   <time name="diis">  100.10  100.13</time>
   <time name="orth">    3.55    3.55</time>
   <time name="total">  133.16  133.22</time>
   <energy>
    <i name="e_fr_energy">   -869.06713016 </i>
    <i name="e_wo_entrp">   -869.00472459 </i>
    <i name="e_0_energy">   -869.04632830 </i>
   </energy>
  </scstep>
  <scstep>
   <time name="diag">   21.36   21.37</time>
   <time name="diis">  124.67  124.72</time>
   <time name="orth">    3.55    3.55</time>
   <time name="total">  157.72  157.80</time>
   <energy>
    <i name="e_fr_energy">   -869.06707091 </i>
    <i name="e_wo_entrp">   -869.00478430 </i>
    <i name="e_0_energy">   -869.04630871 </i>
   </energy>
  </scstep>
  <scstep>
   <time name="diag">   21.34   21.34</time>
   <time name="diis">  132.62  132.66</time>
   <time name="orth">    3.55    3.55</time>
   <time name="total">  165.64  165.72</time>
   <energy>
    <i name="e_fr_energy">   -869.06708072 </i>
    <i name="e_wo_entrp">   -869.00476080 </i>
    <i name="e_0_energy">   -869.04630741 </i>
   </energy>
  </scstep>
  <scstep>
   <time name="diag">   21.32   21.33</time>
   <time name="diis">  106.02  106.06</time>
   <time name="orth">    3.55    3.55</time>
   <time name="total">  139.06  139.11</time>
   <energy>
    <i name="e_fr_energy">   -869.06706620 </i>
    <i name="e_wo_entrp">   -869.00475892 </i>
    <i name="e_0_energy">   -869.04629711 </i>
   </energy>
  </scstep>
  <scstep>
   <time name="diag">   21.33   21.33</time>
   <time name="diis">  115.79  115.84</time>
   <time name="orth">    3.54    3.54</time>
   <time name="total">  148.85  148.92</time>
   <energy>
    <i name="e_fr_energy">   -869.06706634 </i>
    <i name="e_wo_entrp">   -869.00475446 </i>
    <i name="e_0_energy">   -869.04629572 </i>
   </energy>
  </scstep>
  <scstep>
   <time name="diag">   21.34   21.35</time>
   <time name="diis">  102.97  103.00</time>
   <time name="orth">    3.54    3.54</time>
   <time name="total">  136.00  136.05</time>
   <energy>
    <i name="e_fr_energy">   -869.06706786 </i>
    <i name="e_wo_entrp">   -869.00476050 </i>
    <i name="e_0_energy">   -869.04629874 </i>
   </energy>
  </scstep>
  <scstep>
   <time name="diag">   21.32   21.34</time>
   <time name="diis">   67.22   67.24</time>
   <time name="orth">    3.54    3.54</time>
   <time name="total">  100.29  100.35</time>
   <energy>
    <i name="e_fr_energy">   -869.06706533 </i>
    <i name="e_wo_entrp">   -869.00475400 </i>
    <i name="e_0_energy">   -869.04629489 </i>
   </energy>
  </scstep>
  <scstep>
   <time name="diag">   21.35   21.36</time>
   <time name="diis">   61.54   61.56</time>
   <time name="orth">    3.55    3.55</time>
   <time name="total">   86.56   86.59</time>
   <energy>
    <i name="alphaZ">   7165.75404585 </i>
    <i name="ewald"> -65171.79643759 </i>
    <i name="hartreedc">  -9565.41044315 </i>
    <i name="XCdc">    355.45765400 </i>
    <i name="pawpsdc">  57397.95834671 </i>
    <i name="pawaedc"> -58323.92184161 </i>
    <i name="eentropy">     -0.06230851 </i>
    <i name="bandstr">   3665.74295368 </i>
    <i name="atom">  63607.21096501 </i>
    <i name="e_fr_energy">   -869.06706560 </i>
    <i name="e_wo_entrp">   -869.00475709 </i>
    <i name="e_0_energy">   -869.04629609 </i>
   </energy>
  </scstep>
  <structure>
   <crystal>
    <varray name="basis" >
     <v>      10.33484705       0.00000000       0.00000000 </v>
     <v>       0.00000000      10.33484705       0.00000000 </v>
     <v>       0.00000000       0.00000000      10.33484705 </v>
    </varray>
    <i name="volume">   1103.85533447 </i>
    <varray name="rec_basis" >
     <v>       0.09676002       0.00000000       0.00000000 </v>
     <v>       0.00000000       0.09676002       0.00000000 </v>
     <v>       0.00000000       0.00000000       0.09676002 </v>
    </varray>
   </crystal>
   <varray name="positions" >
    <v>       0.99999938       0.00000098       0.00016562 </v>
    <v>       0.99999934       0.16650171       0.16666795 </v>
    <v>       0.99999944       0.33376685       0.99980627 </v>
    <v>       0.99999930       0.49999902       0.16666782 </v>
    <v>       0.99999934       0.66623220       0.99980624 </v>
    <v>       0.99999930       0.83349920       0.16666804 </v>
    <v>       0.99999926       0.00000094       0.33316834 </v>
    <v>       0.99999929       0.16686131       0.50043282 </v>
    <v>       0.99999932       0.33376689       0.33352795 </v>
    <v>       0.99999942       0.49999901       0.50045706 </v>
    <v>       0.99999924       0.66623220       0.33352798 </v>
    <v>       0.99999935       0.83313964       0.50043280 </v>
    <v>       0.99999934       0.00000094       0.66666541 </v>
    <v>       0.99999937       0.16686130       0.83289896 </v>
    <v>       0.99999946       0.33379006       0.66666536 </v>
    <v>       0.99999948       0.49999895       0.83287482 </v>
    <v>       0.99999946       0.66620903       0.66666528 </v>
    <v>       0.99999940       0.83313970       0.83289890 </v>
    <v>       0.16650234       0.00000098       0.16666790 </v>
    <v>       0.16641578       0.16641522       0.00025253 </v>
    <v>       0.16641576       0.83358588       0.00025250 </v>
    <v>       0.16655682       0.33319083       0.49985824 </v>
    <v>       0.16866287       0.49999901       0.33532981 </v>
    <v>       0.16655664       0.66680837       0.49985819 </v>
    <v>       0.16686199       0.00000091       0.83289887 </v>
    <v>       0.16850551       0.49999888       0.66666533 </v>
    <v>       0.16686172       0.33376669       0.16666777 </v>
    <v>       0.16686169       0.66623236       0.16666783 </v>
    <v>       0.16641583       0.16641530       0.33308135 </v>
    <v>       0.16641579       0.83358573       0.33308146 </v>
    <v>       0.16866051       0.16865981       0.66666471 </v>
    <v>       0.16655674       0.33319051       0.83347364 </v>
    <v>       0.16655659       0.66680864       0.83347363 </v>
    <v>       0.16866046       0.83134129       0.66666454 </v>
    <v>       0.16866304       0.49999894       0.99800449 </v>
    <v>       0.16686195       0.00000085       0.50043296 </v>
    <v>       0.33376897       0.00000098       0.99980620 </v>
    <v>       0.33376876       0.16686111       0.16666781 </v>
    <v>       0.33376876       0.83313992       0.16666782 </v>
    <v>       0.33319337       0.33319112       0.33322327 </v>
    <v>       0.33319325       0.66680797       0.33322314 </v>
    <v>       0.33319273       0.16655616       0.83347357 </v>
    <v>       0.33430839       0.33430480       0.66666817 </v>
    <v>       0.33430668       0.66569446       0.66666883 </v>
    <v>       0.33319257       0.83344508       0.83347361 </v>
    <v>       0.33319318       0.33319103       0.00011123 </v>
    <v>       0.33379238       0.49999892       0.16666764 </v>
    <v>       0.33319316       0.66680805       0.00011136 </v>
    <v>       0.33376905       0.00000097       0.33352799 </v>
    <v>       0.33319309       0.16655633       0.49985827 </v>
    <v>       0.33319287       0.83344492       0.49985821 </v>
    <v>       0.33379221       0.00000092       0.66666541 </v>
    <v>       0.33430824       0.49999881       0.83235635 </v>
    <v>       0.50000051       0.00000098       0.16666779 </v>
    <v>       0.50000037       0.16866242       0.99800443 </v>
    <v>       0.50000050       0.33379024       0.16666768 </v>
    <v>       0.50000047       0.49999884       0.99816283 </v>
    <v>       0.50000055       0.66620880       0.16666764 </v>
    <v>       0.50000048       0.83133868       0.99800433 </v>
    <v>       0.50000055       0.00000093       0.50045712 </v>
    <v>       0.50000045       0.16866231       0.33532986 </v>
    <v>       0.50000156       0.33430527       0.50097546 </v>
    <v>       0.50000056       0.49999884       0.33517210 </v>
    <v>       0.50000227       0.66569247       0.50097524 </v>
    <v>       0.50000054       0.83133880       0.33532973 </v>
    <v>       0.50000044       0.00000093       0.83287479 </v>
    <v>       0.50000048       0.16850497       0.66666532 </v>
    <v>       0.50000144       0.33430502       0.83235656 </v>
    <v>       0.50000144       0.66569406       0.83235684 </v>
    <v>       0.50000048       0.83149653       0.66666525 </v>
    <v>       0.66680710       0.33319110       0.00011134 </v>
    <v>       0.66620806       0.49999897       0.16666768 </v>
    <v>       0.66680723       0.66680809       0.00011153 </v>
    <v>       0.66623142       0.00000089       0.33352798 </v>
    <v>       0.66680733       0.16655630       0.49985828 </v>
    <v>       0.66680750       0.83344500       0.49985811 </v>
    <v>       0.66620819       0.00000091       0.66666527 </v>
    <v>       0.66569199       0.49999880       0.83235629 </v>
    <v>       0.66623164       0.16686108       0.16666788 </v>
    <v>       0.66623167       0.83313991       0.16666786 </v>
    <v>       0.66680703       0.33319119       0.33322331 </v>
    <v>       0.66680723       0.66680798       0.33322310 </v>
    <v>       0.66680763       0.16655615       0.83347349 </v>
    <v>       0.66569322       0.33430460       0.66666872 </v>
    <v>       0.66569359       0.66569449       0.66666867 </v>
    <v>       0.66680775       0.83344513       0.83347367 </v>
    <v>       0.66623137       0.00000087       0.99980625 </v>
    <v>       0.66569288       0.49999774       0.50097509 </v>
    <v>       0.83133624       0.49999904       0.99800452 </v>
    <v>       0.83313726       0.00000091       0.50043285 </v>
    <v>       0.83313754       0.33376671       0.16666790 </v>
    <v>       0.83313752       0.66623237       0.16666792 </v>
    <v>       0.83358344       0.16641525       0.33308141 </v>
    <v>       0.83358338       0.83358570       0.33308146 </v>
    <v>       0.83133880       0.16865969       0.66666452 </v>
    <v>       0.83344258       0.33319042       0.83347361 </v>
    <v>       0.83344275       0.66680870       0.83347372 </v>
    <v>       0.83133882       0.83134137       0.66666436 </v>
    <v>       0.83349693       0.00000094       0.16666806 </v>
    <v>       0.83358357       0.16641517       0.00025257 </v>
    <v>       0.83358347       0.83358583       0.00025260 </v>
    <v>       0.83344235       0.33319077       0.49985815 </v>
    <v>       0.83133636       0.49999908       0.33532958 </v>
    <v>       0.83344258       0.66680837       0.49985799 </v>
    <v>       0.83313734       0.00000094       0.83289883 </v>
    <v>       0.83149375       0.49999887       0.66666519 </v>
    <v>       0.33721400       0.49999883       0.50097605 </v>
   </varray>
  </structure>
  <varray name="forces" >
   <v>      -0.00189799      -0.00008554       0.00369614 </v>
   <v>      -0.00137686      -0.00412565      -0.00097561 </v>
   <v>       0.00037690      -0.00091855      -0.00402820 </v>
   <v>       0.01211121       0.00008776       0.01114714 </v>
   <v>       0.00037841       0.00101160      -0.00402041 </v>
   <v>      -0.00137248       0.00405009      -0.00098595 </v>
   <v>       0.00171845      -0.00007879      -0.00257025 </v>
   <v>       0.01328225       0.01608161      -0.00215092 </v>
   <v>       0.00735243       0.00080122       0.00622140 </v>
   <v>       0.01349048       0.00008933       0.00038356 </v>
   <v>       0.00735700      -0.00071983       0.00620904 </v>
   <v>       0.01326574      -0.01616736      -0.00215108 </v>
   <v>       0.00010010      -0.00006495      -0.00067609 </v>
   <v>      -0.00145945       0.00263127       0.00302488 </v>
   <v>       0.00560016       0.00049642      -0.00208996 </v>
   <v>       0.01347649       0.00010004      -0.01125231 </v>
   <v>       0.00559803      -0.00042386      -0.00208483 </v>
   <v>      -0.00146523      -0.00272119       0.00303329 </v>
   <v>      -0.00216101      -0.00008506       0.00084782 </v>
   <v>      -0.00087395      -0.00156567       0.00173240 </v>
   <v>      -0.00087055       0.00145878       0.00173697 </v>
   <v>       0.01349027       0.01653884      -0.00020600 </v>
   <v>       0.02519702       0.00009738       0.02164980 </v>
   <v>       0.01352092      -0.01647799      -0.00020447 </v>
   <v>       0.00502345      -0.00006881       0.00140502 </v>
   <v>       0.00873324       0.00010301      -0.02108112 </v>
   <v>       0.00649916      -0.00232997       0.00353033 </v>
   <v>       0.00650574       0.00242048       0.00352056 </v>
   <v>      -0.00238886      -0.00071041      -0.00215453 </v>
   <v>      -0.00237825       0.00061539      -0.00216507 </v>
   <v>       0.00093997       0.00251465       0.00019685 </v>
   <v>       0.00297062       0.00068626      -0.00088918 </v>
   <v>       0.00298209      -0.00061434      -0.00087552 </v>
   <v>       0.00092923      -0.00261127       0.00020465 </v>
   <v>       0.00462860       0.00010605      -0.00028639 </v>
   <v>       0.00774432      -0.00006704      -0.00166686 </v>
   <v>      -0.00233388      -0.00007893      -0.00391245 </v>
   <v>      -0.00242643       0.00615985       0.00204966 </v>
   <v>      -0.00243083      -0.00625264       0.00204739 </v>
   <v>      -0.00593770      -0.00556701      -0.00939550 </v>
   <v>      -0.00592146       0.00564953      -0.00937131 </v>
   <v>      -0.00019648       0.00258657      -0.00045691 </v>
   <v>       0.01057158       0.01101943      -0.00438903 </v>
   <v>       0.01072555      -0.01090158      -0.00446890 </v>
   <v>      -0.00018364      -0.00269605      -0.00045798 </v>
   <v>      -0.00032686      -0.00078704      -0.00159347 </v>
   <v>      -0.00254226       0.00010033       0.00078573 </v>
   <v>      -0.00032866       0.00086337      -0.00160955 </v>
   <v>      -0.00092686      -0.00008315       0.00328095 </v>
   <v>      -0.00147942       0.00441031       0.00002880 </v>
   <v>      -0.00142583      -0.00456055       0.00003480 </v>
   <v>      -0.00151464      -0.00007880       0.00038622 </v>
   <v>       0.00578666       0.00011778      -0.00920503 </v>
   <v>       0.00129463      -0.00008212       0.00002862 </v>
[...]
       <r>     1.8922    76.7078    58.4387 </r>
       <r>     1.9378    87.4781    62.4267 </r>
       <r>     1.9833    96.1562    66.8104 </r>
       <r>     2.0289   102.0910    71.4646 </r>
       <r>     2.0745   104.9349    76.2485 </r>
       <r>     2.1201   104.9563    81.0334 </r>
       <r>     2.1657   103.2167    85.7389 </r>
       <r>     2.2113   101.3124    90.3577 </r>
       <r>     2.2569   100.7182    94.9493 </r>
       <r>     2.3025   102.1106    99.6045 </r>
       <r>     2.3481   105.1053   104.3961 </r>
       <r>     2.3937   108.6280   109.3484 </r>
       <r>     2.4392   111.7387   114.4424 </r>
       <r>     2.4848   114.3621   119.6561 </r>
       <r>     2.5304   117.3388   125.0055 </r>
       <r>     2.5760   121.6867   130.5531 </r>
       <r>     2.6216   127.6534   136.3727 </r>
       <r>     2.6672   134.3950   142.4996 </r>
       <r>     2.7128   140.5942   148.9092 </r>
       <r>     2.7584   145.4714   155.5411 </r>
       <r>     2.8040   149.2889   162.3471 </r>
       <r>     2.8495   152.9432   169.3196 </r>
       <r>     2.8951   157.0666   176.4801 </r>
       <r>     2.9407   161.4308   183.8396 </r>
       <r>     2.9863   165.0933   191.3661 </r>
       <r>     3.0319   167.0621   198.9823 </r>
       <r>     3.0775   166.8943   206.5908 </r>
       <r>     3.1231   164.8259   214.1051 </r>
       <r>     3.1687   161.4950   221.4675 </r>
       <r>     3.2143   157.6188   228.6532 </r>
       <r>     3.2598   153.8763   235.6683 </r>
       <r>     3.3054   150.9252   242.5489 </r>
       <r>     3.3510   149.3056   249.3556 </r>
       <r>     3.3966   149.1602   256.1556 </r>
       <r>     3.4422   149.9996   262.9940 </r>
       <r>     3.4878   150.8003   269.8688 </r>
       <r>     3.5334   150.4691   276.7286 </r>
       <r>     3.5790   148.4030   283.4941 </r>
       <r>     3.6246   144.8103   290.0959 </r>
       <r>     3.6701   140.6276   296.5070 </r>
       <r>     3.7157   137.0729   302.7560 </r>
       <r>     3.7613   135.0099   308.9110 </r>
       <r>     3.8069   134.4178   315.0390 </r>
       <r>     3.8525   134.3232   321.1627 </r>
       <r>     3.8981   133.3989   327.2442 </r>
       <r>     3.9437   130.9732   333.2152 </r>
       <r>     3.9893   127.7472   339.0391 </r>
       <r>     4.0349   125.5674   344.7636 </r>
       <r>     4.0804   126.2983   350.5214 </r>
       <r>     4.1260   130.6334   356.4768 </r>
       <r>     4.1716   137.8021   362.7591 </r>
       <r>     4.2172   146.3505   369.4311 </r>
       <r>     4.2628   155.1961   376.5064 </r>
       <r>     4.3084   163.9578   383.9810 </r>
       <r>     4.3540   172.3668   391.8391 </r>
       <r>     4.3996   179.5378   400.0241 </r>
       <r>     4.4452   183.9981   408.4124 </r>
       <r>     4.4908   184.5809   416.8272 </r>
       <r>     4.5363   181.4493   425.0994 </r>
       <r>     4.5819   176.4329   433.1428 </r>
       <r>     4.6275   172.4333   441.0039 </r>
       <r>     4.6731   172.2545   448.8568 </r>
       <r>     4.7187   177.4425   456.9462 </r>
       <r>     4.7643   187.6216   465.4997 </r>
       <r>     4.8099   200.6074   474.6452 </r>
       <r>     4.8555   213.2765   484.3683 </r>
       <r>     4.9011   222.8266   494.5268 </r>
       <r>     4.9466   227.8349   504.9136 </r>
       <r>     4.9922   228.6280   515.3365 </r>
       <r>     5.0378   226.8807   525.6798 </r>
       <r>     5.0834   224.7929   535.9279 </r>
       <r>     5.1290   224.3259   546.1547 </r>
       <r>     5.1746   226.7716   556.4931 </r>
       <r>     5.2202   232.5633   567.0954 </r>
       <r>     5.2658   241.0819   578.0861 </r>
       <r>     5.3114   250.4379   589.5034 </r>
       <r>     5.3569   257.5844   601.2464 </r>
       <r>     5.4025   259.1617   613.0614 </r>
       <r>     5.4481   252.9594   624.5936 </r>
       <r>     5.4937   239.2041   635.4987 </r>
       <r>     5.5393   220.7267   645.5614 </r>
       <r>     5.5849   201.7004   654.7567 </r>
       <r>     5.6305   185.6331   663.2196 </r>
       <r>     5.6761   173.8692   671.1461 </r>
       <r>     5.7217   165.5114   678.6916 </r>
       <r>     5.7672   158.6773   685.9256 </r>
       <r>     5.8128   152.1156   692.8604 </r>
       <r>     5.8584   146.0941   699.5207 </r>
       <r>     5.9040   142.1202   705.9998 </r>
       <r>     5.9496   141.8680   712.4675 </r>
       <r>     5.9952   146.0819   719.1272 </r>
       <r>     6.0408   154.0667   726.1510 </r>
       <r>     6.0864   163.9655   733.6260 </r>
       <r>     6.1320   173.6420   741.5422 </r>
       <r>     6.1775   181.6996   749.8257 </r>
       <r>     6.2231   188.0386   758.3982 </r>
       <r>     6.2687   193.5362   767.2214 </r>
       <r>     6.3143   199.0293   776.2950 </r>
       <r>     6.3599   204.3959   785.6132 </r>
       <r>     6.4055   208.5536   795.1210 </r>
       <r>     6.4511   210.4161   804.7136 </r>
       <r>     6.4967   209.9263   814.2840 </r>
       <r>     6.5423   208.1391   823.7729 </r>
       <r>     6.5878   206.1894   833.1729 </r>
       <r>     6.6334   204.0847   842.4769 </r>
       <r>     6.6790   200.5305   851.6189 </r>
       <r>     6.7246   194.1172   860.4685 </r>
       <r>     6.7702   184.9290   868.8993 </r>
       <r>     6.8158   175.1480   876.8841 </r>
       <r>     6.8614   167.9986   884.5430 </r>
       <r>     6.9070   165.7580   892.0998 </r>
       <r>     6.9526   168.3543   899.7749 </r>
       <r>     6.9982   173.5874   907.6886 </r>
       <r>     7.0437   178.7012   915.8354 </r>
       <r>     7.0893   182.0346   924.1342 </r>
       <r>     7.1349   183.6210   932.5053 </r>
       <r>     7.1805   184.6364   940.9228 </r>
       <r>     7.2261   186.4996   949.4251 </r>
       <r>     7.2717   190.4190   958.1061 </r>
       <r>     7.3173   197.4402   967.1073 </r>
       <r>     7.3629   208.4011   976.6081 </r>
       <r>     7.4085   223.2536   986.7860 </r>
       <r>     7.4540   239.8893   997.7224 </r>
       <r>     7.4996   253.3606  1009.2728 </r>
       <r>     7.5452   256.6052  1020.9712 </r>
       <r>     7.5908   243.0853  1032.0533 </r>
       <r>     7.6364   210.3243  1041.6418 </r>
       <r>     7.6820   162.1610  1049.0346 </r>
       <r>     7.7276   107.8783  1053.9526 </r>
       <r>     7.7732    58.3569  1056.6131 </r>
       <r>     7.8188    21.5396  1057.5950 </r>
       <r>     7.8643    -0.0947  1057.5907 </r>
       <r>     7.9099    -8.9847  1057.1811 </r>
       <r>     7.9555    -9.9288  1056.7285 </r>
       <r>     8.0011    -7.4713  1056.3879 </r>
       <r>     8.0467    -4.5274  1056.1815 </r>
       <r>     8.0923    -2.3285  1056.0753 </r>
       <r>     8.1379    -1.0404  1056.0279 </r>
       <r>     8.1835    -0.4089  1056.0092 </r>
       <r>     8.2291    -0.1424  1056.0027 </r>
       <r>     8.2746    -0.0442  1056.0007 </r>
       <r>     8.3202    -0.0122  1056.0002 </r>
       <r>     8.3658    -0.0030  1056.0000 </r>
       <r>     8.4114    -0.0007  1056.0000 </r>
       <r>     8.4570    -0.0001  1056.0000 </r>
       <r>     8.5026    -0.0000  1056.0000 </r>
       <r>     8.5482    -0.0000  1056.0000 </r>
       <r>     8.5938    -0.0000  1056.0000 </r>
       <r>     8.6394    -0.0000  1056.0000 </r>
       <r>     8.6849    -0.0000  1056.0000 </r>
       <r>     8.7305    -0.0000  1056.0000 </r>
       <r>     8.7761    -0.0000  1056.0000 </r>
       <r>     8.8217    -0.0000  1056.0000 </r>
       <r>     8.8673    -0.0000  1056.0000 </r>
       <r>     8.9129    -0.0000  1056.0000 </r>
       <r>     8.9585     0.0000  1056.0000 </r>
       <r>     9.0041     0.0000  1056.0000 </r>
       <r>     9.0497     0.0000  1056.0000 </r>
       <r>     9.0952     0.0000  1056.0000 </r>
       <r>     9.1408     0.0000  1056.0000 </r>
       <r>     9.1864     0.0000  1056.0000 </r>
       <r>     9.2320     0.0000  1056.0000 </r>
       <r>     9.2776     0.0000  1056.0000 </r>
       <r>     9.3232     0.0000  1056.0000 </r>
       <r>     9.3688     0.0000  1056.0000 </r>
       <r>     9.4144     0.0000  1056.0000 </r>
       <r>     9.4600     0.0000  1056.0000 </r>
       <r>     9.5056     0.0000  1056.0000 </r>
       <r>     9.5511     0.0000  1056.0000 </r>
       <r>     9.5967     0.0000  1056.0000 </r>
       <r>     9.6423     0.0000  1056.0000 </r>
       <r>     9.6879     0.0000  1056.0000 </r>
      </set>
     </set>
    </array>
   </total>
  </dos>
 </calculation>
 <structure name="finalpos" >
  <crystal>
   <varray name="basis" >
    <v>      10.33484705       0.00000000       0.00000000 </v>
    <v>       0.00000000      10.33484705       0.00000000 </v>
    <v>       0.00000000       0.00000000      10.33484705 </v>
   </varray>
   <i name="volume">   1103.85533447 </i>
   <varray name="rec_basis" >
    <v>       0.09676002       0.00000000       0.00000000 </v>
    <v>       0.00000000       0.09676002       0.00000000 </v>
    <v>       0.00000000       0.00000000       0.09676002 </v>
   </varray>
  </crystal>
  <varray name="positions" >
   <v>       0.99999938       0.00000098       0.00016562 </v>
   <v>       0.99999934       0.16650171       0.16666795 </v>
   <v>       0.99999944       0.33376685       0.99980627 </v>
   <v>       0.99999930       0.49999902       0.16666782 </v>
   <v>       0.99999934       0.66623220       0.99980624 </v>
   <v>       0.99999930       0.83349920       0.16666804 </v>
   <v>       0.99999926       0.00000094       0.33316834 </v>
   <v>       0.99999929       0.16686131       0.50043282 </v>
   <v>       0.99999932       0.33376689       0.33352795 </v>
   <v>       0.99999942       0.49999901       0.50045706 </v>
   <v>       0.99999924       0.66623220       0.33352798 </v>
   <v>       0.99999935       0.83313964       0.50043280 </v>
   <v>       0.99999934       0.00000094       0.66666541 </v>
   <v>       0.99999937       0.16686130       0.83289896 </v>
   <v>       0.99999946       0.33379006       0.66666536 </v>
   <v>       0.99999948       0.49999895       0.83287482 </v>
   <v>       0.99999946       0.66620903       0.66666528 </v>
   <v>       0.99999940       0.83313970       0.83289890 </v>
   <v>       0.16650234       0.00000098       0.16666790 </v>
   <v>       0.16641578       0.16641522       0.00025253 </v>
   <v>       0.16641576       0.83358588       0.00025250 </v>
   <v>       0.16655682       0.33319083       0.49985824 </v>
   <v>       0.16866287       0.49999901       0.33532981 </v>
   <v>       0.16655664       0.66680837       0.49985819 </v>
   <v>       0.16686199       0.00000091       0.83289887 </v>
   <v>       0.16850551       0.49999888       0.66666533 </v>
   <v>       0.16686172       0.33376669       0.16666777 </v>
   <v>       0.16686169       0.66623236       0.16666783 </v>
   <v>       0.16641583       0.16641530       0.33308135 </v>
   <v>       0.16641579       0.83358573       0.33308146 </v>
   <v>       0.16866051       0.16865981       0.66666471 </v>
   <v>       0.16655674       0.33319051       0.83347364 </v>
   <v>       0.16655659       0.66680864       0.83347363 </v>
   <v>       0.16866046       0.83134129       0.66666454 </v>
   <v>       0.16866304       0.49999894       0.99800449 </v>
   <v>       0.16686195       0.00000085       0.50043296 </v>
   <v>       0.33376897       0.00000098       0.99980620 </v>
   <v>       0.33376876       0.16686111       0.16666781 </v>
   <v>       0.33376876       0.83313992       0.16666782 </v>
   <v>       0.33319337       0.33319112       0.33322327 </v>
   <v>       0.33319325       0.66680797       0.33322314 </v>
   <v>       0.33319273       0.16655616       0.83347357 </v>
   <v>       0.33430839       0.33430480       0.66666817 </v>
   <v>       0.33430668       0.66569446       0.66666883 </v>
   <v>       0.33319257       0.83344508       0.83347361 </v>
   <v>       0.33319318       0.33319103       0.00011123 </v>
   <v>       0.33379238       0.49999892       0.16666764 </v>
   <v>       0.33319316       0.66680805       0.00011136 </v>
   <v>       0.33376905       0.00000097       0.33352799 </v>
   <v>       0.33319309       0.16655633       0.49985827 </v>
   <v>       0.33319287       0.83344492       0.49985821 </v>
   <v>       0.33379221       0.00000092       0.66666541 </v>
   <v>       0.33430824       0.49999881       0.83235635 </v>
   <v>       0.50000051       0.00000098       0.16666779 </v>
   <v>       0.50000037       0.16866242       0.99800443 </v>
   <v>       0.50000050       0.33379024       0.16666768 </v>
   <v>       0.50000047       0.49999884       0.99816283 </v>
   <v>       0.50000055       0.66620880       0.16666764 </v>
   <v>       0.50000048       0.83133868       0.99800433 </v>
   <v>       0.50000055       0.00000093       0.50045712 </v>
   <v>       0.50000045       0.16866231       0.33532986 </v>
   <v>       0.50000156       0.33430527       0.50097546 </v>
   <v>       0.50000056       0.49999884       0.33517210 </v>
   <v>       0.50000227       0.66569247       0.50097524 </v>
   <v>       0.50000054       0.83133880       0.33532973 </v>
   <v>       0.50000044       0.00000093       0.83287479 </v>
   <v>       0.50000048       0.16850497       0.66666532 </v>
   <v>       0.50000144       0.33430502       0.83235656 </v>
   <v>       0.50000144       0.66569406       0.83235684 </v>
   <v>       0.50000048       0.83149653       0.66666525 </v>
   <v>       0.66680710       0.33319110       0.00011134 </v>
   <v>       0.66620806       0.49999897       0.16666768 </v>
   <v>       0.66680723       0.66680809       0.00011153 </v>
   <v>       0.66623142       0.00000089       0.33352798 </v>
   <v>       0.66680733       0.16655630       0.49985828 </v>
   <v>       0.66680750       0.83344500       0.49985811 </v>
   <v>       0.66620819       0.00000091       0.66666527 </v>
   <v>       0.66569199       0.49999880       0.83235629 </v>
   <v>       0.66623164       0.16686108       0.16666788 </v>
   <v>       0.66623167       0.83313991       0.16666786 </v>
   <v>       0.66680703       0.33319119       0.33322331 </v>
   <v>       0.66680723       0.66680798       0.33322310 </v>
   <v>       0.66680763       0.16655615       0.83347349 </v>
   <v>       0.66569322       0.33430460       0.66666872 </v>
   <v>       0.66569359       0.66569449       0.66666867 </v>
   <v>       0.66680775       0.83344513       0.83347367 </v>
   <v>       0.66623137       0.00000087       0.99980625 </v>
   <v>       0.66569288       0.49999774       0.50097509 </v>
   <v>       0.83133624       0.49999904       0.99800452 </v>
   <v>       0.83313726       0.00000091       0.50043285 </v>
   <v>       0.83313754       0.33376671       0.16666790 </v>
   <v>       0.83313752       0.66623237       0.16666792 </v>
   <v>       0.83358344       0.16641525       0.33308141 </v>
   <v>       0.83358338       0.83358570       0.33308146 </v>
   <v>       0.83133880       0.16865969       0.66666452 </v>
   <v>       0.83344258       0.33319042       0.83347361 </v>
   <v>       0.83344275       0.66680870       0.83347372 </v>
   <v>       0.83133882       0.83134137       0.66666436 </v>
   <v>       0.83349693       0.00000094       0.16666806 </v>
   <v>       0.83358357       0.16641517       0.00025257 </v>
   <v>       0.83358347       0.83358583       0.00025260 </v>
   <v>       0.83344235       0.33319077       0.49985815 </v>
   <v>       0.83133636       0.49999908       0.33532958 </v>
   <v>       0.83344258       0.66680837       0.49985799 </v>
   <v>       0.83313734       0.00000094       0.83289883 </v>
   <v>       0.83149375       0.49999887       0.66666519 </v>
   <v>       0.33431120       0.49999883       0.49807325 </v>
  </varray>
  <varray name="selective"  type="logical" >
   <v type="logical" >  F  F  F </v>
   <v type="logical" >  F  F  F </v>
   <v type="logical" >  F  F  F </v>
   <v type="logical" >  F  F  F </v>
   <v type="logical" >  F  F  F </v>
   <v type="logical" >  F  F  F </v>
   <v type="logical" >  F  F  F </v>
   <v type="logical" >  F  F  F </v>
   <v type="logical" >  F  F  F </v>
   <v type="logical" >  F  F  F </v>
   <v type="logical" >  F  F  F </v>
   <v type="logical" >  F  F  F </v>
   <v type="logical" >  F  F  F </v>
   <v type="logical" >  F  F  F </v>
   <v type="logical" >  F  F  F </v>
   <v type="logical" >  F  F  F </v>
   <v type="logical" >  F  F  F </v>
   <v type="logical" >  F  F  F </v>
   <v type="logical" >  F  F  F </v>
   <v type="logical" >  F  F  F </v>
   <v type="logical" >  F  F  F </v>
   <v type="logical" >  F  F  F </v>
   <v type="logical" >  F  F  F </v>
   <v type="logical" >  F  F  F </v>
   <v type="logical" >  F  F  F </v>
   <v type="logical" >  F  F  F </v>
   <v type="logical" >  F  F  F </v>
   <v type="logical" >  F  F  F </v>
   <v type="logical" >  F  F  F </v>
   <v type="logical" >  F  F  F </v>
   <v type="logical" >  F  F  F </v>
   <v type="logical" >  F  F  F </v>
   <v type="logical" >  F  F  F </v>
   <v type="logical" >  F  F  F </v>
   <v type="logical" >  F  F  F </v>
   <v type="logical" >  F  F  F </v>
   <v type="logical" >  F  F  F </v>
   <v type="logical" >  F  F  F </v>
   <v type="logical" >  F  F  F </v>
   <v type="logical" >  F  F  F </v>
   <v type="logical" >  F  F  F </v>
   <v type="logical" >  F  F  F </v>
   <v type="logical" >  F  F  F </v>
   <v type="logical" >  F  F  F </v>
   <v type="logical" >  F  F  F </v>
   <v type="logical" >  F  F  F </v>
   <v type="logical" >  F  F  F </v>
   <v type="logical" >  F  F  F </v>
   <v type="logical" >  F  F  F </v>
   <v type="logical" >  F  F  F </v>
   <v type="logical" >  F  F  F </v>
   <v type="logical" >  F  F  F </v>
   <v type="logical" >  F  F  F </v>
   <v type="logical" >  F  F  F </v>
   <v type="logical" >  F  F  F </v>
   <v type="logical" >  F  F  F </v>
   <v type="logical" >  F  F  F </v>
   <v type="logical" >  F  F  F </v>
   <v type="logical" >  F  F  F </v>
   <v type="logical" >  F  F  F </v>
   <v type="logical" >  F  F  F </v>
   <v type="logical" >  F  F  F </v>
   <v type="logical" >  F  F  F </v>
   <v type="logical" >  F  F  F </v>
   <v type="logical" >  F  F  F </v>
   <v type="logical" >  F  F  F </v>
   <v type="logical" >  F  F  F </v>
   <v type="logical" >  F  F  F </v>
   <v type="logical" >  F  F  F </v>
   <v type="logical" >  F  F  F </v>
   <v type="logical" >  F  F  F </v>
   <v type="logical" >  F  F  F </v>
   <v type="logical" >  F  F  F </v>
   <v type="logical" >  F  F  F </v>
   <v type="logical" >  F  F  F </v>
   <v type="logical" >  F  F  F </v>
   <v type="logical" >  F  F  F </v>
   <v type="logical" >  F  F  F </v>
   <v type="logical" >  F  F  F </v>
   <v type="logical" >  F  F  F </v>
   <v type="logical" >  F  F  F </v>
   <v type="logical" >  F  F  F </v>
   <v type="logical" >  F  F  F </v>
   <v type="logical" >  F  F  F </v>
   <v type="logical" >  F  F  F </v>
   <v type="logical" >  F  F  F </v>
   <v type="logical" >  F  F  F </v>
   <v type="logical" >  F  F  F </v>
   <v type="logical" >  F  F  F </v>
   <v type="logical" >  F  F  F </v>
   <v type="logical" >  F  F  F </v>
   <v type="logical" >  F  F  F </v>
   <v type="logical" >  F  F  F </v>
   <v type="logical" >  F  F  F </v>
   <v type="logical" >  F  F  F </v>
   <v type="logical" >  F  F  F </v>
   <v type="logical" >  F  F  F </v>
   <v type="logical" >  F  F  F </v>
   <v type="logical" >  F  F  F </v>
   <v type="logical" >  F  F  F </v>
   <v type="logical" >  F  F  F </v>
   <v type="logical" >  F  F  F </v>
   <v type="logical" >  F  F  F </v>
   <v type="logical" >  F  F  F </v>
   <v type="logical" >  F  F  F </v>
   <v type="logical" >  F  F  F </v>
   <v type="logical" >  T  T  T </v>
  </varray>
  <nose>
   <v>      -3.00000000       0.00000000       0.00010000       0.00010000 </v>
  </nose>
 </structure>
</modeling>
