  107  107    1    1
  0.1031640E+02  0.1033485E-08  0.1033485E-08  0.1033485E-08  0.5000000E-15
  1.000000000000000E-004
  CAR 
 Static                                  
    856     32    514
 
  0.1250000E+00  0.1250000E+00  0.1250000E+00  0.3125000E-01
    1       -1.988593   1.000000
    2       -0.882684   1.000000
    3       -0.882681   1.000000
    4       -0.811652   1.000000
    5       -0.198757   1.000000
    6       -0.198754   1.000000
    7       -0.130875   1.000000
    8        0.133857   1.000000
    9        0.133861   1.000000
   10        0.215480   1.000000
   11        0.730633   1.000000
   12        0.739467   1.000000
   13        0.739471   1.000000
   14        0.765083   1.000000
   15        0.765086   1.000000
   16        0.826334   1.000000
   17        0.906395   1.000000
   18        1.257172   1.000000
   19        1.257173   1.000000
   20        1.271247   1.000000
   21        1.290839   1.000000
   22        1.290844   1.000000
   23        1.377126   1.000000
   24        1.525040   1.000000
   25        1.525041   1.000000
   26        1.571433   1.000000
   27        1.673615   1.000000
   28        1.729617   1.000000
   29        1.729623   1.000000
   30        1.759737   1.000000
   31        1.819459   1.000000
   32        1.839310   1.000000
   33        1.839312   1.000000
   34        1.938005   1.000000
   35        1.938023   1.000000
   36        1.963253   1.000000
   37        2.279110   1.000000
   38        2.279113   1.000000
   39        2.279217   1.000000
   40        2.385304   1.000000
   41        2.387577   1.000000
   42        2.387579   1.000000
   43        2.404962   1.000000
   44        2.404967   1.000000
   45        2.409631   1.000000
   46        2.409646   1.000000
   47        2.419251   1.000000
   48        2.426693   1.000000
   49        2.444945   1.000000
   50        2.445733   1.000000
   51        2.445737   1.000000
   52        2.445967   1.000000
   53        2.456766   1.000000
   54        2.456784   1.000000
   55        2.471211   1.000000
   56        2.473465   1.000000
   57        2.473470   1.000000
   58        2.520562   1.000000
   59        2.520574   1.000000
   60        2.543612   1.000000
   61        2.547075   1.000000
   62        2.547078   1.000000
   63        2.567966   1.000000
   64        2.568709   1.000000
   65        2.568712   1.000000
   66        2.641275   1.000000
   67        2.641474   1.000000
   68        2.643380   1.000000
   69        2.643382   1.000000
   70        2.663964   1.000000
   71        2.663985   1.000000
   72        2.675909   1.000000
   73        2.679384   1.000000
   74        2.679387   1.000000
   75        2.680243   1.000000
   76        2.700700   1.000000
   77        2.700709   1.000000
   78        2.707122   1.000000
   79        2.737531   1.000000
   80        2.737537   1.000000
   81        2.738884   1.000000
   82        2.740773   1.000000
   83        2.745025   1.000000
   84        2.745030   1.000000
   85        2.781283   1.000000
   86        2.811279   1.000000
   87        2.811291   1.000000
   88        2.850294   1.000000
   89        2.860183   1.000000
   90        2.860187   1.000000
   91        2.914062   1.000000
   92        2.914064   1.000000
   93        2.957884   1.000000
   94        2.977167   1.000000
   95        2.977172   1.000000
   96        2.996076   1.000000
   97        2.996086   1.000000
   98        3.003534   1.000000
   99        3.009918   1.000000
  100        3.015200   1.000000
  101        3.018277   1.000000
  102        3.018279   1.000000
  103        3.074251   1.000000
  104        3.078279   1.000000
  105        3.078286   1.000000
  106        3.097987   1.000000
  107        3.097990   1.000000
  108        3.118996   1.000000
  109        3.126989   1.000000
  110        3.127002   1.000000
  111        3.189715   1.000000
  112        3.228724   1.000000
  113        3.242916   1.000000
  114        3.242924   1.000000
  115        3.255458   1.000000
  116        3.255461   1.000000
  117        3.260019   1.000000
  118        3.297312   1.000000
  119        3.297321   1.000000
  120        3.308085   1.000000
  121        3.362499   1.000000
  122        3.362503   1.000000
  123        3.378957   1.000000
  124        3.378963   1.000000
  125        3.380090   1.000000
  126        3.398747   1.000000
  127        3.398751   1.000000
  128        3.400670   1.000000
  129        3.405500   1.000000
  130        3.405503   1.000000
  131        3.412525   1.000000
  132        3.423461   1.000000
  133        3.430150   1.000000
  134        3.430151   1.000000
  135        3.431902   1.000000
  136        3.470927   1.000000
  137        3.482672   1.000000
  138        3.483855   1.000000
  139        3.483866   1.000000
  140        3.517801   1.000000
  141        3.517805   1.000000
  142        3.525806   1.000000
  143        3.551321   1.000000
  144        3.551338   1.000000
  145        3.594873   1.000000
  146        3.604425   1.000000
  147        3.604426   1.000000
  148        3.630971   1.000000
  149        3.630976   1.000000
  150        3.642991   1.000000
  151        3.658684   1.000000
  152        3.660843   1.000000
  153        3.660848   1.000000
  154        3.664385   1.000000
  155        3.699552   1.000000
  156        3.699568   1.000000
  157        3.715274   1.000000
  158        3.715285   1.000000
  159        3.788768   1.000000
  160        3.815662   1.000000
  161        3.819107   1.000000
  162        3.819114   1.000000
  163        3.835627   1.000000
  164        3.849312   1.000000
  165        3.849313   1.000000
  166        3.899982   1.000000
  167        3.931269   1.000000
  168        3.931276   1.000000
  169        4.021485   1.000000
  170        4.022909   1.000000
  171        4.038808   1.000000
  172        4.038810   1.000000
  173        4.074906   1.000000
  174        4.074919   1.000000
  175        4.178661   1.000000
  176        4.178670   1.000000
  177        4.179527   1.000000
  178        4.188045   1.000000
  179        4.188050   1.000000
  180        4.192858   1.000000
  181        4.217090   1.000000
  182        4.217100   1.000000
  183        4.223236   1.000000
  184        4.226188   1.000000
  185        4.237024   1.000000
  186        4.237038   1.000000
  187        4.256632   1.000000
  188        4.267015   1.000000
  189        4.267022   1.000000
  190        4.294194   1.000000
  191        4.294196   1.000000
  192        4.296333   1.000000
  193        4.355826   1.000000
  194        4.363267   1.000000
  195        4.363275   1.000000
  196        4.364024   1.000000
  197        4.372879   1.000000
  198        4.372884   1.000000
  199        4.385001   1.000000
  200        4.385007   1.000000
  201        4.385986   1.000000
  202        4.389372   1.000000
  203        4.401254   1.000000
  204        4.404792   1.000000
  205        4.404801   1.000000
  206        4.415105   1.000000
  207        4.415111   1.000000
  208        4.429218   1.000000
  209        4.456139   1.000000
  210        4.467140   1.000000
  211        4.467153   1.000000
  212        4.479570   1.000000
  213        4.479575   1.000000
  214        4.518823   1.000000
  215        4.545049   1.000000
  216        4.550105   1.000000
  217        4.550113   1.000000
  218        4.576474   1.000000
  219        4.576482   1.000000
  220        4.613214   1.000000
  221        4.622321   1.000000
  222        4.622330   1.000000
  223        4.700547   1.000000
  224        4.729574   1.000000
  225        4.732065   1.000000
  226        4.732069   1.000000
  227        4.733477   1.000000
  228        4.737933   1.000000
  229        4.737935   1.000000
  230        4.739442   1.000000
  231        4.749199   1.000000
  232        4.749203   1.000000
  233        4.770990   1.000000
  234        4.788940   1.000000
  235        4.788950   1.000000
  236        4.803759   1.000000
  237        4.830636   1.000000
  238        4.830647   1.000000
  239        4.882915   1.000000
  240        4.887077   1.000000
  241        4.887081   1.000000
  242        4.916961   1.000000
  243        4.919115   1.000000
  244        4.919123   1.000000
  245        4.977695   1.000000
  246        4.982139   1.000000
  247        4.982145   1.000000
  248        4.982832   1.000000
  249        4.984303   1.000000
  250        4.984306   1.000000
  251        4.988996   1.000000
  252        4.989005   1.000000
  253        4.990436   1.000000
  254        5.007391   1.000000
  255        5.007398   1.000000
  256        5.011834   1.000000
  257        5.022870   1.000000
  258        5.022873   1.000000
  259        5.040137   1.000000
  260        5.046946   1.000000
  261        5.057659   1.000000
  262        5.057665   1.000000
  263        5.059706   1.000000
  264        5.077378   1.000000
  265        5.077384   1.000000
  266        5.083785   1.000000
  267        5.088525   1.000000
  268        5.088530   1.000000
  269        5.104943   1.000000
  270        5.104948   1.000000
  271        5.106929   1.000000
  272        5.116935   1.000000
  273        5.116938   1.000000
  274        5.136174   1.000000
  275        5.137863   1.000000
  276        5.140496   1.000000
  277        5.140505   1.000000
  278        5.161999   1.000000
  279        5.162005   1.000000
  280        5.163162   1.000000
  281        5.184015   1.000000
  282        5.188511   1.000000
  283        5.188515   1.000000
  284        5.201456   1.000000
  285        5.203744   1.000000
  286        5.203748   1.000000
  287        5.204928   1.000000
  288        5.210143   1.000000
  289        5.210158   1.000000
  290        5.229764   1.000000
  291        5.229767   1.000000
  292        5.231294   1.000000
  293        5.240501   1.000000
  294        5.240502   1.000000
  295        5.258979   1.000000
  296        5.258987   1.000000
  297        5.269563   1.000000
  298        5.269567   1.000000
  299        5.282686   1.000000
  300        5.298940   1.000000
  301        5.307942   1.000000
  302        5.307945   1.000000
  303        5.308716   1.000000
  304        5.327054   1.000000
  305        5.327060   1.000000
  306        5.340553   1.000000
  307        5.398151   1.000000
  308        5.404528   1.000000
  309        5.404557   1.000000
  310        5.457491   1.000000
  311        5.457507   1.000000
  312        5.485717   1.000000
  313        5.498925   1.000000
  314        5.503777   1.000000
  315        5.503779   1.000000
  316        5.513928   1.000000
  317        5.515900   1.000000
  318        5.515909   1.000000
  319        5.518776   1.000000
  320        5.521845   1.000000
  321        5.521847   1.000000
  322        5.535577   1.000000
  323        5.535583   1.000000
  324        5.546547   1.000000
  325        5.549312   1.000000
  326        5.570020   1.000000
  327        5.570026   1.000000
  328        5.580692   1.000000
  329        5.580706   1.000000
  330        5.633525   1.000000
  331        5.656514   1.000000
  332        5.657951   1.000000
  333        5.657955   1.000000
  334        5.659407   1.000000
  335        5.667315   1.000000
  336        5.671628   1.000000
  337        5.671634   1.000000
  338        5.679325   1.000000
  339        5.688964   1.000000
  340        5.688971   1.000000
  341        5.698367   1.000000
  342        5.705951   1.000000
  343        5.705958   1.000000
  344        5.734331   1.000000
  345        5.734333   1.000000
  346        5.736652   1.000000
  347        5.750971   1.000000
  348        5.750976   1.000000
  349        5.765342   1.000000
  350        5.765347   1.000000
  351        5.770199   1.000000
  352        5.780397   1.000000
  353        5.810599   1.000000
  354        5.810604   1.000000
  355        5.818262   1.000000
  356        5.822974   1.000000
  357        5.822976   1.000000
  358        5.840375   1.000000
  359        5.840380   1.000000
  360        5.856198   1.000000
  361        5.899835   1.000000
  362        5.927426   1.000000
  363        5.927430   1.000000
  364        6.000080   1.000004
  365        6.013553   1.000006
  366        6.013556   1.000006
  367        6.037597   1.000014
  368        6.037604   1.000014
  369        6.039066   1.000015
  370        6.116606   1.000142
  371        6.116614   1.000142
  372        6.132004   1.000214
  373        6.147908   1.000322
  374        6.147915   1.000322
  375        6.149686   1.000337
  376        6.155631   1.000392
  377        6.158505   1.000421
  378        6.159405   1.000430
  379        6.159409   1.000430
  380        6.163598   1.000477
  381        6.163604   1.000477
  382        6.165049   1.000494
  383        6.231872   1.002223
  384        6.231874   1.002223
  385        6.239084   1.002574
  386        6.288852   1.006486
  387        6.288853   1.006487
  388        6.332649   1.012796
  389        6.341134   1.014368
  390        6.341137   1.014369
  391        6.346109   1.015340
  392        6.370253   1.020499
  393        6.370254   1.020499
  394        6.406817   1.028827
  395        6.411722   1.029865
  396        6.414038   1.030339
  397        6.414042   1.030340
  398        6.467479   1.034959
  399        6.467480   1.034959
  400        6.489889   1.030138
  401        6.489900   1.030134
  402        6.501093   1.025319
  403        6.532533   1.000606
  404        6.532534   1.000605
  405        6.539353   0.992699
  406        6.544326   0.986295
  407        6.550899   0.976975
  408        6.550906   0.976965
  409        6.567296   0.949278
  410        6.580929   0.921212
  411        6.580939   0.921190
  412        6.599892   0.874385
  413        6.603461   0.864564
  414        6.603466   0.864551
  415        6.605436   0.858997
  416        6.620775   0.812565
  417        6.620783   0.812539
  418        6.668158   0.638787
  419        6.668166   0.638756
  420        6.679661   0.591652
  421        6.682648   0.579229
  422        6.682660   0.579178
  423        6.720067   0.421660
  424        6.720074   0.421631
  425        6.722781   0.410366
  426        6.722832   0.410153
  427        6.766035   0.241926
  428        6.766037   0.241916
  429        6.788988   0.166060
  430        6.795370   0.147096
  431        6.795375   0.147079
  432        6.797325   0.141480
  433        6.808915   0.110130
  434        6.821104   0.080795
  435        6.821109   0.080785
  436        6.837496   0.047246
  437        6.845048   0.034026
  438        6.845055   0.034016
  439        6.905556  -0.027122
  440        6.905559  -0.027123
  441        6.945558  -0.035455
  442        6.949076  -0.035431
  443        6.949079  -0.035431
  444        6.955017  -0.035189
  445        6.957450  -0.035023
  446        6.957456  -0.035022
  447        6.969293  -0.033740
  448        6.969295  -0.033740
  449        6.974978  -0.032889
  450        6.978893  -0.032232
  451        6.978896  -0.032231
  452        6.990691  -0.029972
  453        6.990694  -0.029971
  454        6.992451  -0.029606
  455        6.997149  -0.028602
  456        7.008929  -0.025961
  457        7.014719  -0.024627
  458        7.014721  -0.024626
  459        7.025633  -0.022105
  460        7.043099  -0.018193
  461        7.043103  -0.018192
  462        7.054128  -0.015880
  463        7.054131  -0.015880
  464        7.058993  -0.014911
  465        7.082613  -0.010711
  466        7.082617  -0.010710
  467        7.122738  -0.005585
  468        7.128993  -0.004998
  469        7.128998  -0.004998
  470        7.142586  -0.003893
  471        7.146843  -0.003591
  472        7.146845  -0.003591
  473        7.151691  -0.003272
  474        7.163990  -0.002566
  475        7.163993  -0.002566
  476        7.174289  -0.002079
  477        7.212296  -0.000906
  478        7.218828  -0.000779
  479        7.218831  -0.000779
  480        7.235622  -0.000522
  481        7.247477  -0.000390
  482        7.247478  -0.000390
  483        7.270486  -0.000216
  484        7.275004  -0.000192
  485        7.275006  -0.000192
  486        7.276646  -0.000184
  487        7.298687  -0.000101
  488        7.298691  -0.000101
  489        7.305505  -0.000083
  490        7.306918  -0.000080
  491        7.306921  -0.000080
  492        7.331998  -0.000039
  493        7.349852  -0.000023
  494        7.349886  -0.000023
  495        7.352794  -0.000021
  496        7.352810  -0.000021
  497        7.376140  -0.000010
  498        7.377246  -0.000010
  499        7.377398  -0.000010
  500        7.381165  -0.000008
  501        7.381331  -0.000008
  502        7.390839  -0.000006
  503        7.441607  -0.000001
  504        7.443041  -0.000001
  505        7.449466  -0.000001
  506        7.449865  -0.000001
  507        7.456392  -0.000001
  508        7.479622  -0.000000
  509        7.481854  -0.000000
  510        7.486866  -0.000000
  511        7.493951  -0.000000
  512        7.501703  -0.000000
  513        7.538832  -0.000000
  514        7.674070  -0.000000
 
  0.3750000E+00  0.1250000E+00  0.1250000E+00  0.3125000E-01
    1       -1.794455   1.000000
    2       -1.408183   1.000000
    3       -0.705410   1.000000
    4       -0.662419   1.000000
    5       -0.360079   1.000000
    6       -0.309140   1.000000
    7       -0.032922   1.000000
    8        0.012917   1.000000
    9        0.279620   1.000000
   10        0.287330   1.000000
   11        0.350226   1.000000
   12        0.533245   1.000000
   13        0.583599   1.000000
   14        0.847396   1.000000
   15        0.872261   1.000000
   16        1.025195   1.000000
   17        1.053224   1.000000
   18        1.264343   1.000000
   19        1.349293   1.000000
   20        1.402861   1.000000
   21        1.427569   1.000000
   22        1.467329   1.000000
   23        1.678384   1.000000
   24        1.805304   1.000000
   25        1.810536   1.000000
   26        1.821121   1.000000
   27        1.864331   1.000000
   28        1.865757   1.000000
   29        1.875403   1.000000
   30        1.884771   1.000000
   31        1.908888   1.000000
   32        1.947030   1.000000
   33        1.955127   1.000000
   34        1.981188   1.000000
   35        2.024782   1.000000
   36        2.030082   1.000000
   37        2.043169   1.000000
   38        2.061664   1.000000
   39        2.076340   1.000000
   40        2.084641   1.000000
   41        2.097606   1.000000
   42        2.114111   1.000000
   43        2.132282   1.000000
   44        2.155840   1.000000
   45        2.174413   1.000000
   46        2.198760   1.000000
   47        2.222529   1.000000
   48        2.248824   1.000000
   49        2.324130   1.000000
   50        2.326426   1.000000
   51        2.402028   1.000000
   52        2.416549   1.000000
   53        2.433470   1.000000
   54        2.435788   1.000000
   55        2.437510   1.000000
   56        2.456312   1.000000
   57        2.465039   1.000000
   58        2.471611   1.000000
   59        2.495229   1.000000
   60        2.511717   1.000000
   61        2.522152   1.000000
   62        2.550337   1.000000
   63        2.559194   1.000000
   64        2.564836   1.000000
   65        2.575943   1.000000
   66        2.600690   1.000000
   67        2.607353   1.000000
   68        2.640432   1.000000
   69        2.641470   1.000000
   70        2.651080   1.000000
   71        2.665547   1.000000
   72        2.670388   1.000000
   73        2.671724   1.000000
   74        2.684332   1.000000
   75        2.694751   1.000000
   76        2.706142   1.000000
   77        2.719740   1.000000
   78        2.735431   1.000000
   79        2.747154   1.000000
   80        2.757896   1.000000
   81        2.777968   1.000000
   82        2.818873   1.000000
   83        2.823527   1.000000
   84        2.829920   1.000000
   85        2.830962   1.000000
   86        2.838554   1.000000
   87        2.852189   1.000000
   88        2.860842   1.000000
   89        2.863665   1.000000
   90        2.882619   1.000000
   91        2.894466   1.000000
   92        2.924243   1.000000
   93        2.939889   1.000000
   94        2.944822   1.000000
   95        2.951008   1.000000
   96        2.959926   1.000000
   97        2.963458   1.000000
   98        2.985453   1.000000
   99        2.995971   1.000000
  100        3.005366   1.000000
  101        3.059109   1.000000
  102        3.066265   1.000000
  103        3.074965   1.000000
  104        3.085654   1.000000
  105        3.114856   1.000000
  106        3.130875   1.000000
  107        3.133599   1.000000
  108        3.136392   1.000000
  109        3.144831   1.000000
  110        3.156944   1.000000
  111        3.179271   1.000000
  112        3.181298   1.000000
  113        3.203482   1.000000
  114        3.207473   1.000000
  115        3.215752   1.000000
  116        3.242406   1.000000
  117        3.243961   1.000000
  118        3.249911   1.000000
  119        3.259135   1.000000
  120        3.295614   1.000000
  121        3.313092   1.000000
  122        3.331211   1.000000
  123        3.357099   1.000000
  124        3.364962   1.000000
  125        3.367308   1.000000
  126        3.402302   1.000000
  127        3.420293   1.000000
  128        3.421955   1.000000
  129        3.432343   1.000000
  130        3.437745   1.000000
  131        3.462259   1.000000
  132        3.465494   1.000000
  133        3.468036   1.000000
  134        3.482841   1.000000
  135        3.490473   1.000000
  136        3.499488   1.000000
  137        3.512289   1.000000
  138        3.535678   1.000000
  139        3.541522   1.000000
  140        3.552935   1.000000
  141        3.557648   1.000000
  142        3.564184   1.000000
  143        3.573335   1.000000
  144        3.587907   1.000000
  145        3.589951   1.000000
  146        3.598912   1.000000
  147        3.631917   1.000000
  148        3.663549   1.000000
  149        3.670198   1.000000
  150        3.707318   1.000000
  151        3.710616   1.000000
  152        3.723257   1.000000
  153        3.746249   1.000000
  154        3.750250   1.000000
  155        3.750571   1.000000
  156        3.799706   1.000000
  157        3.817747   1.000000
  158        3.820391   1.000000
  159        3.833407   1.000000
  160        3.837219   1.000000
  161        3.849459   1.000000
  162        3.857245   1.000000
  163        3.876656   1.000000
  164        3.879209   1.000000
  165        3.898721   1.000000
  166        3.900976   1.000000
  167        3.917100   1.000000
  168        3.926968   1.000000
  169        3.953116   1.000000
  170        3.963648   1.000000
  171        3.965510   1.000000
  172        3.972534   1.000000
  173        4.002458   1.000000
  174        4.013382   1.000000
  175        4.030581   1.000000
  176        4.041955   1.000000
  177        4.059950   1.000000
  178        4.085650   1.000000
  179        4.097265   1.000000
  180        4.125533   1.000000
  181        4.133150   1.000000
  182        4.145352   1.000000
  183        4.159263   1.000000
  184        4.172174   1.000000
  185        4.177359   1.000000
  186        4.183610   1.000000
  187        4.210505   1.000000
  188        4.219416   1.000000
  189        4.238486   1.000000
  190        4.252746   1.000000
  191        4.253659   1.000000
  192        4.274449   1.000000
  193        4.327492   1.000000
  194        4.343015   1.000000
  195        4.346448   1.000000
  196        4.358775   1.000000
  197        4.365661   1.000000
  198        4.385766   1.000000
  199        4.389871   1.000000
  200        4.402127   1.000000
  201        4.404416   1.000000
  202        4.424892   1.000000
  203        4.433580   1.000000
  204        4.434690   1.000000
  205        4.461194   1.000000
  206        4.480385   1.000000
  207        4.486466   1.000000
  208        4.503271   1.000000
  209        4.506043   1.000000
  210        4.510090   1.000000
  211        4.513450   1.000000
  212        4.524035   1.000000
  213        4.547779   1.000000
  214        4.548858   1.000000
  215        4.560725   1.000000
  216        4.578860   1.000000
  217        4.592117   1.000000
  218        4.604875   1.000000
  219        4.610575   1.000000
  220        4.614842   1.000000
  221        4.618509   1.000000
  222        4.639323   1.000000
  223        4.654072   1.000000
  224        4.688002   1.000000
  225        4.703739   1.000000
  226        4.721873   1.000000
  227        4.721946   1.000000
  228        4.737327   1.000000
  229        4.763669   1.000000
  230        4.781338   1.000000
  231        4.790888   1.000000
  232        4.796323   1.000000
  233        4.802410   1.000000
  234        4.802441   1.000000
  235        4.811472   1.000000
  236        4.815486   1.000000
  237        4.817224   1.000000
  238        4.823910   1.000000
  239        4.832750   1.000000
  240        4.840462   1.000000
  241        4.854904   1.000000
  242        4.860397   1.000000
  243        4.872821   1.000000
  244        4.875048   1.000000
  245        4.879582   1.000000
  246        4.884684   1.000000
  247        4.897333   1.000000
  248        4.907726   1.000000
  249        4.911265   1.000000
  250        4.913452   1.000000
  251        4.938018   1.000000
  252        4.945364   1.000000
  253        4.949811   1.000000
  254        4.950793   1.000000
  255        4.961621   1.000000
  256        4.972518   1.000000
  257        4.983382   1.000000
  258        4.987190   1.000000
  259        4.996923   1.000000
  260        5.010083   1.000000
  261        5.014024   1.000000
  262        5.016656   1.000000
  263        5.041111   1.000000
  264        5.051233   1.000000
  265        5.053392   1.000000
  266        5.069783   1.000000
  267        5.090521   1.000000
  268        5.099650   1.000000
  269        5.122484   1.000000
  270        5.125900   1.000000
  271        5.132753   1.000000
  272        5.137073   1.000000
  273        5.154767   1.000000
  274        5.160899   1.000000
  275        5.167819   1.000000
  276        5.176252   1.000000
  277        5.185577   1.000000
  278        5.195720   1.000000
  279        5.201285   1.000000
  280        5.210335   1.000000
  281        5.217277   1.000000
  282        5.219017   1.000000
  283        5.225143   1.000000
  284        5.232066   1.000000
  285        5.232435   1.000000
  286        5.243776   1.000000
  287        5.244369   1.000000
  288        5.257475   1.000000
  289        5.258012   1.000000
  290        5.273553   1.000000
  291        5.274654   1.000000
  292        5.309703   1.000000
  293        5.315003   1.000000
  294        5.327197   1.000000
  295        5.330512   1.000000
  296        5.339492   1.000000
  297        5.340043   1.000000
  298        5.341716   1.000000
  299        5.345640   1.000000
  300        5.355419   1.000000
  301        5.359872   1.000000
  302        5.367080   1.000000
  303        5.370023   1.000000
  304        5.375981   1.000000
  305        5.377599   1.000000
  306        5.389405   1.000000
  307        5.391728   1.000000
  308        5.401219   1.000000
  309        5.412347   1.000000
  310        5.417876   1.000000
  311        5.432727   1.000000
  312        5.435121   1.000000
  313        5.437424   1.000000
  314        5.444204   1.000000
  315        5.450357   1.000000
  316        5.453533   1.000000
  317        5.455155   1.000000
  318        5.469350   1.000000
  319        5.472536   1.000000
  320        5.489876   1.000000
  321        5.495111   1.000000
  322        5.503038   1.000000
  323        5.503284   1.000000
  324        5.517051   1.000000
  325        5.519999   1.000000
  326        5.526237   1.000000
  327        5.538166   1.000000
  328        5.555076   1.000000
  329        5.565957   1.000000
  330        5.572240   1.000000
  331        5.578679   1.000000
  332        5.579355   1.000000
  333        5.596187   1.000000
  334        5.631252   1.000000
  335        5.634135   1.000000
  336        5.641007   1.000000
  337        5.654809   1.000000
  338        5.676042   1.000000
  339        5.695760   1.000000
  340        5.703084   1.000000
  341        5.730427   1.000000
  342        5.745237   1.000000
  343        5.757931   1.000000
  344        5.766855   1.000000
  345        5.773273   1.000000
  346        5.777342   1.000000
  347        5.788783   1.000000
  348        5.792307   1.000000
  349        5.797850   1.000000
  350        5.799885   1.000000
  351        5.861225   1.000000
  352        5.870954   1.000000
  353        5.908214   1.000000
  354        5.913115   1.000000
  355        5.951553   1.000001
  356        5.967634   1.000001
  357        5.988434   1.000003
  358        5.992062   1.000003
  359        6.004462   1.000005
  360        6.013100   1.000006
  361        6.026220   1.000010
  362        6.046810   1.000019
  363        6.054151   1.000023
  364        6.058579   1.000027
  365        6.072061   1.000040
  366        6.076046   1.000045
  367        6.097236   1.000083
  368        6.113082   1.000129
  369        6.122804   1.000167
  370        6.137448   1.000246
  371        6.144943   1.000299
  372        6.145709   1.000305
  373        6.151965   1.000357
  374        6.158199   1.000417
  375        6.169336   1.000548
  376        6.175588   1.000637
  377        6.183479   1.000768
  378        6.190190   1.000897
  379        6.194754   1.000995
  380        6.197281   1.001054
  381        6.216207   1.001599
  382        6.223619   1.001872
  383        6.225650   1.001954
  384        6.225694   1.001956
  385        6.232990   1.002274