<?xml version="1.0" encoding="ISO-8859-1"?>
<modeling>
 <generator>
  <i name="program" type="string">vasp </i>
  <i name="version" type="string">5.4.4.18Apr17-6-g9f103f2a35  </i>
  <i name="subversion" type="string">(build Aug 17 2017 06:00:38) complex            parallel </i>
  <i name="platform" type="string">LinuxIFC </i>
  <i name="date" type="string">2019 07 14 </i>
  <i name="time" type="string">02:33:54 </i>
 </generator>
 <incar>
  <i type="string" name="SYSTEM">Static</i>
  <i type="int" name="ISTART">     0</i>
  <i type="string" name="PREC">normal</i>
  <i type="string" name="ALGO"> Fast</i>
  <i type="int" name="ISPIN">     1</i>
  <i type="int" name="ICHARG">     2</i>
  <i type="int" name="NELM">   400</i>
  <i type="int" name="IBRION">    -1</i>
  <i name="EDIFF">      0.00000100</i>
  <i type="int" name="NSW">     1</i>
  <i type="int" name="ISIF">     2</i>
  <i type="int" name="ISYM">     0</i>
  <i name="ENCUT">    400.00000000</i>
  <i type="int" name="NGX">    72</i>
  <i type="int" name="NGY">    72</i>
  <i type="int" name="NGZ">    72</i>
  <i name="POTIM">      0.50000000</i>
  <i type="string" name="LREAL">Auto</i>
  <i type="logical" name="LWAVE"> F  </i>
  <i type="logical" name="LCHARG"> F  </i>
  <v type="int" name="KPOINT_BSE">    -1     0     0     0</v>
  <i type="int" name="NELM">   400</i>
 </incar>
 <structure name="primitive_cell" >
  <crystal>
   <varray name="basis" >
    <v>      10.33484705       0.00000000       0.00000000 </v>
    <v>       0.00000000      10.33484705       0.00000000 </v>
    <v>       0.00000000       0.00000000      10.33484705 </v>
   </varray>
   <i name="volume">   1103.85533447 </i>
   <varray name="rec_basis" >
    <v>       0.09676002       0.00000000       0.00000000 </v>
    <v>       0.00000000       0.09676002       0.00000000 </v>
    <v>       0.00000000       0.00000000       0.09676002 </v>
   </varray>
  </crystal>
  <varray name="positions" >
   <v>      -0.00000062       0.00000098       0.00016562 </v>
   <v>      -0.16641643       0.16641517       0.00025257 </v>
   <v>       0.16641578       0.16641522       0.00025253 </v>
   <v>      -0.16641653      -0.16641417       0.00025260 </v>
   <v>       0.16641576      -0.16641412       0.00025250 </v>
   <v>      -0.00000066       0.16650171       0.16666795 </v>
   <v>      -0.00000070      -0.16650080       0.16666804 </v>
   <v>      -0.16650307       0.00000094       0.16666806 </v>
   <v>       0.16650234       0.00000098       0.16666790 </v>
   <v>      -0.00000063       0.16686130      -0.16710104 </v>
   <v>      -0.00000060      -0.16686030      -0.16710110 </v>
   <v>      -0.16686266       0.00000094      -0.16710117 </v>
   <v>       0.16686199       0.00000091      -0.16710113 </v>
   <v>      -0.00000074       0.00000094       0.33316834 </v>
   <v>      -0.00000066       0.00000094      -0.33333459 </v>
   <v>      -0.00000056       0.33376685      -0.00019373 </v>
   <v>      -0.33376863       0.00000087      -0.00019375 </v>
   <v>      -0.00000066      -0.33376780      -0.00019376 </v>
   <v>       0.33376897       0.00000098      -0.00019380 </v>
   <v>      -0.16641656       0.16641525       0.33308141 </v>
   <v>       0.16641583       0.16641530       0.33308135 </v>
   <v>      -0.16641662      -0.16641430       0.33308146 </v>
   <v>       0.16641579      -0.16641427       0.33308146 </v>
   <v>      -0.16655742       0.33319042      -0.16652639 </v>
   <v>       0.16655674       0.33319051      -0.16652636 </v>
   <v>      -0.33319237       0.16655615      -0.16652651 </v>
   <v>      -0.33319225      -0.16655487      -0.16652633 </v>
   <v>      -0.16655725      -0.33319130      -0.16652628 </v>
   <v>       0.16655659      -0.33319136      -0.16652637 </v>
   <v>       0.33319273       0.16655616      -0.16652643 </v>
   <v>       0.33319257      -0.16655492      -0.16652639 </v>
   <v>      -0.16686246       0.33376671       0.16666790 </v>
   <v>       0.16686172       0.33376669       0.16666777 </v>
   <v>      -0.33376836       0.16686108       0.16666788 </v>
   <v>      -0.33376833      -0.16686009       0.16666786 </v>
   <v>       0.33376876       0.16686111       0.16666781 </v>
   <v>      -0.16686248      -0.33376763       0.16666792 </v>
   <v>       0.16686169      -0.33376764       0.16666783 </v>
   <v>       0.33376876      -0.16686008       0.16666782 </v>
   <v>      -0.16866120       0.16865969      -0.33333548 </v>
   <v>       0.16866051       0.16865981      -0.33333529 </v>
   <v>      -0.16866118      -0.16865863      -0.33333564 </v>
   <v>       0.16866046      -0.16865871      -0.33333546 </v>
   <v>      -0.33319290       0.33319110       0.00011134 </v>
   <v>       0.33319318       0.33319103       0.00011123 </v>
   <v>      -0.33319277      -0.33319191       0.00011153 </v>
   <v>       0.33319316      -0.33319195       0.00011136 </v>
   <v>      -0.00000068       0.33376689       0.33352795 </v>
   <v>      -0.33376858       0.00000089       0.33352798 </v>
   <v>      -0.00000076      -0.33376780       0.33352798 </v>
   <v>       0.33376905       0.00000097       0.33352799 </v>
   <v>      -0.00000054       0.33379006      -0.33333464 </v>
   <v>      -0.33379181       0.00000091      -0.33333473 </v>
   <v>      -0.00000054      -0.33379097      -0.33333472 </v>
   <v>       0.33379221       0.00000092      -0.33333459 </v>
   <v>      -0.00000071       0.16686131      -0.49956718 </v>
   <v>      -0.00000065      -0.16686036      -0.49956720 </v>
   <v>      -0.16686274       0.00000091      -0.49956715 </v>
   <v>       0.16686195       0.00000085      -0.49956704 </v>
   <v>      -0.00000070       0.49999902       0.16666782 </v>
   <v>      -0.49999949       0.00000098       0.16666779 </v>
   <v>      -0.00000052       0.49999895      -0.16712518 </v>
   <v>      -0.49999956       0.00000093      -0.16712521 </v>
   <v>      -0.16866376       0.49999904      -0.00199548 </v>
   <v>       0.16866304       0.49999894      -0.00199551 </v>
   <v>      -0.49999963       0.16866242      -0.00199557 </v>
   <v>      -0.49999952      -0.16866132      -0.00199567 </v>
   <v>      -0.33319297       0.33319119       0.33322331 </v>
   <v>       0.33319337       0.33319112       0.33322327 </v>
   <v>      -0.33319277      -0.33319202       0.33322310 </v>
   <v>       0.33319325      -0.33319203       0.33322314 </v>
   <v>      -0.33430678       0.33430460      -0.33333128 </v>
   <v>      -0.33430641      -0.33430551      -0.33333133 </v>
   <v>       0.33430839       0.33430480      -0.33333183 </v>
   <v>       0.33430668      -0.33430554      -0.33333117 </v>
   <v>      -0.16655765       0.33319077       0.49985815 </v>
   <v>       0.16655682       0.33319083       0.49985824 </v>
   <v>      -0.33319250      -0.16655500       0.49985811 </v>
   <v>      -0.33319267       0.16655630       0.49985828 </v>
   <v>      -0.16655742      -0.33319163       0.49985799 </v>
   <v>       0.16655664      -0.33319163       0.49985819 </v>
   <v>       0.33319309       0.16655633       0.49985827 </v>
   <v>       0.33319287      -0.16655508       0.49985821 </v>
   <v>      -0.49999950       0.33379024       0.16666768 </v>
   <v>      -0.33379194       0.49999897       0.16666768 </v>
   <v>       0.33379238       0.49999892       0.16666764 </v>
   <v>      -0.49999945      -0.33379120       0.16666764 </v>
   <v>      -0.16850625       0.49999887      -0.33333481 </v>
   <v>       0.16850551       0.49999888      -0.33333467 </v>
   <v>      -0.49999952       0.16850497      -0.33333468 </v>
   <v>      -0.49999952      -0.16850347      -0.33333475 </v>
   <v>      -0.49999856       0.33430502      -0.16764344 </v>
   <v>      -0.49999856      -0.33430594      -0.16764316 </v>
   <v>      -0.33430801       0.49999880      -0.16764371 </v>
   <v>       0.33430824       0.49999881      -0.16764365 </v>
   <v>      -0.16866364       0.49999908       0.33532958 </v>
   <v>       0.16866287       0.49999901       0.33532981 </v>
   <v>      -0.49999955       0.16866231       0.33532986 </v>
   <v>      -0.49999946      -0.16866120       0.33532973 </v>
   <v>      -0.00000058       0.49999901      -0.49954294 </v>
   <v>      -0.49999945       0.00000093      -0.49954288 </v>
   <v>      -0.49999953       0.49999884      -0.00183717 </v>
   <v>      -0.49999844       0.33430527      -0.49902454 </v>
   <v>      -0.33430712       0.49999774      -0.49902491 </v>
   <v>      -0.49999773      -0.33430753      -0.49902476 </v>
   <v>       0.33431120       0.49999883      -0.49902395 </v>
   <v>      -0.49999944       0.49999884       0.33517210 </v>
  </varray>
 </structure>
 <varray name="primitive_index" >
  <v type="int" >        1 </v>
  <v type="int" >      100 </v>
  <v type="int" >       20 </v>
  <v type="int" >      101 </v>
  <v type="int" >       21 </v>
  <v type="int" >        2 </v>
  <v type="int" >        6 </v>
  <v type="int" >       99 </v>
  <v type="int" >       19 </v>
  <v type="int" >       14 </v>
  <v type="int" >       18 </v>
  <v type="int" >      105 </v>
  <v type="int" >       25 </v>
  <v type="int" >        7 </v>
  <v type="int" >       13 </v>
  <v type="int" >        3 </v>
  <v type="int" >       87 </v>
  <v type="int" >        5 </v>
  <v type="int" >       37 </v>
  <v type="int" >       93 </v>
  <v type="int" >       29 </v>
  <v type="int" >       94 </v>
  <v type="int" >       30 </v>
  <v type="int" >       96 </v>
  <v type="int" >       32 </v>
  <v type="int" >       83 </v>
  <v type="int" >       86 </v>
  <v type="int" >       97 </v>
  <v type="int" >       33 </v>
  <v type="int" >       42 </v>
  <v type="int" >       45 </v>
  <v type="int" >       91 </v>
  <v type="int" >       27 </v>
  <v type="int" >       79 </v>
  <v type="int" >       80 </v>
  <v type="int" >       38 </v>
  <v type="int" >       92 </v>
  <v type="int" >       28 </v>
  <v type="int" >       39 </v>
  <v type="int" >       95 </v>
  <v type="int" >       31 </v>
  <v type="int" >       98 </v>
  <v type="int" >       34 </v>
  <v type="int" >       71 </v>
  <v type="int" >       46 </v>
  <v type="int" >       73 </v>
  <v type="int" >       48 </v>
  <v type="int" >        9 </v>
  <v type="int" >       74 </v>
  <v type="int" >       11 </v>
  <v type="int" >       49 </v>
  <v type="int" >       15 </v>
  <v type="int" >       77 </v>
  <v type="int" >       17 </v>
  <v type="int" >       52 </v>
  <v type="int" >        8 </v>
  <v type="int" >       12 </v>
  <v type="int" >       90 </v>
  <v type="int" >       36 </v>
  <v type="int" >        4 </v>
  <v type="int" >       54 </v>
  <v type="int" >       16 </v>
  <v type="int" >       66 </v>
  <v type="int" >       89 </v>
  <v type="int" >       35 </v>
  <v type="int" >       55 </v>
  <v type="int" >       59 </v>
  <v type="int" >       81 </v>
  <v type="int" >       40 </v>
  <v type="int" >       82 </v>
  <v type="int" >       41 </v>
  <v type="int" >       84 </v>
  <v type="int" >       85 </v>
  <v type="int" >       43 </v>
  <v type="int" >       44 </v>
  <v type="int" >      102 </v>
  <v type="int" >       22 </v>
  <v type="int" >       76 </v>
  <v type="int" >       75 </v>
  <v type="int" >      104 </v>
  <v type="int" >       24 </v>
  <v type="int" >       50 </v>
  <v type="int" >       51 </v>
  <v type="int" >       56 </v>
  <v type="int" >       72 </v>
  <v type="int" >       47 </v>
  <v type="int" >       58 </v>
  <v type="int" >      106 </v>
  <v type="int" >       26 </v>
  <v type="int" >       67 </v>
  <v type="int" >       70 </v>
  <v type="int" >       68 </v>
  <v type="int" >       69 </v>
  <v type="int" >       78 </v>
  <v type="int" >       53 </v>
  <v type="int" >      103 </v>
  <v type="int" >       23 </v>
  <v type="int" >       61 </v>
  <v type="int" >       65 </v>
  <v type="int" >       10 </v>
  <v type="int" >       60 </v>
  <v type="int" >       57 </v>
  <v type="int" >       62 </v>
  <v type="int" >       88 </v>
  <v type="int" >       64 </v>
  <v type="int" >      107 </v>
  <v type="int" >       63 </v>
 </varray>
 <kpoints>
  <generation param="Monkhorst-Pack">
   <v type="int" name="divisions">       4        4        4 </v>
   <v name="usershift">      0.00000000       0.00000000       0.00000000 </v>
   <v name="genvec1">      0.25000000       0.00000000       0.00000000 </v>
   <v name="genvec2">      0.00000000       0.25000000       0.00000000 </v>
   <v name="genvec3">      0.00000000       0.00000000       0.25000000 </v>
   <v name="shift">      0.50000000       0.50000000       0.50000000 </v>
  </generation>
  <varray name="kpointlist" >
   <v>       0.12500000       0.12500000       0.12500000 </v>
   <v>       0.37500000       0.12500000       0.12500000 </v>
   <v>      -0.37500000       0.12500000       0.12500000 </v>
   <v>      -0.12500000       0.12500000       0.12500000 </v>
   <v>       0.12500000       0.37500000       0.12500000 </v>
   <v>       0.37500000       0.37500000       0.12500000 </v>
   <v>      -0.37500000       0.37500000       0.12500000 </v>
   <v>      -0.12500000       0.37500000       0.12500000 </v>
   <v>       0.12500000      -0.37500000       0.12500000 </v>
   <v>       0.37500000      -0.37500000       0.12500000 </v>
   <v>      -0.37500000      -0.37500000       0.12500000 </v>
   <v>      -0.12500000      -0.37500000       0.12500000 </v>
   <v>       0.12500000      -0.12500000       0.12500000 </v>
   <v>       0.37500000      -0.12500000       0.12500000 </v>
   <v>      -0.37500000      -0.12500000       0.12500000 </v>
   <v>      -0.12500000      -0.12500000       0.12500000 </v>
   <v>       0.12500000       0.12500000       0.37500000 </v>
   <v>       0.37500000       0.12500000       0.37500000 </v>
   <v>      -0.37500000       0.12500000       0.37500000 </v>
   <v>      -0.12500000       0.12500000       0.37500000 </v>
   <v>       0.12500000       0.37500000       0.37500000 </v>
   <v>       0.37500000       0.37500000       0.37500000 </v>
   <v>      -0.37500000       0.37500000       0.37500000 </v>
   <v>      -0.12500000       0.37500000       0.37500000 </v>
   <v>       0.12500000      -0.37500000       0.37500000 </v>
   <v>       0.37500000      -0.37500000       0.37500000 </v>
   <v>      -0.37500000      -0.37500000       0.37500000 </v>
   <v>      -0.12500000      -0.37500000       0.37500000 </v>
   <v>       0.12500000      -0.12500000       0.37500000 </v>
   <v>       0.37500000      -0.12500000       0.37500000 </v>
   <v>      -0.37500000      -0.12500000       0.37500000 </v>
   <v>      -0.12500000      -0.12500000       0.37500000 </v>
  </varray>
  <varray name="weights" >
   <v>       0.03125000 </v>
   <v>       0.03125000 </v>
   <v>       0.03125000 </v>
   <v>       0.03125000 </v>
   <v>       0.03125000 </v>
   <v>       0.03125000 </v>
   <v>       0.03125000 </v>
   <v>       0.03125000 </v>
   <v>       0.03125000 </v>
   <v>       0.03125000 </v>
   <v>       0.03125000 </v>
   <v>       0.03125000 </v>
   <v>       0.03125000 </v>
   <v>       0.03125000 </v>
   <v>       0.03125000 </v>
   <v>       0.03125000 </v>
   <v>       0.03125000 </v>
   <v>       0.03125000 </v>
   <v>       0.03125000 </v>
   <v>       0.03125000 </v>
   <v>       0.03125000 </v>
   <v>       0.03125000 </v>
   <v>       0.03125000 </v>
   <v>       0.03125000 </v>
   <v>       0.03125000 </v>
   <v>       0.03125000 </v>
   <v>       0.03125000 </v>
   <v>       0.03125000 </v>
   <v>       0.03125000 </v>
   <v>       0.03125000 </v>
   <v>       0.03125000 </v>
   <v>       0.03125000 </v>
  </varray>
 </kpoints>
 <parameters>
  <separator name="general" >
   <i type="string" name="SYSTEM">Static</i>
   <i type="logical" name="LCOMPAT"> F  </i>
  </separator>
  <separator name="electronic" >
   <i type="string" name="PREC">normal</i>
   <i name="ENMAX">    400.00000000</i>
   <i name="ENAUG">    511.36800000</i>
   <i name="EDIFF">      0.00000100</i>
   <i type="int" name="IALGO">    68</i>
   <i type="int" name="IWAVPR">    10</i>
   <i type="int" name="NBANDS">   514</i>
   <i name="NELECT">    856.00000000</i>
   <i type="int" name="TURBO">     0</i>
   <i type="int" name="IRESTART">     0</i>
   <i type="int" name="NREBOOT">     0</i>
   <i type="int" name="NMIN">     0</i>
   <i name="EREF">      0.00000000</i>
   <separator name="electronic smearing" >
    <i type="int" name="ISMEAR">     1</i>
    <i name="SIGMA">      0.20000000</i>
    <i name="KSPACING">      0.50000000</i>
    <i type="logical" name="KGAMMA"> T  </i>
   </separator>
   <separator name="electronic projectors" >
    <i type="logical" name="LREAL"> T  </i>
    <v name="ROPT">     -0.00050000</v>
    <i type="int" name="LMAXPAW">  -100</i>
    <i type="int" name="LMAXMIX">     2</i>
    <i type="logical" name="NLSPLINE"> F  </i>
   </separator>
   <separator name="electronic startup" >
    <i type="int" name="ISTART">     0</i>
    <i type="int" name="ICHARG">     2</i>
    <i type="int" name="INIWAV">     1</i>
   </separator>
   <separator name="electronic spin" >
    <i type="int" name="ISPIN">     1</i>
    <i type="logical" name="LNONCOLLINEAR"> F  </i>
    <v name="MAGMOM">      1.00000000      1.00000000      1.00000000      1.00000000      1.00000000      1.00000000      1.00000000      1.00000000      1.00000000      1.00000000      1.00000000      1.00000000      1.00000000      1.00000000      1.00000000      1.00000000      1.00000000      1.00000000      1.00000000      1.00000000
      1.00000000      1.00000000      1.00000000      1.00000000      1.00000000      1.00000000      1.00000000      1.00000000      1.00000000      1.00000000      1.00000000      1.00000000      1.00000000      1.00000000      1.00000000      1.00000000      1.00000000      1.00000000      1.00000000      1.00000000
      1.00000000      1.00000000      1.00000000      1.00000000      1.00000000      1.00000000      1.00000000      1.00000000      1.00000000      1.00000000      1.00000000      1.00000000      1.00000000      1.00000000      1.00000000      1.00000000      1.00000000      1.00000000      1.00000000      1.00000000
      1.00000000      1.00000000      1.00000000      1.00000000      1.00000000      1.00000000      1.00000000      1.00000000      1.00000000      1.00000000      1.00000000      1.00000000      1.00000000      1.00000000      1.00000000      1.00000000      1.00000000      1.00000000      1.00000000      1.00000000
      1.00000000      1.00000000      1.00000000      1.00000000      1.00000000      1.00000000      1.00000000      1.00000000      1.00000000      1.00000000      1.00000000      1.00000000      1.00000000      1.00000000      1.00000000      1.00000000      1.00000000      1.00000000      1.00000000      1.00000000
      1.00000000      1.00000000      1.00000000      1.00000000      1.00000000      1.00000000      1.00000000</v>
    <i name="NUPDOWN">     -1.00000000</i>
    <i type="logical" name="LSORBIT"> F  </i>
    <v name="SAXIS">      0.00000000      0.00000000      1.00000000</v>
    <i type="logical" name="LSPIRAL"> F  </i>
    <v name="QSPIRAL">      0.00000000      0.00000000      0.00000000</v>
    <i type="logical" name="LZEROZ"> F  </i>
   </separator>
   <separator name="electronic exchange-correlation" >
    <i type="logical" name="LASPH"> F  </i>
    <i type="logical" name="LMETAGGA"> F  </i>
   </separator>
   <separator name="electronic convergence" >
    <i type="int" name="NELM">   400</i>
    <i type="int" name="NELMDL">    -5</i>
    <i type="int" name="NELMIN">     2</i>
    <i name="ENINI">    400.00000000</i>
    <separator name="electronic convergence detail" >
     <i type="logical" name="LDIAG"> T  </i>
     <i type="logical" name="LSUBROT"> F  </i>
     <i name="WEIMIN">      0.00000000</i>
     <i name="EBREAK">      0.00000000</i>
     <i name="DEPER">      0.30000000</i>
     <i type="int" name="NRMM">     4</i>
     <i name="TIME">      0.40000000</i>
    </separator>
   </separator>
   <separator name="electronic mixer" >
    <i name="AMIX">      0.40000000</i>
    <i name="BMIX">      1.00000000</i>
    <i name="AMIN">      0.10000000</i>
    <i name="AMIX_MAG">      1.60000000</i>
    <i name="BMIX_MAG">      1.00000000</i>
    <separator name="electronic mixer details" >
     <i type="int" name="IMIX">     4</i>
     <i type="logical" name="MIXFIRST"> F  </i>
     <i type="int" name="MAXMIX">   -45</i>
     <i name="WC">    100.00000000</i>
     <i type="int" name="INIMIX">     1</i>
     <i type="int" name="MIXPRE">     1</i>
     <i type="int" name="MREMOVE">     5</i>
    </separator>
   </separator>
   <separator name="electronic dipolcorrection" >
    <i type="logical" name="LDIPOL"> F  </i>
    <i type="logical" name="LMONO"> F  </i>
    <i type="int" name="IDIPOL">     0</i>
    <i name="EPSILON">      1.00000000</i>
    <v name="DIPOL">   -100.00000000   -100.00000000   -100.00000000</v>
    <i name="EFIELD">      0.00000000</i>
   </separator>
  </separator>
  <separator name="grids" >
   <i type="int" name="NGX">    72</i>
   <i type="int" name="NGY">    72</i>
   <i type="int" name="NGZ">    72</i>
   <i type="int" name="NGXF">   144</i>
   <i type="int" name="NGYF">   144</i>
   <i type="int" name="NGZF">   144</i>
   <i type="logical" name="ADDGRID"> F  </i>
  </separator>
  <separator name="ionic" >
   <i type="int" name="NSW">     1</i>
   <i type="int" name="IBRION">    -1</i>
   <i type="int" name="MDALGO">     0</i>
   <i type="int" name="ISIF">     2</i>
   <i name="PSTRESS">      0.00000000</i>
   <i name="EDIFFG">      0.00001000</i>
   <i type="int" name="NFREE">     0</i>
   <i name="POTIM">      0.50000000</i>
   <i name="SMASS">     -3.00000000</i>
   <i name="SCALEE">      1.00000000</i>
  </separator>
  <separator name="ionic md" >
   <i name="TEBEG">      0.00010000</i>
   <i name="TEEND">      0.00010000</i>
   <i type="int" name="NBLOCK">     1</i>
   <i type="int" name="KBLOCK">     1</i>
   <i type="int" name="NPACO">   256</i>
   <i name="APACO">     16.00000000</i>
  </separator>
  <separator name="symmetry" >
   <i type="int" name="ISYM">     0</i>
   <i name="SYMPREC">      0.00001000</i>
  </separator>
  <separator name="dos" >
   <i type="int" name="LORBIT">     0</i>
   <v name="RWIGS">     -1.00000000</v>
   <i type="int" name="NEDOS">   301</i>
   <i name="EMIN">     10.00000000</i>
   <i name="EMAX">    -10.00000000</i>
   <i name="EFERMI">      0.00000000</i>
  </separator>
  <separator name="writing" >
   <i type="int" name="NWRITE">     2</i>
   <i type="logical" name="LWAVE"> F  </i>
   <i type="logical" name="LDOWNSAMPLE"> F  </i>
   <i type="logical" name="LCHARG"> F  </i>
   <i type="logical" name="LPARD"> F  </i>
   <i type="logical" name="LVTOT"> F  </i>
   <i type="logical" name="LVHAR"> F  </i>
   <i type="logical" name="LELF"> F  </i>
   <i type="logical" name="LOPTICS"> F  </i>
   <v name="STM">      0.00000000      0.00000000      0.00000000      0.00000000      0.00000000      0.00000000      0.00000000</v>
  </separator>
  <separator name="performance" >
   <i type="int" name="NPAR">     2</i>
   <i type="int" name="NSIM">     4</i>
   <i type="int" name="NBLK">    -1</i>
   <i type="logical" name="LPLANE"> T  </i>
   <i type="logical" name="LSCALAPACK"> T  </i>
   <i type="logical" name="LSCAAWARE"> F  </i>
   <i type="logical" name="LSCALU"> F  </i>
   <i type="logical" name="LASYNC"> F  </i>
   <i type="logical" name="LORBITALREAL"> F  </i>
  </separator>
  <separator name="miscellaneous" >
   <i type="int" name="IDIOT">     3</i>
   <i type="int" name="ISPECIAL">     0</i>
   <i type="logical" name="LMUSIC"> F  </i>
   <v name="POMASS">     55.84700000</v>
   <v name="DARWINR">      0.00000000</v>
   <v name="DARWINV">      1.00000000</v>
   <i type="logical" name="LCORR"> T  </i>
  </separator>
  <i type="logical" name="GGA_COMPAT"> T  </i>
  <i type="logical" name="LBERRY"> F  </i>
  <i type="int" name="ICORELEVEL">     0</i>
  <i type="logical" name="LDAU"> F  </i>
  <i type="int" name="I_CONSTRAINED_M">     0</i>
  <separator name="electronic exchange-correlation" >
   <i type="string" name="GGA">--</i>
   <i type="int" name="VOSKOWN">     0</i>
   <i type="logical" name="LHFCALC"> F  </i>
   <i type="string" name="PRECFOCK"></i>
   <i type="logical" name="LSYMGRAD"> F  </i>
   <i type="logical" name="LHFONE"> F  </i>
   <i type="logical" name="LRHFCALC"> F  </i>
   <i type="logical" name="LTHOMAS"> F  </i>
   <i type="logical" name="LMODELHF"> F  </i>
   <i name="ENCUT4O">     -1.00000000</i>
   <i type="int" name="EXXOEP">     0</i>
   <i type="int" name="FOURORBIT">     0</i>
   <i name="AEXX">      0.00000000</i>
   <i name="HFALPHA">      0.00000000</i>
   <i name="MCALPHA">      0.00000000</i>
   <i name="ALDAX">      1.00000000</i>
   <i name="AGGAX">      1.00000000</i>
   <i name="ALDAC">      1.00000000</i>
   <i name="AGGAC">      1.00000000</i>
   <i type="int" name="NKREDX">     1</i>
   <i type="int" name="NKREDY">     1</i>
   <i type="int" name="NKREDZ">     1</i>
   <i type="logical" name="SHIFTRED"> F  </i>
   <i type="logical" name="ODDONLY"> F  </i>
   <i type="logical" name="EVENONLY"> F  </i>
   <i type="int" name="LMAXFOCK">     0</i>
   <i type="int" name="NMAXFOCKAE">     0</i>
   <i type="logical" name="LFOCKAEDFT"> F  </i>
   <i name="HFSCREEN">      0.00000000</i>
   <i name="HFSCREENC">      0.00000000</i>
   <i type="int" name="NBANDSGWLOW">     0</i>
  </separator>
  <separator name="vdW DFT" >
   <i type="logical" name="LUSE_VDW"> F  </i>
   <i name="Zab_VDW">     -0.84910000</i>
   <i name="PARAM1">      0.12340000</i>
   <i name="PARAM2">      1.00000000</i>
   <i name="PARAM3">      0.00000000</i>
  </separator>
  <separator name="model GW" >
   <i type="int" name="MODEL_GW">     0</i>
   <i name="MODEL_EPS0">      6.18984300</i>
   <i name="MODEL_ALPHA">      1.00000000</i>
  </separator>
  <separator name="linear response parameters" >
   <i type="logical" name="LEPSILON"> F  </i>
   <i type="logical" name="LRPA"> F  </i>
   <i type="logical" name="LNABLA"> F  </i>
   <i type="logical" name="LVEL"> F  </i>
   <i type="int" name="KINTER">     0</i>
   <i name="CSHIFT">      0.10000000</i>
   <i name="OMEGAMAX">     -1.00000000</i>
   <i name="DEG_THRESHOLD">      0.00200000</i>
   <i name="RTIME">     -0.10000000</i>
   <i name="WPLASMAI">      0.00000000</i>
   <v name="DFIELD">      0.00000000      0.00000000      0.00000000</v>
   <v name="WPLASMA">      0.00000000      0.00000000      0.00000000      0.00000000      0.00000000      0.00000000      0.00000000      0.00000000      0.00000000</v>
  </separator>
  <separator name="orbital magnetization" >
   <i type="logical" name="NUCIND"> F  </i>
   <v name="MAGPOS">      0.00000000      0.00000000      0.00000000</v>
   <i type="logical" name="LNICSALL"> T  </i>
   <i type="logical" name="ORBITALMAG"> F  </i>
   <i type="logical" name="LMAGBLOCH"> F  </i>
   <i type="logical" name="LCHIMAG"> F  </i>
   <i type="logical" name="LGAUGE"> T  </i>
   <i type="int" name="MAGATOM">     0</i>
   <v name="MAGDIPOL">      0.00000000      0.00000000      0.00000000</v>
   <v name="AVECCONST">      0.00000000      0.00000000      0.00000000</v>
  </separator>
  <separator name="response functions" >
   <i type="logical" name="LADDER"> F  </i>
   <i type="logical" name="LRPAFORCE"> F  </i>
   <i type="logical" name="LFXC"> F  </i>
   <i type="logical" name="LHARTREE"> T  </i>
   <i type="int" name="IBSE">     0</i>
   <v type="int" name="KPOINT">    -1     0     0     0</v>
   <i type="logical" name="LTCTE"> F  </i>
   <i type="logical" name="LTETE"> F  </i>
   <i type="logical" name="LTRIPLET"> F  </i>
   <i type="logical" name="LFXCEPS"> F  </i>
   <i type="logical" name="LFXHEG"> F  </i>
   <i type="int" name="NATURALO">     2</i>
   <i type="logical" name="L2ORDER"> F  </i>
   <i type="logical" name="LMP2LT"> F  </i>
   <i type="logical" name="LUSEW"> F  </i>
   <i name="ENCUTGW">     -2.00000000</i>
   <i name="ENCUTGWSOFT">     -2.00000000</i>
   <i name="ENCUTLF">     -1.00000000</i>
   <i type="int" name="LMAXMP2">    -1</i>
   <i name="SCISSOR">      0.00000000</i>
   <i type="int" name="NOMEGA">     0</i>
   <i type="int" name="NOMEGAR">     0</i>
   <i type="int" name="NBANDSGW">    -1</i>
   <i type="int" name="NBANDSO">    -1</i>
   <i type="int" name="NBANDSV">    -1</i>
   <i type="int" name="NELM">   400</i>
   <i type="int" name="NELMHF">     1</i>
   <i type="int" name="DIM">     3</i>
   <i type="int" name="ANTIRES">     0</i>
   <i name="OMEGAMAX">    -30.00000000</i>
   <i name="OMEGAMIN">    -30.00000000</i>
   <i name="OMEGATL">   -200.00000000</i>
   <i type="int" name="OMEGAGRID">   140</i>
   <i name="CSHIFT">     -0.10000000</i>
   <i type="logical" name="SELFENERGY"> F  </i>
   <i type="logical" name="LSPECTRAL"> F  </i>
   <i type="logical" name="LSPECTRALGW"> F  </i>
   <i type="logical" name="LSINGLES"> F  </i>
   <i type="logical" name="LFERMIGW"> F  </i>
   <i type="logical" name="ODDONLYGW"> F  </i>
   <i type="logical" name="EVENONLYGW"> F  </i>
   <i type="int" name="NKREDLFX">     1</i>
   <i type="int" name="NKREDLFY">     1</i>
   <i type="int" name="NKREDLFZ">     1</i>
   <i type="int" name="MAXMEM">  2800</i>
   <i type="int" name="TELESCOPE">     0</i>
   <i type="int" name="TAUPAR">     1</i>
   <i type="int" name="OMEGAPAR">    -1</i>
   <i name="LAMBDA">      1.00000000</i>
  </separator>
  <separator name="External order field" >
   <i name="OFIELD_KAPPA">      0.00000000</i>
   <v name="OFIELD_K">      0.00000000      0.00000000      0.00000000</v>
   <i name="OFIELD_Q6_NEAR">      0.00000000</i>
   <i name="OFIELD_Q6_FAR">      0.00000000</i>
   <i name="OFIELD_A">      0.00000000</i>
  </separator>
 </parameters>
 <atominfo>
  <atoms>     107 </atoms>
  <types>       1 </types>
  <array name="atoms" >
   <dimension dim="1">ion</dimension>
   <field type="string">element</field>
   <field type="int">atomtype</field>
   <set>
    <rc><c>Fe</c><c>   1</c></rc>
    <rc><c>Fe</c><c>   1</c></rc>
    <rc><c>Fe</c><c>   1</c></rc>
    <rc><c>Fe</c><c>   1</c></rc>
    <rc><c>Fe</c><c>   1</c></rc>
    <rc><c>Fe</c><c>   1</c></rc>
    <rc><c>Fe</c><c>   1</c></rc>
    <rc><c>Fe</c><c>   1</c></rc>
    <rc><c>Fe</c><c>   1</c></rc>
    <rc><c>Fe</c><c>   1</c></rc>
    <rc><c>Fe</c><c>   1</c></rc>
    <rc><c>Fe</c><c>   1</c></rc>
    <rc><c>Fe</c><c>   1</c></rc>
    <rc><c>Fe</c><c>   1</c></rc>
    <rc><c>Fe</c><c>   1</c></rc>
    <rc><c>Fe</c><c>   1</c></rc>
    <rc><c>Fe</c><c>   1</c></rc>
    <rc><c>Fe</c><c>   1</c></rc>
    <rc><c>Fe</c><c>   1</c></rc>
    <rc><c>Fe</c><c>   1</c></rc>
    <rc><c>Fe</c><c>   1</c></rc>
    <rc><c>Fe</c><c>   1</c></rc>
    <rc><c>Fe</c><c>   1</c></rc>
    <rc><c>Fe</c><c>   1</c></rc>
    <rc><c>Fe</c><c>   1</c></rc>
    <rc><c>Fe</c><c>   1</c></rc>
    <rc><c>Fe</c><c>   1</c></rc>
    <rc><c>Fe</c><c>   1</c></rc>
    <rc><c>Fe</c><c>   1</c></rc>
    <rc><c>Fe</c><c>   1</c></rc>
    <rc><c>Fe</c><c>   1</c></rc>
    <rc><c>Fe</c><c>   1</c></rc>
    <rc><c>Fe</c><c>   1</c></rc>
    <rc><c>Fe</c><c>   1</c></rc>
    <rc><c>Fe</c><c>   1</c></rc>
    <rc><c>Fe</c><c>   1</c></rc>
    <rc><c>Fe</c><c>   1</c></rc>
    <rc><c>Fe</c><c>   1</c></rc>
    <rc><c>Fe</c><c>   1</c></rc>
    <rc><c>Fe</c><c>   1</c></rc>
    <rc><c>Fe</c><c>   1</c></rc>
    <rc><c>Fe</c><c>   1</c></rc>
    <rc><c>Fe</c><c>   1</c></rc>
    <rc><c>Fe</c><c>   1</c></rc>
    <rc><c>Fe</c><c>   1</c></rc>
    <rc><c>Fe</c><c>   1</c></rc>
    <rc><c>Fe</c><c>   1</c></rc>
    <rc><c>Fe</c><c>   1</c></rc>
    <rc><c>Fe</c><c>   1</c></rc>
    <rc><c>Fe</c><c>   1</c></rc>
    <rc><c>Fe</c><c>   1</c></rc>
    <rc><c>Fe</c><c>   1</c></rc>
    <rc><c>Fe</c><c>   1</c></rc>
    <rc><c>Fe</c><c>   1</c></rc>
    <rc><c>Fe</c><c>   1</c></rc>
    <rc><c>Fe</c><c>   1</c></rc>
    <rc><c>Fe</c><c>   1</c></rc>
    <rc><c>Fe</c><c>   1</c></rc>
    <rc><c>Fe</c><c>   1</c></rc>
    <rc><c>Fe</c><c>   1</c></rc>
    <rc><c>Fe</c><c>   1</c></rc>
    <rc><c>Fe</c><c>   1</c></rc>
    <rc><c>Fe</c><c>   1</c></rc>
    <rc><c>Fe</c><c>   1</c></rc>
    <rc><c>Fe</c><c>   1</c></rc>
    <rc><c>Fe</c><c>   1</c></rc>
    <rc><c>Fe</c><c>   1</c></rc>
    <rc><c>Fe</c><c>   1</c></rc>
    <rc><c>Fe</c><c>   1</c></rc>
    <rc><c>Fe</c><c>   1</c></rc>
    <rc><c>Fe</c><c>   1</c></rc>
    <rc><c>Fe</c><c>   1</c></rc>
    <rc><c>Fe</c><c>   1</c></rc>
    <rc><c>Fe</c><c>   1</c></rc>
    <rc><c>Fe</c><c>   1</c></rc>
    <rc><c>Fe</c><c>   1</c></rc>
    <rc><c>Fe</c><c>   1</c></rc>
    <rc><c>Fe</c><c>   1</c></rc>
    <rc><c>Fe</c><c>   1</c></rc>
    <rc><c>Fe</c><c>   1</c></rc>
    <rc><c>Fe</c><c>   1</c></rc>
    <rc><c>Fe</c><c>   1</c></rc>
    <rc><c>Fe</c><c>   1</c></rc>
    <rc><c>Fe</c><c>   1</c></rc>
    <rc><c>Fe</c><c>   1</c></rc>
    <rc><c>Fe</c><c>   1</c></rc>
    <rc><c>Fe</c><c>   1</c></rc>
    <rc><c>Fe</c><c>   1</c></rc>
    <rc><c>Fe</c><c>   1</c></rc>
    <rc><c>Fe</c><c>   1</c></rc>
    <rc><c>Fe</c><c>   1</c></rc>
    <rc><c>Fe</c><c>   1</c></rc>
    <rc><c>Fe</c><c>   1</c></rc>
    <rc><c>Fe</c><c>   1</c></rc>
    <rc><c>Fe</c><c>   1</c></rc>
    <rc><c>Fe</c><c>   1</c></rc>
    <rc><c>Fe</c><c>   1</c></rc>
    <rc><c>Fe</c><c>   1</c></rc>
    <rc><c>Fe</c><c>   1</c></rc>
    <rc><c>Fe</c><c>   1</c></rc>
    <rc><c>Fe</c><c>   1</c></rc>
    <rc><c>Fe</c><c>   1</c></rc>
    <rc><c>Fe</c><c>   1</c></rc>
    <rc><c>Fe</c><c>   1</c></rc>
    <rc><c>Fe</c><c>   1</c></rc>
    <rc><c>Fe</c><c>   1</c></rc>
    <rc><c>Fe</c><c>   1</c></rc>
   </set>
  </array>
  <array name="atomtypes" >
   <dimension dim="1">type</dimension>
   <field type="int">atomspertype</field>
   <field type="string">element</field>
   <field>mass</field>
   <field>valence</field>
   <field type="string">pseudopotential</field>
   <set>
    <rc><c> 107</c><c>Fe</c><c>     55.84700000</c><c>      8.00000000</c><c> PAW_PBE Fe 06Sep2000                   </c></rc>
   </set>
  </array>
 </atominfo>
 <structure name="initialpos" >
  <crystal>
   <varray name="basis" >
    <v>      10.33484705       0.00000000       0.00000000 </v>
    <v>       0.00000000      10.33484705       0.00000000 </v>
    <v>       0.00000000       0.00000000      10.33484705 </v>
   </varray>
   <i name="volume">   1103.85533447 </i>
   <varray name="rec_basis" >
    <v>       0.09676002       0.00000000       0.00000000 </v>
    <v>       0.00000000       0.09676002       0.00000000 </v>
    <v>       0.00000000       0.00000000       0.09676002 </v>
   </varray>
  </crystal>
  <varray name="positions" >
   <v>       0.99999938       0.00000098       0.00016562 </v>
   <v>       0.99999934       0.16650171       0.16666795 </v>
   <v>       0.99999944       0.33376685       0.99980627 </v>
   <v>       0.99999930       0.49999902       0.16666782 </v>
   <v>       0.99999934       0.66623220       0.99980624 </v>
   <v>       0.99999930       0.83349920       0.16666804 </v>
   <v>       0.99999926       0.00000094       0.33316834 </v>
   <v>       0.99999929       0.16686131       0.50043282 </v>
   <v>       0.99999932       0.33376689       0.33352795 </v>
   <v>       0.99999942       0.49999901       0.50045706 </v>
   <v>       0.99999924       0.66623220       0.33352798 </v>
   <v>       0.99999935       0.83313964       0.50043280 </v>
   <v>       0.99999934       0.00000094       0.66666541 </v>
   <v>       0.99999937       0.16686130       0.83289896 </v>
   <v>       0.99999946       0.33379006       0.66666536 </v>
   <v>       0.99999948       0.49999895       0.83287482 </v>
   <v>       0.99999946       0.66620903       0.66666528 </v>
   <v>       0.99999940       0.83313970       0.83289890 </v>
   <v>       0.16650234       0.00000098       0.16666790 </v>
   <v>       0.16641578       0.16641522       0.00025253 </v>
   <v>       0.16641576       0.83358588       0.00025250 </v>
   <v>       0.16655682       0.33319083       0.49985824 </v>
   <v>       0.16866287       0.49999901       0.33532981 </v>
   <v>       0.16655664       0.66680837       0.49985819 </v>
   <v>       0.16686199       0.00000091       0.83289887 </v>
   <v>       0.16850551       0.49999888       0.66666533 </v>
   <v>       0.16686172       0.33376669       0.16666777 </v>
   <v>       0.16686169       0.66623236       0.16666783 </v>
   <v>       0.16641583       0.16641530       0.33308135 </v>
   <v>       0.16641579       0.83358573       0.33308146 </v>
   <v>       0.16866051       0.16865981       0.66666471 </v>
   <v>       0.16655674       0.33319051       0.83347364 </v>
   <v>       0.16655659       0.66680864       0.83347363 </v>
   <v>       0.16866046       0.83134129       0.66666454 </v>
   <v>       0.16866304       0.49999894       0.99800449 </v>
   <v>       0.16686195       0.00000085       0.50043296 </v>
   <v>       0.33376897       0.00000098       0.99980620 </v>
   <v>       0.33376876       0.16686111       0.16666781 </v>
   <v>       0.33376876       0.83313992       0.16666782 </v>
   <v>       0.33319337       0.33319112       0.33322327 </v>
   <v>       0.33319325       0.66680797       0.33322314 </v>
   <v>       0.33319273       0.16655616       0.83347357 </v>
   <v>       0.33430839       0.33430480       0.66666817 </v>
   <v>       0.33430668       0.66569446       0.66666883 </v>
   <v>       0.33319257       0.83344508       0.83347361 </v>
   <v>       0.33319318       0.33319103       0.00011123 </v>
   <v>       0.33379238       0.49999892       0.16666764 </v>
   <v>       0.33319316       0.66680805       0.00011136 </v>
   <v>       0.33376905       0.00000097       0.33352799 </v>
   <v>       0.33319309       0.16655633       0.49985827 </v>
   <v>       0.33319287       0.83344492       0.49985821 </v>
   <v>       0.33379221       0.00000092       0.66666541 </v>
   <v>       0.33430824       0.49999881       0.83235635 </v>
   <v>       0.50000051       0.00000098       0.16666779 </v>
   <v>       0.50000037       0.16866242       0.99800443 </v>
   <v>       0.50000050       0.33379024       0.16666768 </v>
   <v>       0.50000047       0.49999884       0.99816283 </v>
   <v>       0.50000055       0.66620880       0.16666764 </v>
   <v>       0.50000048       0.83133868       0.99800433 </v>
   <v>       0.50000055       0.00000093       0.50045712 </v>
   <v>       0.50000045       0.16866231       0.33532986 </v>
   <v>       0.50000156       0.33430527       0.50097546 </v>
   <v>       0.50000056       0.49999884       0.33517210 </v>
   <v>       0.50000227       0.66569247       0.50097524 </v>
   <v>       0.50000054       0.83133880       0.33532973 </v>
   <v>       0.50000044       0.00000093       0.83287479 </v>
   <v>       0.50000048       0.16850497       0.66666532 </v>
   <v>       0.50000144       0.33430502       0.83235656 </v>
   <v>       0.50000144       0.66569406       0.83235684 </v>
   <v>       0.50000048       0.83149653       0.66666525 </v>
   <v>       0.66680710       0.33319110       0.00011134 </v>
   <v>       0.66620806       0.49999897       0.16666768 </v>
   <v>       0.66680723       0.66680809       0.00011153 </v>
   <v>       0.66623142       0.00000089       0.33352798 </v>
   <v>       0.66680733       0.16655630       0.49985828 </v>
   <v>       0.66680750       0.83344500       0.49985811 </v>
   <v>       0.66620819       0.00000091       0.66666527 </v>
   <v>       0.66569199       0.49999880       0.83235629 </v>
   <v>       0.66623164       0.16686108       0.16666788 </v>
   <v>       0.66623167       0.83313991       0.16666786 </v>
   <v>       0.66680703       0.33319119       0.33322331 </v>
   <v>       0.66680723       0.66680798       0.33322310 </v>
   <v>       0.66680763       0.16655615       0.83347349 </v>
   <v>       0.66569322       0.33430460       0.66666872 </v>
   <v>       0.66569359       0.66569449       0.66666867 </v>
   <v>       0.66680775       0.83344513       0.83347367 </v>
   <v>       0.66623137       0.00000087       0.99980625 </v>
   <v>       0.66569288       0.49999774       0.50097509 </v>
   <v>       0.83133624       0.49999904       0.99800452 </v>
   <v>       0.83313726       0.00000091       0.50043285 </v>
   <v>       0.83313754       0.33376671       0.16666790 </v>
   <v>       0.83313752       0.66623237       0.16666792 </v>
   <v>       0.83358344       0.16641525       0.33308141 </v>
   <v>       0.83358338       0.83358570       0.33308146 </v>
   <v>       0.83133880       0.16865969       0.66666452 </v>
   <v>       0.83344258       0.33319042       0.83347361 </v>
   <v>       0.83344275       0.66680870       0.83347372 </v>
   <v>       0.83133882       0.83134137       0.66666436 </v>
   <v>       0.83349693       0.00000094       0.16666806 </v>
   <v>       0.83358357       0.16641517       0.00025257 </v>
   <v>       0.83358347       0.83358583       0.00025260 </v>
   <v>       0.83344235       0.33319077       0.49985815 </v>
   <v>       0.83133636       0.49999908       0.33532958 </v>
   <v>       0.83344258       0.66680837       0.49985799 </v>
   <v>       0.83313734       0.00000094       0.83289883 </v>
   <v>       0.83149375       0.49999887       0.66666519 </v>
   <v>       0.33431120       0.49999883       0.50097605 </v>
  </varray>
  <varray name="velocities" >
   <v>       0.00000000       0.00000000       0.00000000 </v>
   <v>       0.00000000       0.00000000       0.00000000 </v>
   <v>       0.00000000       0.00000000       0.00000000 </v>
   <v>       0.00000000       0.00000000       0.00000000 </v>
   <v>       0.00000000       0.00000000       0.00000000 </v>
   <v>       0.00000000       0.00000000       0.00000000 </v>
   <v>       0.00000000       0.00000000       0.00000000 </v>
   <v>       0.00000000       0.00000000       0.00000000 </v>
   <v>       0.00000000       0.00000000       0.00000000 </v>
   <v>       0.00000000       0.00000000       0.00000000 </v>
   <v>       0.00000000       0.00000000       0.00000000 </v>
   <v>       0.00000000       0.00000000       0.00000000 </v>
   <v>       0.00000000       0.00000000       0.00000000 </v>
   <v>       0.00000000       0.00000000       0.00000000 </v>
   <v>       0.00000000       0.00000000       0.00000000 </v>
   <v>       0.00000000       0.00000000       0.00000000 </v>
   <v>       0.00000000       0.00000000       0.00000000 </v>
   <v>       0.00000000       0.00000000       0.00000000 </v>
   <v>       0.00000000       0.00000000       0.00000000 </v>
   <v>       0.00000000       0.00000000       0.00000000 </v>
   <v>       0.00000000       0.00000000       0.00000000 </v>
   <v>       0.00000000       0.00000000       0.00000000 </v>
   <v>       0.00000000       0.00000000       0.00000000 </v>
   <v>       0.00000000       0.00000000       0.00000000 </v>
   <v>       0.00000000       0.00000000       0.00000000 </v>
   <v>       0.00000000       0.00000000       0.00000000 </v>
   <v>       0.00000000       0.00000000       0.00000000 </v>
   <v>       0.00000000       0.00000000       0.00000000 </v>
   <v>       0.00000000       0.00000000       0.00000000 </v>
   <v>       0.00000000       0.00000000       0.00000000 </v>
   <v>       0.00000000       0.00000000       0.00000000 </v>
   <v>       0.00000000       0.00000000       0.00000000 </v>
   <v>       0.00000000       0.00000000       0.00000000 </v>
   <v>       0.00000000       0.00000000       0.00000000 </v>
   <v>       0.00000000       0.00000000       0.00000000 </v>
   <v>       0.00000000       0.00000000       0.00000000 </v>
   <v>       0.00000000       0.00000000       0.00000000 </v>
   <v>       0.00000000       0.00000000       0.00000000 </v>
   <v>       0.00000000       0.00000000       0.00000000 </v>
   <v>       0.00000000       0.00000000       0.00000000 </v>
   <v>       0.00000000       0.00000000       0.00000000 </v>
   <v>       0.00000000       0.00000000       0.00000000 </v>
   <v>       0.00000000       0.00000000       0.00000000 </v>
   <v>       0.00000000       0.00000000       0.00000000 </v>
   <v>       0.00000000       0.00000000       0.00000000 </v>
   <v>       0.00000000       0.00000000       0.00000000 </v>
   <v>       0.00000000       0.00000000       0.00000000 </v>
   <v>       0.00000000       0.00000000       0.00000000 </v>
   <v>       0.00000000       0.00000000       0.00000000 </v>
   <v>       0.00000000       0.00000000       0.00000000 </v>
   <v>       0.00000000       0.00000000       0.00000000 </v>
   <v>       0.00000000       0.00000000       0.00000000 </v>
   <v>       0.00000000       0.00000000       0.00000000 </v>
   <v>       0.00000000       0.00000000       0.00000000 </v>
   <v>       0.00000000       0.00000000       0.00000000 </v>
   <v>       0.00000000       0.00000000       0.00000000 </v>
   <v>       0.00000000       0.00000000       0.00000000 </v>
   <v>       0.00000000       0.00000000       0.00000000 </v>
   <v>       0.00000000       0.00000000       0.00000000 </v>
   <v>       0.00000000       0.00000000       0.00000000 </v>
   <v>       0.00000000       0.00000000       0.00000000 </v>
   <v>       0.00000000       0.00000000       0.00000000 </v>
   <v>       0.00000000       0.00000000       0.00000000 </v>
   <v>       0.00000000       0.00000000       0.00000000 </v>
   <v>       0.00000000       0.00000000       0.00000000 </v>
   <v>       0.00000000       0.00000000       0.00000000 </v>
   <v>       0.00000000       0.00000000       0.00000000 </v>
   <v>       0.00000000       0.00000000       0.00000000 </v>
   <v>       0.00000000       0.00000000       0.00000000 </v>
   <v>       0.00000000       0.00000000       0.00000000 </v>
   <v>       0.00000000       0.00000000       0.00000000 </v>
   <v>       0.00000000       0.00000000       0.00000000 </v>
   <v>       0.00000000       0.00000000       0.00000000 </v>
   <v>       0.00000000       0.00000000       0.00000000 </v>
   <v>       0.00000000       0.00000000       0.00000000 </v>
   <v>       0.00000000       0.00000000       0.00000000 </v>
   <v>       0.00000000       0.00000000       0.00000000 </v>
   <v>       0.00000000       0.00000000       0.00000000 </v>
   <v>       0.00000000       0.00000000       0.00000000 </v>
   <v>       0.00000000       0.00000000       0.00000000 </v>
   <v>       0.00000000       0.00000000       0.00000000 </v>
   <v>       0.00000000       0.00000000       0.00000000 </v>
   <v>       0.00000000       0.00000000       0.00000000 </v>
   <v>       0.00000000       0.00000000       0.00000000 </v>
   <v>       0.00000000       0.00000000       0.00000000 </v>
   <v>       0.00000000       0.00000000       0.00000000 </v>
   <v>       0.00000000       0.00000000       0.00000000 </v>
   <v>       0.00000000       0.00000000       0.00000000 </v>
   <v>       0.00000000       0.00000000       0.00000000 </v>
   <v>       0.00000000       0.00000000       0.00000000 </v>
   <v>       0.00000000       0.00000000       0.00000000 </v>
   <v>       0.00000000       0.00000000       0.00000000 </v>
   <v>       0.00000000       0.00000000       0.00000000 </v>
   <v>       0.00000000       0.00000000       0.00000000 </v>
   <v>       0.00000000       0.00000000       0.00000000 </v>
   <v>       0.00000000       0.00000000       0.00000000 </v>
   <v>       0.00000000       0.00000000       0.00000000 </v>
   <v>       0.00000000       0.00000000       0.00000000 </v>
   <v>       0.00000000       0.00000000       0.00000000 </v>
   <v>       0.00000000       0.00000000       0.00000000 </v>
   <v>       0.00000000       0.00000000       0.00000000 </v>
   <v>       0.00000000       0.00000000       0.00000000 </v>
   <v>       0.00000000       0.00000000       0.00000000 </v>
   <v>       0.00000000       0.00000000       0.00000000 </v>
   <v>       0.00000000       0.00000000       0.00000000 </v>
   <v>       0.00000000       0.00000000       0.00000000 </v>
   <v>       0.00000000       0.00000000       0.00000000 </v>
  </varray>
 </structure>
 <calculation>
  <scstep>
   <time name="dav">  258.91  258.95</time>
   <time name="total">  259.27  259.30</time>
   <energy>
    <i name="alphaZ">   7165.75404585 </i>
    <i name="ewald"> -65169.07313690 </i>
    <i name="hartreedc"> -11387.28144545 </i>
    <i name="XCdc">    440.37528354 </i>
    <i name="pawpsdc">  51244.96395782 </i>
    <i name="pawaedc"> -52061.72305433 </i>
    <i name="eentropy">      0.00916263 </i>
    <i name="bandstr">  13666.39327742 </i>
    <i name="atom">  63607.21096501 </i>
    <i name="e_fr_energy">   7506.62905560 </i>
    <i name="e_wo_entrp">   7506.61989296 </i>
    <i name="e_0_energy">   7506.62600138 </i>
   </energy>
  </scstep>
  <scstep>
   <time name="dav">  256.79  256.82</time>
   <time name="total">  256.84  256.86</time>
   <energy>
    <i name="e_fr_energy">    -25.19348938 </i>
    <i name="e_wo_entrp">    -25.19641951 </i>
    <i name="e_0_energy">    -25.19446609 </i>
   </energy>
  </scstep>
  <scstep>
   <time name="dav">  265.51  265.53</time>
   <time name="total">  265.56  265.58</time>
   <energy>
    <i name="e_fr_energy">   -843.08243642 </i>
    <i name="e_wo_entrp">   -843.10020668 </i>
    <i name="e_0_energy">   -843.08835984 </i>
   </energy>
  </scstep>
  <scstep>
   <time name="dav">  421.46  421.49</time>
   <time name="total">  421.52  421.55</time>
   <energy>
    <i name="e_fr_energy">  -1017.59877628 </i>
    <i name="e_wo_entrp">  -1017.57739289 </i>
    <i name="e_0_energy">  -1017.59164848 </i>
   </energy>
  </scstep>
  <scstep>
   <time name="dav">  383.49  383.52</time>
   <time name="total">  396.53  396.56</time>
   <energy>
    <i name="e_fr_energy">  -1032.56749127 </i>
    <i name="e_wo_entrp">  -1032.51547792 </i>
    <i name="e_0_energy">  -1032.55015349 </i>
   </energy>
  </scstep>
  <scstep>
   <time name="diag">   35.14   35.14</time>
   <time name="diis">  151.73  151.74</time>
   <time name="orth">    7.92    7.92</time>
   <time name="total">  208.26  208.28</time>
   <energy>
    <i name="e_fr_energy">   -879.49183957 </i>
    <i name="e_wo_entrp">   -879.51374889 </i>
    <i name="e_0_energy">   -879.49914267 </i>
   </energy>
  </scstep>
  <scstep>
   <time name="diag">   33.57   33.57</time>
   <time name="diis">  200.21  200.23</time>
   <time name="orth">    7.16    7.16</time>
   <time name="total">  253.85  253.87</time>
   <energy>
    <i name="e_fr_energy">  -1139.93567420 </i>
    <i name="e_wo_entrp">  -1139.92035128 </i>
    <i name="e_0_energy">  -1139.93056656 </i>
   </energy>
  </scstep>
  <scstep>
   <time name="diag">   35.62   35.62</time>
   <time name="diis">  152.08  152.09</time>
   <time name="orth">    7.27    7.27</time>
   <time name="total">  209.66  209.68</time>
   <energy>
    <i name="e_fr_energy">   -878.85528624 </i>
    <i name="e_wo_entrp">   -878.75387494 </i>
    <i name="e_0_energy">   -878.82148247 </i>
   </energy>
  </scstep>
  <scstep>
   <time name="diag">   33.24   33.25</time>
   <time name="diis">  186.18  186.20</time>
   <time name="orth">    7.16    7.16</time>
   <time name="total">  239.48  239.49</time>
   <energy>
    <i name="e_fr_energy">   -870.10884820 </i>
    <i name="e_wo_entrp">   -870.05626150 </i>
    <i name="e_0_energy">   -870.09131930 </i>
   </energy>
  </scstep>
  <scstep>
   <time name="diag">   32.32   32.32</time>
   <time name="diis">  198.78  198.80</time>
   <time name="orth">    7.68    7.68</time>
   <time name="total">  251.68  251.70</time>
   <energy>
    <i name="e_fr_energy">   -872.16084392 </i>
    <i name="e_wo_entrp">   -872.13285986 </i>
    <i name="e_0_energy">   -872.15151590 </i>
   </energy>
  </scstep>
  <scstep>
   <time name="diag">   32.31   32.31</time>
   <time name="diis">  172.84  172.85</time>
   <time name="orth">    7.16    7.16</time>
   <time name="total">  225.20  225.21</time>
   <energy>
    <i name="e_fr_energy">   -869.62575279 </i>
    <i name="e_wo_entrp">   -869.58067591 </i>
    <i name="e_0_energy">   -869.61072716 </i>
   </energy>
  </scstep>
  <scstep>
   <time name="diag">   32.65   32.65</time>
   <time name="diis">  229.87  229.89</time>
   <time name="orth">    7.16    7.16</time>
   <time name="total">  282.57  282.59</time>
   <energy>
    <i name="e_fr_energy">   -869.78204965 </i>
    <i name="e_wo_entrp">   -869.73286991 </i>
    <i name="e_0_energy">   -869.76565640 </i>
   </energy>
  </scstep>
  <scstep>
   <time name="diag">   32.26   32.26</time>
   <time name="diis">  177.54  177.55</time>
   <time name="orth">    7.16    7.16</time>
   <time name="total">  229.87  229.89</time>
   <energy>
    <i name="e_fr_energy">   -869.30372239 </i>
    <i name="e_wo_entrp">   -869.24089358 </i>
    <i name="e_0_energy">   -869.28277945 </i>
   </energy>
  </scstep>
  <scstep>
   <time name="diag">   33.93   33.93</time>
   <time name="diis">  210.25  210.27</time>
   <time name="orth">    7.16    7.16</time>
   <time name="total">  264.23  264.25</time>
   <energy>
    <i name="e_fr_energy">   -869.24851779 </i>
    <i name="e_wo_entrp">   -869.18770221 </i>
    <i name="e_0_energy">   -869.22824593 </i>
   </energy>
  </scstep>
  <scstep>
   <time name="diag">   36.48   36.48</time>
   <time name="diis">  186.20  186.21</time>
   <time name="orth">    7.69    7.69</time>
   <time name="total">  243.27  243.29</time>
   <energy>
    <i name="e_fr_energy">   -869.16625048 </i>
    <i name="e_wo_entrp">   -869.10549239 </i>
    <i name="e_0_energy">   -869.14599779 </i>
   </energy>
  </scstep>
  <scstep>
   <time name="diag">   32.28   32.29</time>
   <time name="diis">  168.46  168.47</time>
   <time name="orth">    7.16    7.16</time>
   <time name="total">  220.78  220.79</time>
   <energy>
    <i name="e_fr_energy">   -869.04062821 </i>
    <i name="e_wo_entrp">   -868.97760729 </i>
    <i name="e_0_energy">   -869.01962124 </i>
   </energy>
  </scstep>
  <scstep>
   <time name="diag">   32.40   32.41</time>
   <time name="diis">  208.21  208.23</time>
   <time name="orth">    7.15    7.16</time>
   <time name="total">  260.65  260.67</time>
   <energy>
    <i name="e_fr_energy">   -869.07083218 </i>
    <i name="e_wo_entrp">   -869.00708757 </i>
    <i name="e_0_energy">   -869.04958398 </i>
   </energy>
  </scstep>
  <scstep>
   <time name="diag">   32.35   32.36</time>
   <time name="diis">  175.71  175.72</time>
   <time name="orth">    7.15    7.15</time>
   <time name="total">  228.08  228.10</time>
   <energy>
    <i name="e_fr_energy">   -869.03324469 </i>
    <i name="e_wo_entrp">   -868.97087389 </i>
    <i name="e_0_energy">   -869.01245442 </i>
   </energy>
  </scstep>
  <scstep>
   <time name="diag">   34.75   34.75</time>
   <time name="diis">  230.43  230.45</time>
   <time name="orth">    7.16    7.16</time>
   <time name="total">  285.20  285.22</time>
   <energy>
    <i name="e_fr_energy">   -869.03675030 </i>
    <i name="e_wo_entrp">   -868.97461889 </i>
    <i name="e_0_energy">   -869.01603983 </i>
   </energy>
  </scstep>
  <scstep>
   <time name="diag">   35.61   35.61</time>
   <time name="diis">  176.68  176.69</time>
   <time name="orth">    8.21    8.21</time>
   <time name="total">  234.25  234.27</time>
   <energy>
    <i name="e_fr_energy">   -869.03616084 </i>
    <i name="e_wo_entrp">   -868.97445671 </i>
    <i name="e_0_energy">   -869.01559279 </i>
   </energy>
  </scstep>
  <scstep>
   <time name="diag">   32.29   32.29</time>
   <time name="diis">  196.80  196.82</time>
   <time name="orth">    7.15    7.15</time>
   <time name="total">  249.13  249.15</time>
   <energy>
    <i name="e_fr_energy">   -869.03446208 </i>
    <i name="e_wo_entrp">   -868.97281920 </i>
    <i name="e_0_energy">   -869.01391446 </i>
   </energy>
  </scstep>
  <scstep>
   <time name="diag">   33.62   33.62</time>
   <time name="diis">  171.99  172.00</time>
   <time name="orth">    7.65    7.65</time>
   <time name="total">  226.78  226.80</time>
   <energy>
    <i name="e_fr_energy">   -869.03397362 </i>
    <i name="e_wo_entrp">   -868.97207529 </i>
    <i name="e_0_energy">   -869.01334085 </i>
   </energy>
  </scstep>
  <scstep>
   <time name="diag">   32.25   32.25</time>
   <time name="diis">  171.12  171.13</time>
   <time name="orth">    7.15    7.15</time>
   <time name="total">  223.39  223.40</time>
   <energy>
    <i name="e_fr_energy">   -869.03188112 </i>
    <i name="e_wo_entrp">   -868.96948230 </i>
    <i name="e_0_energy">   -869.01108151 </i>
   </energy>
  </scstep>
  <scstep>
   <time name="diag">   32.27   32.27</time>
   <time name="diis">  234.14  234.16</time>
   <time name="orth">    7.16    7.16</time>
   <time name="total">  286.39  286.41</time>
   <energy>
    <i name="e_fr_energy">   -869.03196131 </i>
    <i name="e_wo_entrp">   -868.96954057 </i>
    <i name="e_0_energy">   -869.01115440 </i>
   </energy>
  </scstep>
  <scstep>
   <time name="diag">   32.24   32.25</time>
   <time name="diis">  199.97  199.98</time>
   <time name="orth">    8.12    8.12</time>
   <time name="total">  253.81  253.83</time>
   <energy>
    <i name="e_fr_energy">   -869.03192919 </i>
    <i name="e_wo_entrp">   -868.96944344 </i>
    <i name="e_0_energy">   -869.01110061 </i>
   </energy>
  </scstep>
  <scstep>
   <time name="diag">   32.27   32.27</time>
   <time name="diis">  192.16  192.17</time>
   <time name="orth">    7.14    7.14</time>
   <time name="total">  244.44  244.45</time>
   <energy>
    <i name="e_fr_energy">   -869.03187628 </i>
    <i name="e_wo_entrp">   -868.96939254 </i>
    <i name="e_0_energy">   -869.01104837 </i>
   </energy>
  </scstep>
  <scstep>
   <time name="diag">   35.44   35.45</time>
   <time name="diis">  217.40  217.41</time>
   <time name="orth">    7.15    7.15</time>
   <time name="total">  272.82  272.84</time>
   <energy>
    <i name="e_fr_energy">   -869.03188107 </i>
    <i name="e_wo_entrp">   -868.96941949 </i>
    <i name="e_0_energy">   -869.01106055 </i>
   </energy>
  </scstep>
  <scstep>
   <time name="diag">   32.31   32.31</time>
   <time name="diis">  167.52  167.53</time>
   <time name="orth">    7.15    7.15</time>
   <time name="total">  220.29  220.31</time>
   <energy>
    <i name="e_fr_energy">   -869.03183843 </i>
    <i name="e_wo_entrp">   -868.96941578 </i>
    <i name="e_0_energy">   -869.01103088 </i>
   </energy>
  </scstep>
  <scstep>
   <time name="diag">   35.23   35.23</time>
   <time name="diis">  208.31  208.32</time>
   <time name="orth">    7.14    7.14</time>
   <time name="total">  263.58  263.60</time>
   <energy>
    <i name="e_fr_energy">   -869.03183729 </i>
    <i name="e_wo_entrp">   -868.96941191 </i>
    <i name="e_0_energy">   -869.01102883 </i>
   </energy>
  </scstep>
  <scstep>
   <time name="diag">   34.34   34.34</time>
   <time name="diis">  167.38  167.39</time>
   <time name="orth">    7.15    7.15</time>
   <time name="total">  221.70  221.71</time>
   <energy>
    <i name="e_fr_energy">   -869.03182885 </i>
    <i name="e_wo_entrp">   -868.96942054 </i>
    <i name="e_0_energy">   -869.01102608 </i>
   </energy>
  </scstep>
  <scstep>
   <time name="diag">   33.40   33.40</time>
   <time name="diis">  117.01  117.02</time>
   <time name="orth">    7.15    7.15</time>
   <time name="total">  170.40  170.41</time>
   <energy>
    <i name="e_fr_energy">   -869.03182759 </i>
    <i name="e_wo_entrp">   -868.96942075 </i>
    <i name="e_0_energy">   -869.01102531 </i>
   </energy>
  </scstep>
  <scstep>
   <time name="diag">   35.27   35.27</time>
   <time name="diis">  107.66  107.67</time>
   <time name="orth">    7.15    7.15</time>
   <time name="total">  162.94  162.95</time>
   <energy>
    <i name="e_fr_energy">   -869.03182892 </i>
    <i name="e_wo_entrp">   -868.96942085 </i>
    <i name="e_0_energy">   -869.01102623 </i>
   </energy>
  </scstep>
  <scstep>
   <time name="diag">   32.16   32.16</time>
   <time name="diis">  103.23  103.24</time>
   <time name="orth">    8.28    8.28</time>
   <time name="total">  144.02  144.03</time>
   <energy>
    <i name="alphaZ">   7165.75404585 </i>
    <i name="ewald"> -65169.07313690 </i>
    <i name="hartreedc">  -9568.03833465 </i>
    <i name="XCdc">    355.46798688 </i>
    <i name="pawpsdc">  57397.16621421 </i>
    <i name="pawaedc"> -58323.22177636 </i>
    <i name="eentropy">     -0.06240625 </i>
    <i name="bandstr">   3665.76461280 </i>
    <i name="atom">  63607.21096501 </i>
    <i name="e_fr_energy">   -869.03182939 </i>
    <i name="e_wo_entrp">   -868.96942314 </i>
    <i name="e_0_energy">   -869.01102730 </i>
   </energy>
  </scstep>
  <structure>
   <crystal>
    <varray name="basis" >
     <v>      10.33484705       0.00000000       0.00000000 </v>
     <v>       0.00000000      10.33484705       0.00000000 </v>
     <v>       0.00000000       0.00000000      10.33484705 </v>
    </varray>
    <i name="volume">   1103.85533447 </i>
    <varray name="rec_basis" >
     <v>       0.09676002       0.00000000       0.00000000 </v>
     <v>       0.00000000       0.09676002       0.00000000 </v>
     <v>       0.00000000       0.00000000       0.09676002 </v>
    </varray>
   </crystal>
   <varray name="positions" >
    <v>       0.99999938       0.00000098       0.00016562 </v>
    <v>       0.99999934       0.16650171       0.16666795 </v>
    <v>       0.99999944       0.33376685       0.99980627 </v>
    <v>       0.99999930       0.49999902       0.16666782 </v>
    <v>       0.99999934       0.66623220       0.99980624 </v>
    <v>       0.99999930       0.83349920       0.16666804 </v>
    <v>       0.99999926       0.00000094       0.33316834 </v>
    <v>       0.99999929       0.16686131       0.50043282 </v>
    <v>       0.99999932       0.33376689       0.33352795 </v>
    <v>       0.99999942       0.49999901       0.50045706 </v>
    <v>       0.99999924       0.66623220       0.33352798 </v>
    <v>       0.99999935       0.83313964       0.50043280 </v>
    <v>       0.99999934       0.00000094       0.66666541 </v>
    <v>       0.99999937       0.16686130       0.83289896 </v>
    <v>       0.99999946       0.33379006       0.66666536 </v>
    <v>       0.99999948       0.49999895       0.83287482 </v>
    <v>       0.99999946       0.66620903       0.66666528 </v>
    <v>       0.99999940       0.83313970       0.83289890 </v>
    <v>       0.16650234       0.00000098       0.16666790 </v>
    <v>       0.16641578       0.16641522       0.00025253 </v>
    <v>       0.16641576       0.83358588       0.00025250 </v>
    <v>       0.16655682       0.33319083       0.49985824 </v>
    <v>       0.16866287       0.49999901       0.33532981 </v>
    <v>       0.16655664       0.66680837       0.49985819 </v>
    <v>       0.16686199       0.00000091       0.83289887 </v>
    <v>       0.16850551       0.49999888       0.66666533 </v>
    <v>       0.16686172       0.33376669       0.16666777 </v>
    <v>       0.16686169       0.66623236       0.16666783 </v>
    <v>       0.16641583       0.16641530       0.33308135 </v>
    <v>       0.16641579       0.83358573       0.33308146 </v>
    <v>       0.16866051       0.16865981       0.66666471 </v>
    <v>       0.16655674       0.33319051       0.83347364 </v>
    <v>       0.16655659       0.66680864       0.83347363 </v>
    <v>       0.16866046       0.83134129       0.66666454 </v>
    <v>       0.16866304       0.49999894       0.99800449 </v>
    <v>       0.16686195       0.00000085       0.50043296 </v>
    <v>       0.33376897       0.00000098       0.99980620 </v>
    <v>       0.33376876       0.16686111       0.16666781 </v>
    <v>       0.33376876       0.83313992       0.16666782 </v>
    <v>       0.33319337       0.33319112       0.33322327 </v>
    <v>       0.33319325       0.66680797       0.33322314 </v>
    <v>       0.33319273       0.16655616       0.83347357 </v>
    <v>       0.33430839       0.33430480       0.66666817 </v>
    <v>       0.33430668       0.66569446       0.66666883 </v>
    <v>       0.33319257       0.83344508       0.83347361 </v>
    <v>       0.33319318       0.33319103       0.00011123 </v>
    <v>       0.33379238       0.49999892       0.16666764 </v>
    <v>       0.33319316       0.66680805       0.00011136 </v>
    <v>       0.33376905       0.00000097       0.33352799 </v>
    <v>       0.33319309       0.16655633       0.49985827 </v>
    <v>       0.33319287       0.83344492       0.49985821 </v>
    <v>       0.33379221       0.00000092       0.66666541 </v>
    <v>       0.33430824       0.49999881       0.83235635 </v>
    <v>       0.50000051       0.00000098       0.16666779 </v>
    <v>       0.50000037       0.16866242       0.99800443 </v>
    <v>       0.50000050       0.33379024       0.16666768 </v>
    <v>       0.50000047       0.49999884       0.99816283 </v>
    <v>       0.50000055       0.66620880       0.16666764 </v>
    <v>       0.50000048       0.83133868       0.99800433 </v>
    <v>       0.50000055       0.00000093       0.50045712 </v>
    <v>       0.50000045       0.16866231       0.33532986 </v>
    <v>       0.50000156       0.33430527       0.50097546 </v>
    <v>       0.50000056       0.49999884       0.33517210 </v>
    <v>       0.50000227       0.66569247       0.50097524 </v>
    <v>       0.50000054       0.83133880       0.33532973 </v>
    <v>       0.50000044       0.00000093       0.83287479 </v>
    <v>       0.50000048       0.16850497       0.66666532 </v>
    <v>       0.50000144       0.33430502       0.83235656 </v>
    <v>       0.50000144       0.66569406       0.83235684 </v>
    <v>       0.50000048       0.83149653       0.66666525 </v>
    <v>       0.66680710       0.33319110       0.00011134 </v>
    <v>       0.66620806       0.49999897       0.16666768 </v>
    <v>       0.66680723       0.66680809       0.00011153 </v>
    <v>       0.66623142       0.00000089       0.33352798 </v>
    <v>       0.66680733       0.16655630       0.49985828 </v>
    <v>       0.66680750       0.83344500       0.49985811 </v>
    <v>       0.66620819       0.00000091       0.66666527 </v>
    <v>       0.66569199       0.49999880       0.83235629 </v>
    <v>       0.66623164       0.16686108       0.16666788 </v>
    <v>       0.66623167       0.83313991       0.16666786 </v>
    <v>       0.66680703       0.33319119       0.33322331 </v>
    <v>       0.66680723       0.66680798       0.33322310 </v>
    <v>       0.66680763       0.16655615       0.83347349 </v>
    <v>       0.66569322       0.33430460       0.66666872 </v>
    <v>       0.66569359       0.66569449       0.66666867 </v>
    <v>       0.66680775       0.83344513       0.83347367 </v>
    <v>       0.66623137       0.00000087       0.99980625 </v>
    <v>       0.66569288       0.49999774       0.50097509 </v>
    <v>       0.83133624       0.49999904       0.99800452 </v>
    <v>       0.83313726       0.00000091       0.50043285 </v>
    <v>       0.83313754       0.33376671       0.16666790 </v>
    <v>       0.83313752       0.66623237       0.16666792 </v>
    <v>       0.83358344       0.16641525       0.33308141 </v>
    <v>       0.83358338       0.83358570       0.33308146 </v>
    <v>       0.83133880       0.16865969       0.66666452 </v>
    <v>       0.83344258       0.33319042       0.83347361 </v>
    <v>       0.83344275       0.66680870       0.83347372 </v>
    <v>       0.83133882       0.83134137       0.66666436 </v>
    <v>       0.83349693       0.00000094       0.16666806 </v>
    <v>       0.83358357       0.16641517       0.00025257 </v>
    <v>       0.83358347       0.83358583       0.00025260 </v>
    <v>       0.83344235       0.33319077       0.49985815 </v>
    <v>       0.83133636       0.49999908       0.33532958 </v>
    <v>       0.83344258       0.66680837       0.49985799 </v>
    <v>       0.83313734       0.00000094       0.83289883 </v>
    <v>       0.83149375       0.49999887       0.66666519 </v>
    <v>       0.33431120       0.49999883       0.50097605 </v>
   </varray>
  </structure>
  <varray name="forces" >
   <v>       0.00006585      -0.00008381       0.00204764 </v>
   <v>       0.00004989      -0.00214273      -0.00014942 </v>
   <v>       0.00004550      -0.00317357      -0.00345465 </v>
   <v>       0.00007764       0.00009063      -0.00011159 </v>
   <v>       0.00006526       0.00325638      -0.00344864 </v>
   <v>       0.00007332       0.00206338      -0.00010850 </v>
   <v>       0.00004439      -0.00012135      -0.00212030 </v>
   <v>       0.00005093       0.00331258      -0.00310393 </v>
   <v>       0.00004644      -0.00316475       0.00340216 </v>
   <v>       0.00004083       0.00012542      -0.00303382 </v>
   <v>       0.00008199       0.00328382       0.00341912 </v>
   <v>       0.00002332      -0.00343609      -0.00313900 </v>
   <v>       0.00003098      -0.00007346       0.00007132 </v>
   <v>       0.00006416       0.00331113       0.00325284 </v>
   <v>       0.00003593      -0.00305255       0.00009234 </v>
   <v>       0.00004016       0.00009971       0.00315110 </v>
   <v>       0.00001507       0.00313394       0.00006939 </v>
   <v>       0.00003163      -0.00340246       0.00324438 </v>
   <v>      -0.00214239      -0.00010459      -0.00013910 </v>
   <v>      -0.00133367      -0.00135320       0.00118981 </v>
   <v>      -0.00131963       0.00123311       0.00121602 </v>
   <v>       0.00260914       0.00006141       0.00006062 </v>
   <v>      -0.00043868       0.00013804      -0.00039028 </v>
   <v>       0.00262262       0.00000219       0.00001824 </v>
   <v>       0.00328640      -0.00004841       0.00329615 </v>
   <v>      -0.00461675       0.00012511       0.00008349 </v>
   <v>       0.00333978      -0.00316066      -0.00013988 </v>
   <v>       0.00335462       0.00326850      -0.00010750 </v>
   <v>      -0.00131846      -0.00133432      -0.00127286 </v>
   <v>      -0.00131927       0.00119171      -0.00128294 </v>
   <v>      -0.00028696      -0.00027558       0.00017757 </v>
   <v>       0.00254506       0.00005326       0.00011242 </v>
   <v>       0.00256434      -0.00001338       0.00012488 </v>
   <v>      -0.00031944       0.00015871       0.00016287 </v>
   <v>      -0.00049423       0.00011767       0.00034259 </v>
   <v>       0.00329185      -0.00007889      -0.00315405 </v>
   <v>      -0.00330742      -0.00007886      -0.00341162 </v>
   <v>      -0.00327381       0.00331435      -0.00015658 </v>
   <v>      -0.00329993      -0.00342680      -0.00013237 </v>
   <v>      -0.00007375       0.00005669       0.00272024 </v>
   <v>      -0.00010991       0.00004275       0.00273018 </v>
   <v>      -0.00010611       0.00254104       0.00015996 </v>
   <v>       0.00573623       0.00601568      -0.00017033 </v>
   <v>       0.00589393      -0.00591632      -0.00026218 </v>
   <v>      -0.00006984      -0.00265944       0.00015789 </v>
   <v>      -0.00010309       0.00001356      -0.00275595 </v>
   <v>      -0.00320988       0.00011602      -0.00010017 </v>
   <v>      -0.00012432       0.00005993      -0.00275743 </v>
   <v>      -0.00331837      -0.00010554       0.00335363 </v>
   <v>      -0.00011383       0.00260621       0.00002828 </v>
   <v>      -0.00006836      -0.00277150       0.00001429 </v>
   <v>      -0.00320635      -0.00007154       0.00009766 </v>
   <v>       0.00594710       0.00012125      -0.00569744 </v>
   <v>      -0.00006558      -0.00008352      -0.00012442 </v>
   <v>      -0.00005683      -0.00056633       0.00041536 </v>
   <v>      -0.00006447      -0.00308910      -0.00013038 </v>
   <v>      -0.00006811       0.00010460       0.00431270 </v>
   <v>      -0.00009193       0.00316493      -0.00010861 </v>
   <v>      -0.00009534       0.00046767       0.00043327 </v>
   <v>      -0.00004273      -0.00009038      -0.00308655 </v>
   <v>      -0.00004250      -0.00053359      -0.00048014 </v>
   <v>      -0.00014096       0.00608453       0.00584059 </v>
   <v>      -0.00005017       0.00011723      -0.00447913 </v>
   <v>      -0.00020548      -0.00586670       0.00589692 </v>
   <v>      -0.00006890       0.00040035      -0.00047072 </v>
   <v>      -0.00007098      -0.00008123       0.00321443 </v>
   <v>      -0.00004862      -0.00463576       0.00009870 </v>
   <v>      -0.00015754       0.00614931      -0.00565591 </v>
   <v>      -0.00016554      -0.00604106      -0.00571038 </v>
   <v>      -0.00005919       0.00447381       0.00007397 </v>
   <v>       0.00008698       0.00001470      -0.00272338 </v>
   <v>       0.00316307       0.00008781      -0.00013269 </v>
   <v>       0.00007413       0.00002049      -0.00277355 </v>
   <v>       0.00328126      -0.00006538       0.00337027 </v>
   <v>       0.00011007       0.00256207       0.00002362 </v>
   <v>       0.00010344      -0.00270367       0.00004559 </v>
   <v>       0.00319095      -0.00008835       0.00007413 </v>
   <v>      -0.00596204       0.00012734      -0.00573327 </v>
   <v>       0.00322814       0.00330758      -0.00014182 </v>
   <v>       0.00322773      -0.00339807      -0.00011619 </v>
   <v>       0.00007333       0.00002851       0.00269225 </v>
   <v>       0.00006376       0.00001749       0.00276815 </v>
   <v>       0.00006044       0.00251660       0.00014375 </v>
   <v>      -0.00586130       0.00604450      -0.00024541 </v>
   <v>      -0.00586876      -0.00593811      -0.00026962 </v>
   <v>       0.00005062      -0.00265911       0.00009195 </v>
   <v>       0.00324425      -0.00004307      -0.00340035 </v>
   <v>      -0.00598588       0.00023147       0.00592662 </v>
   <v>       0.00057664       0.00008133       0.00031841 </v>
   <v>      -0.00323210      -0.00009960      -0.00313548 </v>
   <v>      -0.00325992      -0.00316888      -0.00014991 </v>
   <v>      -0.00324102       0.00325270      -0.00012243 </v>
   <v>       0.00136824      -0.00134600      -0.00127562 </v>
   <v>       0.00140374       0.00123371      -0.00124728 </v>
   <v>       0.00036624      -0.00028232       0.00015853 </v>
   <v>      -0.00245226       0.00008302       0.00011182 </v>
   <v>      -0.00247281      -0.00001958       0.00007963 </v>
   <v>       0.00039367       0.00015276       0.00013850 </v>
   <v>       0.00220510      -0.00008276      -0.00011884 </v>
   <v>       0.00140253      -0.00134247       0.00121487 </v>
   <v>       0.00143056       0.00125698       0.00120713 </v>
   <v>      -0.00250312       0.00003949       0.00006965 </v>
   <v>       0.00055287       0.00010334      -0.00038769 </v>
   <v>      -0.00254496       0.00003174       0.00007009 </v>
   <v>      -0.00320249      -0.00006877       0.00324902 </v>
   <v>       0.00465793       0.00013033       0.00009798 </v>
   <v>       0.00566598       0.00014307       0.00588532 </v>
  </varray>
  <varray name="stress" >
   <v>      -8.34097051       0.00011963      -0.00023067 </v>
   <v>       0.00011973      -8.33901363       0.00022521 </v>
   <v>      -0.00023051       0.00022531      -8.34256587 </v>
  </varray>
  <energy>
   <i name="e_fr_energy">   -869.03182939 </i>
   <i name="e_wo_entrp">   -869.01102730 </i>
   <i name="e_0_energy">     -0.06240625 </i>
  </energy>
  <time name="totalsc"> 8511.58 8512.23</time>
  <eigenvalues>
   <array>
    <dimension dim="1">band</dimension>
    <dimension dim="2">kpoint</dimension>
    <dimension dim="3">spin</dimension>
    <field>eigene</field>
    <field>occ</field>
    <set>
     <set comment="spin 1">
      <set comment="kpoint 1">
       <r>   -1.9886    1.0000 </r>
       <r>   -0.8827    1.0000 </r>
       <r>   -0.8827    1.0000 </r>
       <r>   -0.8117    1.0000 </r>
       <r>   -0.1988    1.0000 </r>
       <r>   -0.1988    1.0000 </r>
       <r>   -0.1309    1.0000 </r>
       <r>    0.1339    1.0000 </r>
       <r>    0.1339    1.0000 </r>
       <r>    0.2155    1.0000 </r>
       <r>    0.7306    1.0000 </r>
       <r>    0.7395    1.0000 </r>
       <r>    0.7395    1.0000 </r>
       <r>    0.7651    1.0000 </r>
       <r>    0.7651    1.0000 </r>
       <r>    0.8263    1.0000 </r>
       <r>    0.9064    1.0000 </r>
       <r>    1.2572    1.0000 </r>
       <r>    1.2572    1.0000 </r>
       <r>    1.2712    1.0000 </r>
       <r>    1.2908    1.0000 </r>
       <r>    1.2908    1.0000 </r>
       <r>    1.3771    1.0000 </r>
       <r>    1.5250    1.0000 </r>
       <r>    1.5250    1.0000 </r>
       <r>    1.5714    1.0000 </r>
       <r>    1.6736    1.0000 </r>
       <r>    1.7296    1.0000 </r>
       <r>    1.7296    1.0000 </r>
       <r>    1.7597    1.0000 </r>
       <r>    1.8195    1.0000 </r>
       <r>    1.8393    1.0000 </r>
       <r>    1.8393    1.0000 </r>
       <r>    1.9380    1.0000 </r>
       <r>    1.9380    1.0000 </r>
       <r>    1.9633    1.0000 </r>
       <r>    2.2791    1.0000 </r>
       <r>    2.2791    1.0000 </r>
       <r>    2.2792    1.0000 </r>
       <r>    2.3853    1.0000 </r>
       <r>    2.3876    1.0000 </r>
       <r>    2.3876    1.0000 </r>
       <r>    2.4050    1.0000 </r>
       <r>    2.4050    1.0000 </r>
       <r>    2.4096    1.0000 </r>
       <r>    2.4096    1.0000 </r>
       <r>    2.4193    1.0000 </r>
       <r>    2.4267    1.0000 </r>
       <r>    2.4449    1.0000 </r>
       <r>    2.4457    1.0000 </r>
       <r>    2.4457    1.0000 </r>
       <r>    2.4460    1.0000 </r>
       <r>    2.4568    1.0000 </r>
       <r>    2.4568    1.0000 </r>
       <r>    2.4712    1.0000 </r>
       <r>    2.4735    1.0000 </r>
       <r>    2.4735    1.0000 </r>
       <r>    2.5206    1.0000 </r>
       <r>    2.5206    1.0000 </r>
       <r>    2.5436    1.0000 </r>
       <r>    2.5471    1.0000 </r>
       <r>    2.5471    1.0000 </r>
       <r>    2.5680    1.0000 </r>
       <r>    2.5687    1.0000 </r>
       <r>    2.5687    1.0000 </r>
       <r>    2.6413    1.0000 </r>
       <r>    2.6415    1.0000 </r>
       <r>    2.6434    1.0000 </r>
       <r>    2.6434    1.0000 </r>
       <r>    2.6640    1.0000 </r>
       <r>    2.6640    1.0000 </r>
       <r>    2.6759    1.0000 </r>
       <r>    2.6794    1.0000 </r>
       <r>    2.6794    1.0000 </r>
       <r>    2.6802    1.0000 </r>
       <r>    2.7007    1.0000 </r>
       <r>    2.7007    1.0000 </r>
       <r>    2.7071    1.0000 </r>
       <r>    2.7375    1.0000 </r>
       <r>    2.7375    1.0000 </r>
       <r>    2.7389    1.0000 </r>
       <r>    2.7408    1.0000 </r>
       <r>    2.7450    1.0000 </r>
       <r>    2.7450    1.0000 </r>
       <r>    2.7813    1.0000 </r>
       <r>    2.8113    1.0000 </r>
       <r>    2.8113    1.0000 </r>
       <r>    2.8503    1.0000 </r>
       <r>    2.8602    1.0000 </r>
       <r>    2.8602    1.0000 </r>
       <r>    2.9141    1.0000 </r>
       <r>    2.9141    1.0000 </r>
       <r>    2.9579    1.0000 </r>
       <r>    2.9772    1.0000 </r>
       <r>    2.9772    1.0000 </r>
       <r>    2.9961    1.0000 </r>
       <r>    2.9961    1.0000 </r>
       <r>    3.0035    1.0000 </r>
       <r>    3.0099    1.0000 </r>
       <r>    3.0152    1.0000 </r>
       <r>    3.0183    1.0000 </r>
       <r>    3.0183    1.0000 </r>
       <r>    3.0743    1.0000 </r>
       <r>    3.0783    1.0000 </r>
       <r>    3.0783    1.0000 </r>
       <r>    3.0980    1.0000 </r>
       <r>    3.0980    1.0000 </r>
       <r>    3.1190    1.0000 </r>
       <r>    3.1270    1.0000 </r>
       <r>    3.1270    1.0000 </r>
       <r>    3.1897    1.0000 </r>
       <r>    3.2287    1.0000 </r>
       <r>    3.2429    1.0000 </r>
[...]
       <r>     4.4204   181.9765   403.8081 </r>
       <r>     4.4661   184.7834   412.2529 </r>
       <r>     4.5118   183.5692   420.6422 </r>
       <r>     4.5575   179.2715   428.8351 </r>
       <r>     4.6032   174.3393   436.8026 </r>
       <r>     4.6489   171.8017   444.6542 </r>
       <r>     4.6946   174.0212   452.6071 </r>
       <r>     4.7403   181.7030   460.9112 </r>
       <r>     4.7860   193.5657   469.7574 </r>
       <r>     4.8317   206.8301   479.2097 </r>
       <r>     4.8774   218.3450   489.1884 </r>
       <r>     4.9231   225.8423   499.5096 </r>
       <r>     4.9688   228.7218   509.9625 </r>
       <r>     5.0145   228.0396   520.3841 </r>
       <r>     5.0602   225.8405   530.7053 </r>
       <r>     5.1059   224.3003   540.9561 </r>
       <r>     5.1516   225.1054   551.2437 </r>
       <r>     5.1973   229.1625   561.7167 </r>
       <r>     5.2430   236.4291   572.5217 </r>
       <r>     5.2887   245.6783   583.7495 </r>
       <r>     5.3344   254.3773   595.3749 </r>
       <r>     5.3801   259.1385   607.2178 </r>
       <r>     5.4258   256.9506   618.9607 </r>
       <r>     5.4715   246.7057   630.2355 </r>
       <r>     5.5172   230.0347   640.7483 </r>
       <r>     5.5629   210.7170   650.3783 </r>
       <r>     5.6086   192.8705   659.1927 </r>
       <r>     5.6544   179.0163   667.3740 </r>
       <r>     5.7001   169.2411   675.1085 </r>
       <r>     5.7458   161.9051   682.5077 </r>
       <r>     5.7915   155.2647   689.6035 </r>
       <r>     5.8372   148.8342   696.4054 </r>
       <r>     5.8829   143.6545   702.9706 </r>
       <r>     5.9286   141.4904   709.4369 </r>
       <r>     5.9743   143.6327   716.0010 </r>
       <r>     6.0200   150.0601   722.8590 </r>
       <r>     6.0657   159.3610   730.1419 </r>
       <r>     6.1114   169.3883   737.8832 </r>
       <r>     6.1571   178.2924   746.0314 </r>
       <r>     6.2028   185.3641   754.5027 </r>
       <r>     6.2485   191.1333   763.2377 </r>
       <r>     6.2942   196.5957   772.2224 </r>
       <r>     6.3399   202.1234   781.4596 </r>
       <r>     6.3856   206.9848   790.9191 </r>
       <r>     6.4313   209.9416   800.5137 </r>
       <r>     6.4770   210.4004   810.1292 </r>
       <r>     6.5227   209.0073   819.6811 </r>
       <r>     6.5684   207.0381   829.1430 </r>
       <r>     6.6141   205.0933   838.5160 </r>
       <r>     6.6598   202.3570   847.7639 </r>
       <r>     6.7055   197.2529   856.7786 </r>
       <r>     6.7512   189.0662   865.4191 </r>
       <r>     6.7969   179.1387   873.6060 </r>
       <r>     6.8426   170.4997   881.3980 </r>
       <r>     6.8883   166.0830   888.9882 </r>
       <r>     6.9340   166.8763   896.6146 </r>
       <r>     6.9797   171.4214   904.4488 </r>
       <r>     7.0254   176.9721   912.5366 </r>
       <r>     7.0711   181.3252   920.8234 </r>
       <r>     7.1168   183.9529   929.2303 </r>
       <r>     7.1625   185.8301   937.7229 </r>
       <r>     7.2082   188.4318   946.3345 </r>
       <r>     7.2539   192.7778   955.1446 </r>
       <r>     7.2996   198.9488   964.2368 </r>
       <r>     7.3453   205.8887   973.6462 </r>
       <r>     7.3910   211.2650   983.3012 </r>
       <r>     7.4367   211.5958   992.9714 </r>
       <r>     7.4824   203.0918  1002.2529 </r>
       <r>     7.5281   183.2426  1010.6273 </r>
       <r>     7.5738   152.4224  1017.5932 </r>
       <r>     7.6195   114.4323  1022.8229 </r>
       <r>     7.6652    75.3984  1026.2687 </r>
       <r>     7.7109    41.4917  1028.1649 </r>
       <r>     7.7566    16.7154  1028.9288 </r>
       <r>     7.8023     1.9176  1029.0165 </r>
       <r>     7.8480    -4.6760  1028.8028 </r>
       <r>     7.8937    -6.0334  1028.5270 </r>
       <r>     7.9394    -4.9343  1028.3015 </r>
       <r>     7.9851    -3.2353  1028.1537 </r>
       <r>     8.0308    -1.8172  1028.0706 </r>
       <r>     8.0765    -0.9001  1028.0295 </r>
       <r>     8.1222    -0.3993  1028.0112 </r>
       <r>     8.1679    -0.1601  1028.0039 </r>
       <r>     8.2136    -0.0583  1028.0012 </r>
       <r>     8.2593    -0.0193  1028.0004 </r>
       <r>     8.3050    -0.0058  1028.0001 </r>
       <r>     8.3507    -0.0016  1028.0000 </r>
       <r>     8.3964    -0.0004  1028.0000 </r>
       <r>     8.4421    -0.0001  1028.0000 </r>
       <r>     8.4878    -0.0000  1028.0000 </r>
       <r>     8.5335    -0.0000  1028.0000 </r>
       <r>     8.5792    -0.0000  1028.0000 </r>
       <r>     8.6249    -0.0000  1028.0000 </r>
       <r>     8.6706    -0.0000  1028.0000 </r>
       <r>     8.7163    -0.0000  1028.0000 </r>
       <r>     8.7620    -0.0000  1028.0000 </r>
       <r>     8.8077    -0.0000  1028.0000 </r>
       <r>     8.8534    -0.0000  1028.0000 </r>
       <r>     8.8991    -0.0000  1028.0000 </r>
       <r>     8.9448    -0.0000  1028.0000 </r>
       <r>     8.9905     0.0000  1028.0000 </r>
       <r>     9.0362     0.0000  1028.0000 </r>
       <r>     9.0819     0.0000  1028.0000 </r>
       <r>     9.1276     0.0000  1028.0000 </r>
       <r>     9.1733     0.0000  1028.0000 </r>
       <r>     9.2190     0.0000  1028.0000 </r>
       <r>     9.2647     0.0000  1028.0000 </r>
       <r>     9.3104     0.0000  1028.0000 </r>
       <r>     9.3561     0.0000  1028.0000 </r>
       <r>     9.4018     0.0000  1028.0000 </r>
       <r>     9.4475     0.0000  1028.0000 </r>
       <r>     9.4932     0.0000  1028.0000 </r>
       <r>     9.5389     0.0000  1028.0000 </r>
       <r>     9.5847     0.0000  1028.0000 </r>
       <r>     9.6304     0.0000  1028.0000 </r>
       <r>     9.6761     0.0000  1028.0000 </r>
       <r>     9.7218     0.0000  1028.0000 </r>
      </set>
     </set>
    </array>
   </total>
  </dos>
 </calculation>
 <structure name="finalpos" >
  <crystal>
   <varray name="basis" >
    <v>      10.33484705       0.00000000       0.00000000 </v>
    <v>       0.00000000      10.33484705       0.00000000 </v>
    <v>       0.00000000       0.00000000      10.33484705 </v>
   </varray>
   <i name="volume">   1103.85533447 </i>
   <varray name="rec_basis" >
    <v>       0.09676002       0.00000000       0.00000000 </v>
    <v>       0.00000000       0.09676002       0.00000000 </v>
    <v>       0.00000000       0.00000000       0.09676002 </v>
   </varray>
  </crystal>
  <varray name="positions" >
   <v>       0.99999938       0.00000098       0.00016562 </v>
   <v>       0.99999934       0.16650171       0.16666795 </v>
   <v>       0.99999944       0.33376685       0.99980627 </v>
   <v>       0.99999930       0.49999902       0.16666782 </v>
   <v>       0.99999934       0.66623220       0.99980624 </v>
   <v>       0.99999930       0.83349920       0.16666804 </v>
   <v>       0.99999926       0.00000094       0.33316834 </v>
   <v>       0.99999929       0.16686131       0.50043282 </v>
   <v>       0.99999932       0.33376689       0.33352795 </v>
   <v>       0.99999942       0.49999901       0.50045706 </v>
   <v>       0.99999924       0.66623220       0.33352798 </v>
   <v>       0.99999935       0.83313964       0.50043280 </v>
   <v>       0.99999934       0.00000094       0.66666541 </v>
   <v>       0.99999937       0.16686130       0.83289896 </v>
   <v>       0.99999946       0.33379006       0.66666536 </v>
   <v>       0.99999948       0.49999895       0.83287482 </v>
   <v>       0.99999946       0.66620903       0.66666528 </v>
   <v>       0.99999940       0.83313970       0.83289890 </v>
   <v>       0.16650234       0.00000098       0.16666790 </v>
   <v>       0.16641578       0.16641522       0.00025253 </v>
   <v>       0.16641576       0.83358588       0.00025250 </v>
   <v>       0.16655682       0.33319083       0.49985824 </v>
   <v>       0.16866287       0.49999901       0.33532981 </v>
   <v>       0.16655664       0.66680837       0.49985819 </v>
   <v>       0.16686199       0.00000091       0.83289887 </v>
   <v>       0.16850551       0.49999888       0.66666533 </v>
   <v>       0.16686172       0.33376669       0.16666777 </v>
   <v>       0.16686169       0.66623236       0.16666783 </v>
   <v>       0.16641583       0.16641530       0.33308135 </v>
   <v>       0.16641579       0.83358573       0.33308146 </v>
   <v>       0.16866051       0.16865981       0.66666471 </v>
   <v>       0.16655674       0.33319051       0.83347364 </v>
   <v>       0.16655659       0.66680864       0.83347363 </v>
   <v>       0.16866046       0.83134129       0.66666454 </v>
   <v>       0.16866304       0.49999894       0.99800449 </v>
   <v>       0.16686195       0.00000085       0.50043296 </v>
   <v>       0.33376897       0.00000098       0.99980620 </v>
   <v>       0.33376876       0.16686111       0.16666781 </v>
   <v>       0.33376876       0.83313992       0.16666782 </v>
   <v>       0.33319337       0.33319112       0.33322327 </v>
   <v>       0.33319325       0.66680797       0.33322314 </v>
   <v>       0.33319273       0.16655616       0.83347357 </v>
   <v>       0.33430839       0.33430480       0.66666817 </v>
   <v>       0.33430668       0.66569446       0.66666883 </v>
   <v>       0.33319257       0.83344508       0.83347361 </v>
   <v>       0.33319318       0.33319103       0.00011123 </v>
   <v>       0.33379238       0.49999892       0.16666764 </v>
   <v>       0.33319316       0.66680805       0.00011136 </v>
   <v>       0.33376905       0.00000097       0.33352799 </v>
   <v>       0.33319309       0.16655633       0.49985827 </v>
   <v>       0.33319287       0.83344492       0.49985821 </v>
   <v>       0.33379221       0.00000092       0.66666541 </v>
   <v>       0.33430824       0.49999881       0.83235635 </v>
   <v>       0.50000051       0.00000098       0.16666779 </v>
   <v>       0.50000037       0.16866242       0.99800443 </v>
   <v>       0.50000050       0.33379024       0.16666768 </v>
   <v>       0.50000047       0.49999884       0.99816283 </v>
   <v>       0.50000055       0.66620880       0.16666764 </v>
   <v>       0.50000048       0.83133868       0.99800433 </v>
   <v>       0.50000055       0.00000093       0.50045712 </v>
   <v>       0.50000045       0.16866231       0.33532986 </v>
   <v>       0.50000156       0.33430527       0.50097546 </v>
   <v>       0.50000056       0.49999884       0.33517210 </v>
   <v>       0.50000227       0.66569247       0.50097524 </v>
   <v>       0.50000054       0.83133880       0.33532973 </v>
   <v>       0.50000044       0.00000093       0.83287479 </v>
   <v>       0.50000048       0.16850497       0.66666532 </v>
   <v>       0.50000144       0.33430502       0.83235656 </v>
   <v>       0.50000144       0.66569406       0.83235684 </v>
   <v>       0.50000048       0.83149653       0.66666525 </v>
   <v>       0.66680710       0.33319110       0.00011134 </v>
   <v>       0.66620806       0.49999897       0.16666768 </v>
   <v>       0.66680723       0.66680809       0.00011153 </v>
   <v>       0.66623142       0.00000089       0.33352798 </v>
   <v>       0.66680733       0.16655630       0.49985828 </v>
   <v>       0.66680750       0.83344500       0.49985811 </v>
   <v>       0.66620819       0.00000091       0.66666527 </v>
   <v>       0.66569199       0.49999880       0.83235629 </v>
   <v>       0.66623164       0.16686108       0.16666788 </v>
   <v>       0.66623167       0.83313991       0.16666786 </v>
   <v>       0.66680703       0.33319119       0.33322331 </v>
   <v>       0.66680723       0.66680798       0.33322310 </v>
   <v>       0.66680763       0.16655615       0.83347349 </v>
   <v>       0.66569322       0.33430460       0.66666872 </v>
   <v>       0.66569359       0.66569449       0.66666867 </v>
   <v>       0.66680775       0.83344513       0.83347367 </v>
   <v>       0.66623137       0.00000087       0.99980625 </v>
   <v>       0.66569288       0.49999774       0.50097509 </v>
   <v>       0.83133624       0.49999904       0.99800452 </v>
   <v>       0.83313726       0.00000091       0.50043285 </v>
   <v>       0.83313754       0.33376671       0.16666790 </v>
   <v>       0.83313752       0.66623237       0.16666792 </v>
   <v>       0.83358344       0.16641525       0.33308141 </v>
   <v>       0.83358338       0.83358570       0.33308146 </v>
   <v>       0.83133880       0.16865969       0.66666452 </v>
   <v>       0.83344258       0.33319042       0.83347361 </v>
   <v>       0.83344275       0.66680870       0.83347372 </v>
   <v>       0.83133882       0.83134137       0.66666436 </v>
   <v>       0.83349693       0.00000094       0.16666806 </v>
   <v>       0.83358357       0.16641517       0.00025257 </v>
   <v>       0.83358347       0.83358583       0.00025260 </v>
   <v>       0.83344235       0.33319077       0.49985815 </v>
   <v>       0.83133636       0.49999908       0.33532958 </v>
   <v>       0.83344258       0.66680837       0.49985799 </v>
   <v>       0.83313734       0.00000094       0.83289883 </v>
   <v>       0.83149375       0.49999887       0.66666519 </v>
   <v>       0.33431120       0.49999883       0.50097605 </v>
  </varray>
  <varray name="velocities" >
   <v>       0.00000000       0.00000000       0.00000000 </v>
   <v>       0.00000000       0.00000000       0.00000000 </v>
   <v>       0.00000000       0.00000000       0.00000000 </v>
   <v>       0.00000000       0.00000000       0.00000000 </v>
   <v>       0.00000000       0.00000000       0.00000000 </v>
   <v>       0.00000000       0.00000000       0.00000000 </v>
   <v>       0.00000000       0.00000000       0.00000000 </v>
   <v>       0.00000000       0.00000000       0.00000000 </v>
   <v>       0.00000000       0.00000000       0.00000000 </v>
   <v>       0.00000000       0.00000000       0.00000000 </v>
   <v>       0.00000000       0.00000000       0.00000000 </v>
   <v>       0.00000000       0.00000000       0.00000000 </v>
   <v>       0.00000000       0.00000000       0.00000000 </v>
   <v>       0.00000000       0.00000000       0.00000000 </v>
   <v>       0.00000000       0.00000000       0.00000000 </v>
   <v>       0.00000000       0.00000000       0.00000000 </v>
   <v>       0.00000000       0.00000000       0.00000000 </v>
   <v>       0.00000000       0.00000000       0.00000000 </v>
   <v>       0.00000000       0.00000000       0.00000000 </v>
   <v>       0.00000000       0.00000000       0.00000000 </v>
   <v>       0.00000000       0.00000000       0.00000000 </v>
   <v>       0.00000000       0.00000000       0.00000000 </v>
   <v>       0.00000000       0.00000000       0.00000000 </v>
   <v>       0.00000000       0.00000000       0.00000000 </v>
   <v>       0.00000000       0.00000000       0.00000000 </v>
   <v>       0.00000000       0.00000000       0.00000000 </v>
   <v>       0.00000000       0.00000000       0.00000000 </v>
   <v>       0.00000000       0.00000000       0.00000000 </v>
   <v>       0.00000000       0.00000000       0.00000000 </v>
   <v>       0.00000000       0.00000000       0.00000000 </v>
   <v>       0.00000000       0.00000000       0.00000000 </v>
   <v>       0.00000000       0.00000000       0.00000000 </v>
   <v>       0.00000000       0.00000000       0.00000000 </v>
   <v>       0.00000000       0.00000000       0.00000000 </v>
   <v>       0.00000000       0.00000000       0.00000000 </v>
   <v>       0.00000000       0.00000000       0.00000000 </v>
   <v>       0.00000000       0.00000000       0.00000000 </v>
   <v>       0.00000000       0.00000000       0.00000000 </v>
   <v>       0.00000000       0.00000000       0.00000000 </v>
   <v>       0.00000000       0.00000000       0.00000000 </v>
   <v>       0.00000000       0.00000000       0.00000000 </v>
   <v>       0.00000000       0.00000000       0.00000000 </v>
   <v>       0.00000000       0.00000000       0.00000000 </v>
   <v>       0.00000000       0.00000000       0.00000000 </v>
   <v>       0.00000000       0.00000000       0.00000000 </v>
   <v>       0.00000000       0.00000000       0.00000000 </v>
   <v>       0.00000000       0.00000000       0.00000000 </v>
   <v>       0.00000000       0.00000000       0.00000000 </v>
   <v>       0.00000000       0.00000000       0.00000000 </v>
   <v>       0.00000000       0.00000000       0.00000000 </v>
   <v>       0.00000000       0.00000000       0.00000000 </v>
   <v>       0.00000000       0.00000000       0.00000000 </v>
   <v>       0.00000000       0.00000000       0.00000000 </v>
   <v>       0.00000000       0.00000000       0.00000000 </v>
   <v>       0.00000000       0.00000000       0.00000000 </v>
   <v>       0.00000000       0.00000000       0.00000000 </v>
   <v>       0.00000000       0.00000000       0.00000000 </v>
   <v>       0.00000000       0.00000000       0.00000000 </v>
   <v>       0.00000000       0.00000000       0.00000000 </v>
   <v>       0.00000000       0.00000000       0.00000000 </v>
   <v>       0.00000000       0.00000000       0.00000000 </v>
   <v>       0.00000000       0.00000000       0.00000000 </v>
   <v>       0.00000000       0.00000000       0.00000000 </v>
   <v>       0.00000000       0.00000000       0.00000000 </v>
   <v>       0.00000000       0.00000000       0.00000000 </v>
   <v>       0.00000000       0.00000000       0.00000000 </v>
   <v>       0.00000000       0.00000000       0.00000000 </v>
   <v>       0.00000000       0.00000000       0.00000000 </v>
   <v>       0.00000000       0.00000000       0.00000000 </v>
   <v>       0.00000000       0.00000000       0.00000000 </v>
   <v>       0.00000000       0.00000000       0.00000000 </v>
   <v>       0.00000000       0.00000000       0.00000000 </v>
   <v>       0.00000000       0.00000000       0.00000000 </v>
   <v>       0.00000000       0.00000000       0.00000000 </v>
   <v>       0.00000000       0.00000000       0.00000000 </v>
   <v>       0.00000000       0.00000000       0.00000000 </v>
   <v>       0.00000000       0.00000000       0.00000000 </v>
   <v>       0.00000000       0.00000000       0.00000000 </v>
   <v>       0.00000000       0.00000000       0.00000000 </v>
   <v>       0.00000000       0.00000000       0.00000000 </v>
   <v>       0.00000000       0.00000000       0.00000000 </v>
   <v>       0.00000000       0.00000000       0.00000000 </v>
   <v>       0.00000000       0.00000000       0.00000000 </v>
   <v>       0.00000000       0.00000000       0.00000000 </v>
   <v>       0.00000000       0.00000000       0.00000000 </v>
   <v>       0.00000000       0.00000000       0.00000000 </v>
   <v>       0.00000000       0.00000000       0.00000000 </v>
   <v>       0.00000000       0.00000000       0.00000000 </v>
   <v>       0.00000000       0.00000000       0.00000000 </v>
   <v>       0.00000000       0.00000000       0.00000000 </v>
   <v>       0.00000000       0.00000000       0.00000000 </v>
   <v>       0.00000000       0.00000000       0.00000000 </v>
   <v>       0.00000000       0.00000000       0.00000000 </v>
   <v>       0.00000000       0.00000000       0.00000000 </v>
   <v>       0.00000000       0.00000000       0.00000000 </v>
   <v>       0.00000000       0.00000000       0.00000000 </v>
   <v>       0.00000000       0.00000000       0.00000000 </v>
   <v>       0.00000000       0.00000000       0.00000000 </v>
   <v>       0.00000000       0.00000000       0.00000000 </v>
   <v>       0.00000000       0.00000000       0.00000000 </v>
   <v>       0.00000000       0.00000000       0.00000000 </v>
   <v>       0.00000000       0.00000000       0.00000000 </v>
   <v>       0.00000000       0.00000000       0.00000000 </v>
   <v>       0.00000000       0.00000000       0.00000000 </v>
   <v>       0.00000000       0.00000000       0.00000000 </v>
   <v>       0.00000000       0.00000000       0.00000000 </v>
   <v>       0.00000000       0.00000000       0.00000000 </v>
  </varray>
 </structure>
</modeling>
