 108 108   0   0
  0.1022088E+02  0.1033485E-08  0.1033485E-08  0.1033485E-08  0.5000000E-15
  1.000000000000000E-004
  CAR 
 Opt                                     
      9.96475908     -8.84236274  301      7.04273904      1.00000000
     -8.842  0.0000E+00  0.0000E+00
     -8.780  0.0000E+00  0.0000E+00
     -8.717  0.0000E+00  0.0000E+00
     -8.654  0.0000E+00  0.0000E+00
     -8.592  0.0000E+00  0.0000E+00
     -8.529  0.0000E+00  0.0000E+00
     -8.466 -0.1661E-28 -0.1041E-29
     -8.404 -0.2336E-26 -0.1475E-27
     -8.341 -0.2711E-24 -0.1714E-25
     -8.278 -0.2579E-22 -0.1634E-23
     -8.215 -0.2011E-20 -0.1277E-21
     -8.153 -0.1285E-18 -0.8185E-20
     -8.090 -0.6728E-17 -0.4300E-18
     -8.027 -0.2884E-15 -0.1851E-16
     -7.965 -0.9793E-14 -0.6324E-15
     -7.902 -0.2803E-12 -0.1820E-13
     -7.839 -0.6546E-11 -0.4286E-12
     -7.777 -0.1248E-09 -0.8250E-11
     -7.714 -0.1938E-08 -0.1297E-09
     -7.651 -0.2448E-07 -0.1664E-08
     -7.589 -0.2510E-06 -0.1740E-07
     -7.526 -0.2082E-05 -0.1479E-06
     -7.463 -0.1391E-04 -0.1020E-05
     -7.400 -0.7437E-04 -0.5682E-05
     -7.338 -0.3147E-03 -0.2541E-04
     -7.275 -0.1035E-02 -0.9031E-04
     -7.212 -0.2550E-02 -0.2501E-03
     -7.150 -0.4271E-02 -0.5179E-03
     -7.087 -0.3050E-02 -0.7092E-03
     -7.024  0.7039E-02 -0.2679E-03
     -6.962  0.3002E-01  0.1614E-02
     -6.899  0.6019E-01  0.5388E-02
     -6.836  0.8127E-01  0.1048E-01
     -6.774  0.7892E-01  0.1543E-01
     -6.711  0.5482E-01  0.1887E-01
     -6.648  0.2496E-01  0.2043E-01
     -6.586  0.4274E-02  0.2070E-01
     -6.523 -0.3740E-02  0.2047E-01
     -6.460 -0.4039E-02  0.2021E-01
     -6.397 -0.2217E-02  0.2007E-01
     -6.335 -0.8504E-03  0.2002E-01
     -6.272 -0.2465E-03  0.2000E-01
     -6.209 -0.5576E-04  0.2000E-01
     -6.147 -0.1001E-04  0.2000E-01
     -6.084 -0.1440E-05  0.2000E-01
     -6.021 -0.1669E-06  0.2000E-01
     -5.959 -0.1567E-07  0.2000E-01
     -5.896 -0.1194E-08  0.2000E-01
     -5.833 -0.7409E-10  0.2000E-01
     -5.771 -0.3746E-11  0.2000E-01
     -5.708 -0.1546E-12  0.2000E-01
     -5.645 -0.5207E-14  0.2000E-01
     -5.582 -0.1417E-15  0.2000E-01
     -5.520  0.0000E+00  0.2000E-01
     -5.457  0.0000E+00  0.2000E-01
     -5.394  0.0000E+00  0.2000E-01
     -5.332  0.0000E+00  0.2000E-01
     -5.269  0.0000E+00  0.2000E-01
     -5.206  0.0000E+00  0.2000E-01
     -5.144  0.0000E+00  0.2000E-01
     -5.081  0.0000E+00  0.2000E-01
     -5.018  0.0000E+00  0.2000E-01
     -4.956  0.0000E+00  0.2000E-01
     -4.893  0.0000E+00  0.2000E-01
     -4.830  0.0000E+00  0.2000E-01
     -4.767  0.0000E+00  0.2000E-01
     -4.705  0.0000E+00  0.2000E-01
     -4.642  0.0000E+00  0.2000E-01
     -4.579  0.0000E+00  0.2000E-01
     -4.517  0.0000E+00  0.2000E-01
     -4.454  0.0000E+00  0.2000E-01
     -4.391  0.0000E+00  0.2000E-01
     -4.329  0.0000E+00  0.2000E-01
     -4.266  0.0000E+00  0.2000E-01
     -4.203  0.0000E+00  0.2000E-01
     -4.141  0.0000E+00  0.2000E-01
     -4.078  0.0000E+00  0.2000E-01
     -4.015  0.0000E+00  0.2000E-01
     -3.953  0.0000E+00  0.2000E-01
     -3.890  0.0000E+00  0.2000E-01
     -3.827  0.0000E+00  0.2000E-01
     -3.764  0.0000E+00  0.2000E-01
     -3.702  0.0000E+00  0.2000E-01
     -3.639  0.0000E+00  0.2000E-01
     -3.576  0.0000E+00  0.2000E-01
     -3.514  0.0000E+00  0.2000E-01
     -3.451  0.0000E+00  0.2000E-01
     -3.388  0.0000E+00  0.2000E-01
     -3.326  0.0000E+00  0.2000E-01
     -3.263 -0.4089E-30  0.2000E-01
     -3.200 -0.6131E-28  0.2000E-01
     -3.138 -0.7581E-26  0.2000E-01
     -3.075 -0.7685E-24  0.2000E-01
     -3.012 -0.6387E-22  0.2000E-01
     -2.949 -0.4350E-20  0.2000E-01
     -2.887 -0.2427E-18  0.2000E-01
     -2.824 -0.1109E-16  0.2000E-01
     -2.761 -0.4019E-15  0.2000E-01
     -2.699 -0.1228E-13  0.2000E-01
     -2.636 -0.3062E-12  0.2000E-01
     -2.573 -0.6236E-11  0.2000E-01
     -2.511 -0.1036E-09  0.2000E-01
     -2.448 -0.1402E-08  0.2000E-01
     -2.385 -0.1543E-07  0.2000E-01
     -2.323 -0.1380E-06  0.2000E-01
     -2.260 -0.9992E-06  0.2000E-01
     -2.197 -0.5842E-05  0.2000E-01
     -2.134 -0.2746E-04  0.2000E-01
     -2.072 -0.1030E-03  0.1999E-01
     -2.009 -0.3052E-03  0.1997E-01
     -1.946 -0.6973E-03  0.1993E-01
     -1.884 -0.1158E-02  0.1986E-01
     -1.821 -0.1101E-02  0.1979E-01
     -1.758  0.6408E-03  0.1983E-01
     -1.696  0.5440E-02  0.2017E-01
     -1.633  0.1395E-01  0.2104E-01
     -1.570  0.2513E-01  0.2262E-01
     -1.508  0.3607E-01  0.2488E-01
     -1.445  0.4344E-01  0.2760E-01
     -1.382  0.4597E-01  0.3048E-01
     -1.320  0.4613E-01  0.3338E-01
     -1.257  0.4913E-01  0.3646E-01
     -1.194  0.5814E-01  0.4010E-01
     -1.131  0.6946E-01  0.4446E-01
     -1.069  0.7473E-01  0.4914E-01
     -1.006  0.7063E-01  0.5357E-01
     -0.943  0.6432E-01  0.5760E-01
     -0.881  0.6659E-01  0.6177E-01
     -0.818  0.8065E-01  0.6683E-01
     -0.755  0.9962E-01  0.7308E-01
     -0.693  0.1139E+00  0.8021E-01
     -0.630  0.1193E+00  0.8769E-01
     -0.567  0.1182E+00  0.9511E-01
     -0.505  0.1136E+00  0.1022E+00
     -0.442  0.1065E+00  0.1089E+00
     -0.379  0.1013E+00  0.1153E+00
     -0.316  0.1065E+00  0.1219E+00
     -0.254  0.1235E+00  0.1297E+00
     -0.191  0.1374E+00  0.1383E+00
     -0.128  0.1307E+00  0.1465E+00
     -0.066  0.1056E+00  0.1531E+00
     -0.003  0.8339E-01  0.1583E+00
      0.060  0.8110E-01  0.1634E+00
      0.122  0.9739E-01  0.1695E+00
      0.185  0.1215E+00  0.1771E+00
      0.248  0.1449E+00  0.1862E+00
      0.310  0.1627E+00  0.1964E+00
      0.373  0.1707E+00  0.2071E+00
      0.436  0.1672E+00  0.2176E+00
      0.499  0.1543E+00  0.2273E+00
      0.561  0.1367E+00  0.2358E+00
      0.624  0.1216E+00  0.2435E+00
      0.687  0.1149E+00  0.2507E+00
      0.749  0.1174E+00  0.2580E+00
      0.812  0.1256E+00  0.2659E+00
      0.875  0.1367E+00  0.2745E+00
      0.937  0.1505E+00  0.2839E+00
      1.000  0.1654E+00  0.2943E+00
      1.063  0.1804E+00  0.3056E+00
      1.125  0.1959E+00  0.3179E+00
      1.188  0.2109E+00  0.3311E+00
      1.251  0.2193E+00  0.3448E+00
      1.313  0.2164E+00  0.3584E+00
      1.376  0.2051E+00  0.3713E+00
      1.439  0.1933E+00  0.3834E+00
      1.502  0.1887E+00  0.3952E+00
      1.564  0.1985E+00  0.4076E+00
      1.627  0.2273E+00  0.4219E+00
      1.690  0.2677E+00  0.4387E+00
      1.752  0.2995E+00  0.4575E+00
      1.815  0.3062E+00  0.4767E+00
      1.878  0.2951E+00  0.4952E+00
      1.940  0.2978E+00  0.5138E+00
      2.003  0.3480E+00  0.5356E+00
      2.066  0.4567E+00  0.5643E+00
      2.128  0.6065E+00  0.6023E+00
      2.191  0.7641E+00  0.6502E+00
      2.254  0.8985E+00  0.7065E+00
      2.317  0.9886E+00  0.7685E+00
      2.379  0.1028E+01  0.8329E+00
      2.442  0.1029E+01  0.8974E+00
      2.505  0.1017E+01  0.9612E+00
      2.567  0.1015E+01  0.1025E+01
      2.630  0.1031E+01  0.1089E+01
      2.693  0.1062E+01  0.1156E+01
      2.755  0.1107E+01  0.1225E+01
      2.818  0.1168E+01  0.1299E+01
      2.881  0.1246E+01  0.1377E+01
      2.943  0.1333E+01  0.1460E+01
      3.006  0.1409E+01  0.1549E+01
      3.069  0.1466E+01  0.1641E+01
      3.132  0.1515E+01  0.1736E+01
      3.194  0.1575E+01  0.1834E+01
      3.257  0.1637E+01  0.1937E+01
      3.320  0.1673E+01  0.2042E+01
      3.382  0.1666E+01  0.2146E+01
      3.445  0.1628E+01  0.2248E+01
      3.508  0.1579E+01  0.2347E+01
      3.570  0.1535E+01  0.2444E+01
      3.633  0.1505E+01  0.2538E+01
      3.696  0.1499E+01  0.2632E+01
      3.758  0.1508E+01  0.2726E+01
      3.821  0.1501E+01  0.2820E+01
      3.884  0.1456E+01  0.2912E+01
      3.946  0.1384E+01  0.2999E+01
      4.009  0.1322E+01  0.3081E+01
      4.072  0.1296E+01  0.3163E+01
      4.135  0.1301E+01  0.3244E+01
      4.197  0.1305E+01  0.3326E+01
      4.260  0.1289E+01  0.3407E+01
      4.323  0.1265E+01  0.3486E+01
      4.385  0.1272E+01  0.3566E+01
      4.448  0.1327E+01  0.3649E+01
      4.511  0.1418E+01  0.3738E+01
      4.573  0.1524E+01  0.3834E+01
      4.636  0.1637E+01  0.3936E+01
      4.699  0.1748E+01  0.4046E+01
      4.761  0.1819E+01  0.4160E+01
      4.824  0.1814E+01  0.4274E+01
      4.887  0.1749E+01  0.4383E+01
      4.950  0.1695E+01  0.4489E+01
      5.012  0.1729E+01  0.4598E+01
      5.075  0.1861E+01  0.4715E+01
      5.138  0.2035E+01  0.4842E+01
      5.200  0.2173E+01  0.4978E+01
      5.263  0.2239E+01  0.5119E+01
      5.326  0.2251E+01  0.5260E+01
      5.388  0.2252E+01  0.5401E+01
      5.451  0.2280E+01  0.5544E+01
      5.514  0.2351E+01  0.5691E+01
      5.576  0.2457E+01  0.5845E+01
      5.639  0.2558E+01  0.6006E+01
      5.702  0.2584E+01  0.6168E+01
      5.765  0.2487E+01  0.6324E+01
      5.827  0.2280E+01  0.6467E+01
      5.890  0.2035E+01  0.6594E+01
      5.953  0.1821E+01  0.6708E+01
      6.015  0.1659E+01  0.6812E+01
      6.078  0.1540E+01  0.6909E+01
      6.141  0.1458E+01  0.7000E+01
      6.203  0.1426E+01  0.7090E+01
      6.266  0.1448E+01  0.7180E+01
      6.329  0.1511E+01  0.7275E+01
      6.391  0.1592E+01  0.7375E+01
      6.454  0.1674E+01  0.7480E+01
      6.517  0.1755E+01  0.7590E+01
      6.579  0.1842E+01  0.7705E+01
      6.642  0.1942E+01  0.7827E+01
      6.705  0.2029E+01  0.7954E+01
      6.768  0.2062E+01  0.8084E+01
      6.830  0.2030E+01  0.8211E+01
      6.893  0.1972E+01  0.8335E+01
      6.956  0.1930E+01  0.8456E+01
      7.018  0.1898E+01  0.8574E+01
      7.081  0.1840E+01  0.8690E+01
      7.144  0.1757E+01  0.8800E+01
      7.206  0.1696E+01  0.8906E+01
      7.269  0.1696E+01  0.9013E+01
      7.332  0.1740E+01  0.9122E+01
      7.394  0.1780E+01  0.9233E+01
      7.457  0.1792E+01  0.9346E+01
      7.520  0.1797E+01  0.9458E+01
      7.583  0.1839E+01  0.9574E+01
      7.645  0.1951E+01  0.9696E+01
      7.708  0.2126E+01  0.9829E+01
      7.771  0.2301E+01  0.9973E+01
      7.833  0.2354E+01  0.1012E+02
      7.896  0.2153E+01  0.1026E+02
      7.959  0.1664E+01  0.1036E+02
      8.021  0.1015E+01  0.1042E+02
      8.084  0.4276E+00  0.1045E+02
      8.147  0.6112E-01  0.1045E+02
      8.209 -0.7722E-01  0.1045E+02
      8.272 -0.8167E-01  0.1044E+02
      8.335 -0.4704E-01  0.1044E+02
      8.397 -0.1938E-01  0.1044E+02
      8.460 -0.6122E-02  0.1044E+02
      8.523 -0.1527E-02  0.1044E+02
      8.586 -0.3050E-03  0.1044E+02
      8.648 -0.4922E-04  0.1044E+02
      8.711 -0.6449E-05  0.1044E+02
      8.774 -0.6886E-06  0.1044E+02
      8.836 -0.6006E-07  0.1044E+02
      8.899 -0.4287E-08  0.1044E+02
      8.962 -0.2507E-09  0.1044E+02
      9.024 -0.1202E-10  0.1044E+02
      9.087 -0.4731E-12  0.1044E+02
      9.150 -0.1544E-13  0.1044E+02
      9.212 -0.3143E-15  0.1044E+02
      9.275  0.0000E+00  0.1044E+02
      9.338  0.0000E+00  0.1044E+02
      9.401  0.0000E+00  0.1044E+02
      9.463  0.0000E+00  0.1044E+02
      9.526  0.0000E+00  0.1044E+02
      9.589  0.0000E+00  0.1044E+02
      9.651  0.0000E+00  0.1044E+02
      9.714  0.0000E+00  0.1044E+02
      9.777  0.0000E+00  0.1044E+02
      9.839  0.0000E+00  0.1044E+02
      9.902  0.0000E+00  0.1044E+02
      9.965  0.0000E+00  0.1044E+02
