  108  108  100    1
  0.1022088E+02  0.1033485E-08  0.1033485E-08  0.1033485E-08  0.5000000E-15
  1.000000000000000E-004
  CAR 
 Opt                                     
    862     32    522
 
  0.1250000E+00  0.1250000E+00  0.1250000E+00  0.3125000E-01
    1       -6.842363   1.000000
    2       -1.618639   1.000000
    3       -0.785489   1.000000
    4       -0.785484   1.000000
    5       -0.606276   1.000000
    6       -0.209709   1.000000
    7       -0.174166   1.000000
    8       -0.174163   1.000000
    9        0.247983   1.000000
   10        0.247985   1.000000
   11        0.482868   1.000000
   12        0.552345   1.000000
   13        0.552350   1.000000
   14        0.848334   1.000000
   15        1.026733   1.000000
   16        1.031489   1.000000
   17        1.031491   1.000000
   18        1.194229   1.000000
   19        1.328737   1.000000
   20        1.328741   1.000000
   21        1.383843   1.000000
   22        1.561186   1.000000
   23        1.561187   1.000000
   24        1.712256   1.000000
   25        1.712259   1.000000
   26        1.725868   1.000000
   27        1.743624   1.000000
   28        1.893474   1.000000
   29        1.893476   1.000000
   30        1.914503   1.000000
   31        2.098605   1.000000
   32        2.098610   1.000000
   33        2.104372   1.000000
   34        2.111946   1.000000
   35        2.144563   1.000000
   36        2.144569   1.000000
   37        2.189856   1.000000
   38        2.284198   1.000000
   39        2.284200   1.000000
   40        2.549755   1.000000
   41        2.571839   1.000000
   42        2.571840   1.000000
   43        2.602629   1.000000
   44        2.677043   1.000000
   45        2.677045   1.000000
   46        2.678266   1.000000
   47        2.688781   1.000000
   48        2.688785   1.000000
   49        2.698877   1.000000
   50        2.702564   1.000000
   51        2.702568   1.000000
   52        2.724759   1.000000
   53        2.735280   1.000000
   54        2.739572   1.000000
   55        2.739573   1.000000
   56        2.753171   1.000000
   57        2.757318   1.000000
   58        2.757320   1.000000
   59        2.757930   1.000000
   60        2.765363   1.000000
   61        2.765368   1.000000
   62        2.822155   1.000000
   63        2.822157   1.000000
   64        2.847900   1.000000
   65        2.849009   1.000000
   66        2.849010   1.000000
   67        2.864552   1.000000
   68        2.864556   1.000000
   69        2.882821   1.000000
   70        2.919806   1.000000
   71        2.929743   1.000000
   72        2.929744   1.000000
   73        2.948517   1.000000
   74        2.954101   1.000000
   75        2.954105   1.000000
   76        2.972183   1.000000
   77        2.972184   1.000000
   78        2.976913   1.000000
   79        2.983953   1.000000
   80        2.994633   1.000000
   81        2.998122   1.000000
   82        2.998127   1.000000
   83        3.017387   1.000000
   84        3.025330   1.000000
   85        3.025334   1.000000
   86        3.064027   1.000000
   87        3.064030   1.000000
   88        3.072926   1.000000
   89        3.072927   1.000000
   90        3.087941   1.000000
   91        3.143152   1.000000
   92        3.148172   1.000000
   93        3.151159   1.000000
   94        3.151161   1.000000
   95        3.257459   1.000000
   96        3.257460   1.000000
   97        3.263337   1.000000
   98        3.274757   1.000000
   99        3.274759   1.000000
  100        3.278557   1.000000
  101        3.296755   1.000000
  102        3.298641   1.000000
  103        3.298645   1.000000
  104        3.327177   1.000000
  105        3.327179   1.000000
  106        3.367304   1.000000
  107        3.369718   1.000000
  108        3.369719   1.000000
  109        3.384326   1.000000
  110        3.389500   1.000000
  111        3.389503   1.000000
  112        3.509855   1.000000
  113        3.509857   1.000000
  114        3.509998   1.000000
  115        3.532266   1.000000
  116        3.537218   1.000000
  117        3.537221   1.000000
  118        3.548215   1.000000
  119        3.557920   1.000000
  120        3.557922   1.000000
  121        3.559253   1.000000
  122        3.590496   1.000000
  123        3.590497   1.000000
  124        3.653074   1.000000
  125        3.653075   1.000000
  126        3.656006   1.000000
  127        3.666833   1.000000
  128        3.669189   1.000000
  129        3.677702   1.000000
  130        3.677707   1.000000
  131        3.694652   1.000000
  132        3.694653   1.000000
  133        3.706128   1.000000
  134        3.706129   1.000000
  135        3.728111   1.000000
  136        3.735189   1.000000
  137        3.735192   1.000000
  138        3.754143   1.000000
  139        3.766452   1.000000
  140        3.766458   1.000000
  141        3.780359   1.000000
  142        3.789341   1.000000
  143        3.791402   1.000000
  144        3.792967   1.000000
  145        3.792969   1.000000
  146        3.848435   1.000000
  147        3.848436   1.000000
  148        3.888941   1.000000
  149        3.904651   1.000000
  150        3.904654   1.000000
  151        3.907342   1.000000
  152        3.930837   1.000000
  153        3.930839   1.000000
  154        3.952154   1.000000
  155        3.952158   1.000000
  156        3.953821   1.000000
  157        3.976289   1.000000
  158        3.976293   1.000000
  159        4.010598   1.000000
  160        4.048032   1.000000
  161        4.048034   1.000000
  162        4.053799   1.000000
  163        4.087830   1.000000
  164        4.120835   1.000000
  165        4.120836   1.000000
  166        4.153682   1.000000
  167        4.182250   1.000000
  168        4.182255   1.000000
  169        4.226148   1.000000
  170        4.226148   1.000000
  171        4.246665   1.000000
  172        4.262407   1.000000
  173        4.315500   1.000000
  174        4.346839   1.000000
  175        4.346840   1.000000
  176        4.404755   1.000000
  177        4.404760   1.000000
  178        4.474165   1.000000
  179        4.474166   1.000000
  180        4.496355   1.000000
  181        4.496359   1.000000
  182        4.503002   1.000000
  183        4.511429   1.000000
  184        4.511429   1.000000
  185        4.512903   1.000000
  186        4.527344   1.000000
  187        4.527352   1.000000
  188        4.527447   1.000000
  189        4.532795   1.000000
  190        4.540022   1.000000
  191        4.540023   1.000000
  192        4.603863   1.000000
  193        4.609230   1.000000
  194        4.610790   1.000000
  195        4.610792   1.000000
  196        4.616561   1.000000
  197        4.654353   1.000000
  198        4.654356   1.000000
  199        4.666516   1.000000
  200        4.666519   1.000000
  201        4.676871   1.000000
  202        4.678271   1.000000
  203        4.678272   1.000000
  204        4.688020   1.000000
  205        4.696464   1.000000
  206        4.701474   1.000000
  207        4.701475   1.000000
  208        4.729658   1.000000
  209        4.741459   1.000000
  210        4.741459   1.000000
  211        4.743536   1.000000
  212        4.770348   1.000000
  213        4.770349   1.000000
  214        4.787375   1.000000
  215        4.802610   1.000000
  216        4.802613   1.000000
  217        4.815463   1.000000
  218        4.815464   1.000000
  219        4.864129   1.000000
  220        4.864131   1.000000
  221        4.900323   1.000000
  222        4.907719   1.000000
  223        4.929876   1.000000
  224        4.929880   1.000000
  225        4.938140   1.000000
  226        4.986836   1.000000
  227        5.009704   1.000000
  228        5.015694   1.000000
  229        5.015696   1.000000
  230        5.023018   1.000000
  231        5.024976   1.000000
  232        5.024978   1.000000
  233        5.049822   1.000000
  234        5.057532   1.000000
  235        5.057534   1.000000
  236        5.077048   1.000000
  237        5.103009   1.000000
  238        5.103010   1.000000
  239        5.119020   1.000000
  240        5.164617   1.000000
  241        5.166014   1.000000
  242        5.166017   1.000000
  243        5.208394   1.000000
  244        5.213123   1.000000
  245        5.213125   1.000000
  246        5.223397   1.000000
  247        5.223399   1.000000
  248        5.252216   1.000000
  249        5.252221   1.000000
  250        5.269971   1.000000
  251        5.283022   1.000000
  252        5.283023   1.000000
  253        5.293201   1.000000
  254        5.293201   1.000000
  255        5.296859   1.000000
  256        5.305467   1.000000
  257        5.321606   1.000000
  258        5.326392   1.000000
  259        5.331553   1.000000
  260        5.331554   1.000000
  261        5.342346   1.000000
  262        5.342348   1.000000
  263        5.358070   1.000000
  264        5.365536   1.000000
  265        5.365537   1.000000
  266        5.371517   1.000000
  267        5.380513   1.000000
  268        5.380516   1.000000
  269        5.388580   1.000000
  270        5.388583   1.000000
  271        5.405518   1.000000
  272        5.415327   1.000000
  273        5.421384   1.000000
  274        5.421384   1.000000
  275        5.424244   1.000000
  276        5.433928   1.000000
  277        5.433928   1.000000
  278        5.451095   1.000000
  279        5.451098   1.000000
  280        5.459504   1.000000
  281        5.472379   1.000000
  282        5.472381   1.000000
  283        5.481359   1.000000
  284        5.490354   1.000000
  285        5.490362   1.000000
  286        5.500345   1.000000
  287        5.513696   1.000000
  288        5.513700   1.000000
  289        5.522575   1.000000
  290        5.522579   1.000000
  291        5.523841   1.000000
  292        5.527745   1.000000
  293        5.531504   1.000000
  294        5.531506   1.000000
  295        5.551778   1.000000
  296        5.566919   1.000000
  297        5.566921   1.000000
  298        5.579615   1.000000
  299        5.583520   1.000000
  300        5.583521   1.000000
  301        5.610907   1.000000
  302        5.610910   1.000000
  303        5.617196   1.000000
  304        5.624281   1.000000
  305        5.624284   1.000000
  306        5.646419   1.000000
  307        5.646427   1.000000
  308        5.654516   1.000000
  309        5.671837   1.000000
  310        5.691742   1.000000
  311        5.694323   1.000000
  312        5.694325   1.000000
  313        5.735506   1.000000
  314        5.735508   1.000000
  315        5.764072   1.000000
  316        5.764072   1.000000
  317        5.772642   1.000000
  318        5.786930   1.000000
  319        5.805264   1.000000
  320        5.814448   1.000000
  321        5.814450   1.000000
  322        5.817237   1.000000
  323        5.837628   1.000000
  324        5.848624   1.000000
  325        5.848625   1.000000
  326        5.863481   1.000000
  327        5.863484   1.000000
  328        5.884306   1.000000
  329        5.884309   1.000000
  330        5.913123   1.000000
  331        5.921169   1.000000
  332        5.921171   1.000000
  333        5.925088   1.000000
  334        5.941068   1.000000
  335        5.941074   1.000000
  336        5.950910   1.000000
  337        5.960171   1.000000
  338        5.975811   1.000000
  339        5.990754   1.000000
  340        5.990758   1.000000
  341        5.992599   1.000000
  342        5.997790   1.000000
  343        5.997791   1.000000
  344        6.032105   1.000000
  345        6.032106   1.000000
  346        6.037080   1.000000
  347        6.042056   1.000000
  348        6.062925   1.000000
  349        6.062926   1.000000
  350        6.078633   1.000000
  351        6.082342   1.000000
  352        6.082346   1.000000
  353        6.101908   1.000000
  354        6.101912   1.000000
  355        6.118410   1.000000
  356        6.135875   1.000000
  357        6.143416   1.000000
  358        6.143427   1.000000
  359        6.179537   1.000000
  360        6.179540   1.000000
  361        6.208923   1.000000
  362        6.211650   1.000000
  363        6.211651   1.000000
  364        6.213830   1.000000
  365        6.286369   1.000001
  366        6.286372   1.000001
  367        6.317468   1.000002
  368        6.317473   1.000002
  369        6.324415   1.000002
  370        6.352064   1.000006
  371        6.352065   1.000006
  372        6.422440   1.000052
  373        6.428897   1.000063
  374        6.451962   1.000121
  375        6.459110   1.000147
  376        6.459116   1.000147
  377        6.468675   1.000189
  378        6.468681   1.000189
  379        6.476522   1.000233
  380        6.486343   1.000300
  381        6.487589   1.000310
  382        6.487592   1.000310
  383        6.511436   1.000559
  384        6.511440   1.000559
  385        6.544785   1.001212
  386        6.554842   1.001511
  387        6.554846   1.001511
  388        6.573216   1.002226
  389        6.596014   1.003500
  390        6.596017   1.003500
  391        6.628739   1.006335
  392        6.653801   1.009520
  393        6.653804   1.009520
  394        6.690845   1.016037
  395        6.702585   1.018514
  396        6.702588   1.018514
  397        6.708196   1.019751
  398        6.708198   1.019752
  399        6.741876   1.027459
  400        6.765704   1.032300
  401        6.766230   1.032391
  402        6.766231   1.032391
  403        6.786724   1.035021
  404        6.832756   1.029562
  405        6.832759   1.029561
  406        6.833110   1.029429
  407        6.834280   1.028978
  408        6.845326   1.023733
  409        6.874576   0.999765
  410        6.874579   0.999761
  411        6.885785   0.986048
  412        6.885788   0.986044
  413        6.899356   0.965640
  414        6.904998   0.955868
  415        6.907984   0.950383
  416        6.907990   0.950372
  417        6.916468   0.933588
  418        6.916472   0.933580
  419        6.955478   0.833138
  420        6.955478   0.833137
  421        6.988546   0.720240
  422        6.988553   0.720217
  423        7.026407   0.568851
  424        7.027768   0.563152
  425        7.027771   0.563140
  426        7.059851   0.427886
  427        7.074990   0.365482
  428        7.074992   0.365475
  429        7.082562   0.335141
  430        7.096166   0.282626
  431        7.096170   0.282613
  432        7.114722   0.216184
  433        7.138139   0.142795
  434        7.144284   0.125689
  435        7.146185   0.120587
  436        7.146188   0.120579
  437        7.162551   0.080408
  438        7.162553   0.080404
  439        7.212421  -0.001417
  440        7.216975  -0.006084
  441        7.216979  -0.006088
  442        7.239294  -0.023246
  443        7.239296  -0.023247
  444        7.256272  -0.030799
  445        7.266854  -0.033539
  446        7.281327  -0.035295
  447        7.281330  -0.035295
  448        7.298513  -0.035039
  449        7.298514  -0.035039
  450        7.306958  -0.034207
  451        7.306959  -0.034207
  452        7.316443  -0.032859
  453        7.321478  -0.032000
  454        7.321481  -0.032000
  455        7.322414  -0.031831
  456        7.325466  -0.031263
  457        7.327141  -0.030940
  458        7.327144  -0.030939
  459        7.342274  -0.027755
  460        7.353719  -0.025153
  461        7.353721  -0.025152
  462        7.373804  -0.020532
  463        7.373806  -0.020532
  464        7.385644  -0.017919
  465        7.398249  -0.015309
  466        7.398250  -0.015309
  467        7.423514  -0.010770
  468        7.446851  -0.007477
  469        7.446855  -0.007476
  470        7.458529  -0.006143
  471        7.472588  -0.004793
  472        7.472989  -0.004759
  473        7.472990  -0.004758
  474        7.491802  -0.003346
  475        7.505522  -0.002553
  476        7.505524  -0.002553
  477        7.525210  -0.001698
  478        7.536325  -0.001335
  479        7.536832  -0.001320
  480        7.536833  -0.001320
  481        7.551700  -0.000946
  482        7.551704  -0.000946
  483        7.586556  -0.000412
  484        7.593021  -0.000350
  485        7.593025  -0.000350
  486        7.605094  -0.000257
  487        7.619743  -0.000175
  488        7.623786  -0.000157
  489        7.623786  -0.000157
  490        7.642356  -0.000094
  491        7.642362  -0.000094
  492        7.670233  -0.000042
  493        7.671235  -0.000041
  494        7.671238  -0.000041
  495        7.680678  -0.000031
  496        7.680681  -0.000031
  497        7.690525  -0.000023
  498        7.696754  -0.000019
  499        7.696757  -0.000019
  500        7.708228  -0.000013
  501        7.713757  -0.000011
  502        7.713757  -0.000011
  503        7.727868  -0.000007
  504        7.764147  -0.000002
  505        7.764149  -0.000002
  506        7.769383  -0.000002
  507        7.773332  -0.000002
  508        7.773333  -0.000002
  509        7.791555  -0.000001
  510        7.791558  -0.000001
  511        7.798183  -0.000001
  512        7.805854  -0.000000
  513        7.815218  -0.000000
  514        7.815220  -0.000000
  515        7.846483  -0.000000
  516        7.846486  -0.000000
  517        7.855493  -0.000000
  518        7.856604  -0.000000
  519        7.894333  -0.000000
  520        7.924568  -0.000000
  521        7.927904  -0.000000
  522        7.941516  -0.000000
 
  0.3750000E+00  0.1250000E+00  0.1250000E+00  0.3125000E-01
    1       -6.842098   1.000000
    2       -1.480320   1.000000
    3       -1.104267   1.000000
    4       -0.673501   1.000000
    5       -0.527999   1.000000
    6       -0.422993   1.000000
    7       -0.226367   1.000000
    8        0.038121   1.000000
    9        0.115771   1.000000
   10        0.265435   1.000000
   11        0.414386   1.000000
   12        0.490329   1.000000
   13        0.668005   1.000000
   14        0.716750   1.000000
   15        0.916534   1.000000
   16        1.006592   1.000000
   17        1.173876   1.000000
   18        1.216259   1.000000
   19        1.237573   1.000000
   20        1.418859   1.000000
   21        1.575300   1.000000
   22        1.663408   1.000000
   23        1.671600   1.000000
   24        1.783776   1.000000
   25        1.835958   1.000000
   26        1.937798   1.000000
   27        2.020977   1.000000
   28        2.101031   1.000000
   29        2.103362   1.000000
   30        2.122122   1.000000
   31        2.157817   1.000000
   32        2.158612   1.000000
   33        2.208851   1.000000
   34        2.222076   1.000000
   35        2.223393   1.000000
   36        2.241265   1.000000
   37        2.244537   1.000000
   38        2.318189   1.000000
   39        2.322402   1.000000
   40        2.338093   1.000000
   41        2.344589   1.000000
   42        2.366010   1.000000
   43        2.369277   1.000000
   44        2.387893   1.000000
   45        2.437793   1.000000
   46        2.448614   1.000000
   47        2.453225   1.000000
   48        2.492700   1.000000
   49        2.498954   1.000000
   50        2.511381   1.000000
   51        2.595436   1.000000
   52        2.613014   1.000000
   53        2.630594   1.000000
   54        2.696427   1.000000
   55        2.699722   1.000000
   56        2.717974   1.000000
   57        2.736004   1.000000
   58        2.738876   1.000000
   59        2.745109   1.000000
   60        2.766291   1.000000
   61        2.776009   1.000000
   62        2.787618   1.000000
   63        2.797481   1.000000
   64        2.828183   1.000000
   65        2.839926   1.000000
   66        2.840073   1.000000
   67        2.852776   1.000000
   68        2.884172   1.000000
   69        2.897809   1.000000
   70        2.901524   1.000000
   71        2.921177   1.000000
   72        2.937112   1.000000
   73        2.937309   1.000000
   74        2.955547   1.000000
   75        2.959211   1.000000
   76        2.973895   1.000000
   77        2.984599   1.000000
   78        2.991027   1.000000
   79        2.995753   1.000000
   80        2.999708   1.000000
   81        3.020893   1.000000
   82        3.048221   1.000000
   83        3.062853   1.000000
   84        3.074415   1.000000
   85        3.095144   1.000000
   86        3.107904   1.000000
   87        3.109755   1.000000
   88        3.115777   1.000000
   89        3.134919   1.000000
   90        3.137510   1.000000
   91        3.150813   1.000000
   92        3.165050   1.000000
   93        3.172014   1.000000
   94        3.204472   1.000000
   95        3.212108   1.000000
   96        3.229147   1.000000
   97        3.237789   1.000000
   98        3.240536   1.000000
   99        3.243941   1.000000
  100        3.249142   1.000000
  101        3.281468   1.000000
  102        3.318893   1.000000
  103        3.320802   1.000000
  104        3.347421   1.000000
  105        3.349183   1.000000
  106        3.366493   1.000000
  107        3.380399   1.000000
  108        3.388455   1.000000
  109        3.424223   1.000000
  110        3.428067   1.000000
  111        3.437343   1.000000
  112        3.438859   1.000000
  113        3.443663   1.000000
  114        3.467067   1.000000
  115        3.477911   1.000000
  116        3.488919   1.000000
  117        3.490060   1.000000
  118        3.519543   1.000000
  119        3.523720   1.000000
  120        3.544468   1.000000
  121        3.559982   1.000000
  122        3.572396   1.000000
  123        3.607472   1.000000
  124        3.608705   1.000000
  125        3.613249   1.000000
  126        3.629500   1.000000
  127        3.638913   1.000000
  128        3.677677   1.000000
  129        3.694434   1.000000
  130        3.706060   1.000000
  131        3.717396   1.000000
  132        3.725178   1.000000
  133        3.730939   1.000000
  134        3.746226   1.000000
  135        3.755545   1.000000
  136        3.756029   1.000000
  137        3.765150   1.000000
  138        3.782212   1.000000
  139        3.793492   1.000000
  140        3.803237   1.000000
  141        3.815431   1.000000
  142        3.825050   1.000000
  143        3.830928   1.000000
  144        3.841057   1.000000
  145        3.850431   1.000000
  146        3.850604   1.000000
  147        3.878340   1.000000
  148        3.882826   1.000000
  149        3.912867   1.000000
  150        3.931577   1.000000
  151        3.946267   1.000000
  152        3.971260   1.000000
  153        3.996403   1.000000
  154        4.004777   1.000000
  155        4.031981   1.000000
  156        4.051336   1.000000
  157        4.064933   1.000000
  158        4.077111   1.000000
  159        4.089958   1.000000
  160        4.100442   1.000000
  161        4.124720   1.000000
  162        4.125179   1.000000
  163        4.135284   1.000000
  164        4.147969   1.000000
  165        4.167491   1.000000
  166        4.175695   1.000000
  167        4.175761   1.000000
  168        4.195686   1.000000
  169        4.207888   1.000000
  170        4.223722   1.000000
  171        4.249277   1.000000
  172        4.254867   1.000000
  173        4.263540   1.000000
  174        4.263916   1.000000
  175        4.279280   1.000000
  176        4.297018   1.000000
  177        4.327480   1.000000
  178        4.341111   1.000000
  179        4.353354   1.000000
  180        4.373071   1.000000
  181        4.397560   1.000000
  182        4.413512   1.000000
  183        4.418612   1.000000
  184        4.427155   1.000000
  185        4.451122   1.000000
  186        4.463143   1.000000
  187        4.483217   1.000000
  188        4.491426   1.000000
  189        4.503977   1.000000
  190        4.520710   1.000000
  191        4.548896   1.000000
  192        4.553233   1.000000
  193        4.557222   1.000000
  194        4.572537   1.000000
  195        4.577799   1.000000
  196        4.621301   1.000000
  197        4.639071   1.000000
  198        4.644218   1.000000
  199        4.668187   1.000000
  200        4.674450   1.000000
  201        4.683899   1.000000
  202        4.708908   1.000000
  203        4.719606   1.000000
  204        4.730685   1.000000
  205        4.738930   1.000000
  206        4.750057   1.000000
  207        4.754308   1.000000
  208        4.758015   1.000000
  209        4.781045   1.000000
  210        4.784760   1.000000
  211        4.795689   1.000000
  212        4.809980   1.000000
  213        4.817456   1.000000
  214        4.818940   1.000000
  215        4.834150   1.000000
  216        4.842044   1.000000
  217        4.861735   1.000000
  218        4.868002   1.000000
  219        4.877821   1.000000
  220        4.895368   1.000000
  221        4.900769   1.000000
  222        4.921051   1.000000
  223        4.929376   1.000000
  224        4.958066   1.000000
  225        4.959171   1.000000
  226        4.973904   1.000000
  227        4.987971   1.000000
  228        5.009586   1.000000
  229        5.024951   1.000000
  230        5.043151   1.000000
  231        5.049782   1.000000
  232        5.059131   1.000000
  233        5.068999   1.000000
  234        5.093800   1.000000
  235        5.094140   1.000000
  236        5.103930   1.000000
  237        5.111783   1.000000
  238        5.116842   1.000000
  239        5.121825   1.000000
  240        5.129169   1.000000
  241        5.137667   1.000000
  242        5.146243   1.000000
  243        5.148838   1.000000
  244        5.149322   1.000000
  245        5.155697   1.000000
  246        5.172124   1.000000
  247        5.183169   1.000000
  248        5.189448   1.000000
  249        5.197211   1.000000
  250        5.202839   1.000000
  251        5.217045   1.000000
  252        5.227166   1.000000
  253        5.227677   1.000000
  254        5.239071   1.000000
  255        5.257010   1.000000
  256        5.262048   1.000000
  257        5.264549   1.000000
  258        5.276356   1.000000
  259        5.285990   1.000000
  260        5.304770   1.000000
  261        5.307767   1.000000
  262        5.319562   1.000000
  263        5.333410   1.000000
  264        5.344473   1.000000
  265        5.345347   1.000000
  266        5.364740   1.000000
  267        5.368517   1.000000
  268        5.380547   1.000000
  269        5.393766   1.000000
  270        5.401651   1.000000
  271        5.422296   1.000000
  272        5.426567   1.000000
  273        5.436653   1.000000
  274        5.439656   1.000000
  275        5.448317   1.000000
  276        5.452606   1.000000
  277        5.461044   1.000000
  278        5.464167   1.000000
  279        5.468183   1.000000
  280        5.488733   1.000000
  281        5.495192   1.000000
  282        5.500312   1.000000
  283        5.503456   1.000000
  284        5.518761   1.000000
  285        5.534732   1.000000
  286        5.537694   1.000000
  287        5.540451   1.000000
  288        5.545468   1.000000
  289        5.548490   1.000000
  290        5.551027   1.000000
  291        5.564899   1.000000
  292        5.579443   1.000000
  293        5.594809   1.000000
  294        5.598132   1.000000
  295        5.603963   1.000000
  296        5.608084   1.000000
  297        5.615817   1.000000
  298        5.618530   1.000000
  299        5.628473   1.000000
  300        5.637109   1.000000
  301        5.640917   1.000000
  302        5.658346   1.000000
  303        5.661680   1.000000
  304        5.662826   1.000000
  305        5.666299   1.000000
  306        5.676380   1.000000
  307        5.688279   1.000000
  308        5.696289   1.000000
  309        5.701333   1.000000
  310        5.711053   1.000000
  311        5.716408   1.000000
  312        5.716633   1.000000
  313        5.722596   1.000000
  314        5.728930   1.000000
  315        5.734875   1.000000
  316        5.742275   1.000000
  317        5.749842   1.000000
  318        5.758675   1.000000
  319        5.770569   1.000000
  320        5.780072   1.000000
  321        5.785117   1.000000
  322        5.791896   1.000000
  323        5.796141   1.000000
  324        5.805375   1.000000
  325        5.811821   1.000000
  326        5.818192   1.000000
  327        5.822657   1.000000
  328        5.853329   1.000000
  329        5.855145   1.000000
  330        5.864109   1.000000
  331        5.871923   1.000000
  332        5.875680   1.000000
  333        5.896271   1.000000
  334        5.898267   1.000000
  335        5.905188   1.000000
  336        5.913348   1.000000
  337        5.926563   1.000000
  338        5.949256   1.000000
  339        5.954893   1.000000
  340        5.973881   1.000000
  341        5.979340   1.000000
  342        5.992356   1.000000
  343        6.007762   1.000000
  344        6.009387   1.000000
  345        6.021141   1.000000
  346        6.040743   1.000000
  347        6.054792   1.000000
  348        6.069897   1.000000
  349        6.091360   1.000000
  350        6.100868   1.000000
  351        6.126400   1.000000
  352        6.147668   1.000000
  353        6.178042   1.000000
  354        6.208289   1.000000
  355        6.230582   1.000000
  356        6.235921   1.000000
  357        6.246586   1.000000
  358        6.271800   1.000000
  359        6.280016   1.000000
  360        6.300139   1.000001
  361        6.310786   1.000001
  362        6.322774   1.000002
  363        6.323146   1.000002
  364        6.330580   1.000003
  365        6.360852   1.000008
  366        6.373719   1.000012
  367        6.379985   1.000015
  368        6.401791   1.000028
  369        6.410644   1.000037
  370        6.414151   1.000041
  371        6.427820   1.000061
  372        6.428333   1.000062
  373        6.445232   1.000100
  374        6.446220   1.000103
  375        6.462429   1.000160
  376        6.464803   1.000171
  377        6.471522   1.000204