       N       E                     dE             d eps       ncg     rms          rms(c)
DAV:   1     0.755077637496E+04    0.75508E+04   -0.28762E+05 33492   0.181E+03
DAV:   2    -0.312219166739E+02   -0.75820E+04   -0.73994E+04 33408   0.451E+02
DAV:   3    -0.851663458021E+03   -0.82044E+03   -0.69917E+03 33480   0.189E+02
DAV:   4    -0.102026013699E+04   -0.16860E+03   -0.15789E+03 60888   0.561E+01
DAV:   5    -0.103388211036E+04   -0.13622E+02   -0.12926E+02 53664   0.208E+01    0.926E+01
RMM:   6    -0.872167665124E+03    0.16171E+03   -0.13340E+03 33408   0.109E+02    0.199E+01
RMM:   7    -0.958803464465E+03   -0.86636E+02   -0.41092E+02 34961   0.448E+01    0.930E+01
RMM:   8    -0.884641526959E+03    0.74162E+02   -0.12539E+02 33408   0.310E+01    0.443E+01
RMM:   9    -0.872615983751E+03    0.12026E+02   -0.25257E+01 35045   0.108E+01    0.998E+00
RMM:  10    -0.874653246966E+03   -0.20373E+01   -0.19856E+01 43382   0.675E+00    0.205E+01
RMM:  11    -0.872420323975E+03    0.22329E+01   -0.61553E+00 35238   0.562E+00    0.994E+00
RMM:  12    -0.872468928690E+03   -0.48605E-01   -0.38652E+00 49346   0.208E+00    0.937E+00
RMM:  13    -0.871991691199E+03    0.47724E+00   -0.95963E-01 35525   0.219E+00    0.523E+00
RMM:  14    -0.871911228998E+03    0.80462E-01   -0.66137E-01 43773   0.116E+00    0.354E+00
RMM:  15    -0.871907821956E+03    0.34070E-02   -0.35340E-01 39007   0.109E+00    0.447E+00
RMM:  16    -0.871841697842E+03    0.66124E-01   -0.12330E-01 35997   0.751E-01    0.310E+00
RMM:  17    -0.871835027877E+03    0.66700E-02   -0.10128E-01 45353   0.471E-01    0.291E+00
RMM:  18    -0.871798668556E+03    0.36359E-01   -0.12786E-01 36493   0.721E-01    0.997E-01
RMM:  19    -0.871802646724E+03   -0.39782E-02   -0.70542E-02 49845   0.235E-01    0.111E+00
RMM:  20    -0.871799622856E+03    0.30239E-02   -0.75440E-03 38663   0.154E-01    0.905E-01
RMM:  21    -0.871795142039E+03    0.44808E-02   -0.53517E-03 36547   0.149E-01    0.341E-01
RMM:  22    -0.871795155454E+03   -0.13415E-04   -0.36440E-03 47938   0.754E-02    0.287E-01
RMM:  23    -0.871794791708E+03    0.36375E-03   -0.15712E-03 38537   0.741E-02    0.126E-01
RMM:  24    -0.871794759219E+03    0.32489E-04   -0.72886E-04 47291   0.382E-02    0.805E-02
RMM:  25    -0.871794722268E+03    0.36951E-04   -0.17500E-04 39523   0.254E-02    0.104E-01
RMM:  26    -0.871794679627E+03    0.42640E-04   -0.13616E-05 38144   0.153E-02    0.761E-02
RMM:  27    -0.871794664181E+03    0.15447E-04    0.91476E-06 45667   0.722E-03    0.710E-02
RMM:  28    -0.871794611965E+03    0.52215E-04    0.42075E-06 37249   0.121E-02    0.242E-02
RMM:  29    -0.871794603651E+03    0.83145E-05    0.17662E-05 42247   0.570E-03    0.944E-03
RMM:  30    -0.871794598959E+03    0.46923E-05    0.28188E-05 26617   0.448E-03    0.150E-02
RMM:  31    -0.871794593773E+03    0.51855E-05    0.29177E-05 20903   0.454E-03    0.397E-03
RMM:  32    -0.871794590848E+03    0.29254E-05    0.27031E-05 20489   0.168E-03    0.465E-03
RMM:  33    -0.871794587689E+03    0.31583E-05    0.25536E-05 20139   0.215E-03    0.341E-03
RMM:  34    -0.871794585366E+03    0.23229E-05    0.22240E-05 19901   0.141E-03    0.205E-03
RMM:  35    -0.871794583571E+03    0.17957E-05    0.20291E-05 19637   0.126E-03    0.216E-03
RMM:  36    -0.871794581919E+03    0.16512E-05    0.17157E-05 18695   0.912E-04    0.170E-03
RMM:  37    -0.871794580452E+03    0.14678E-05    0.15659E-05 17978   0.749E-04    0.156E-03
RMM:  38    -0.871794579180E+03    0.12718E-05    0.14102E-05 16957   0.662E-04    0.104E-03
RMM:  39    -0.871794577930E+03    0.12495E-05    0.12857E-05 11326   0.470E-04    0.104E-03
RMM:  40    -0.871794576887E+03    0.10434E-05    0.11573E-05 10622   0.456E-04    0.610E-04
RMM:  41    -0.871794575844E+03    0.10432E-05    0.10533E-05  7924   0.354E-04    0.594E-04
RMM:  42    -0.871794574899E+03    0.94456E-06    0.98083E-06  8306   0.377E-04
   1 F= -.87179457E+03 E0= -.87178773E+03  d E =-.871795E+03
       N       E                     dE             d eps       ncg     rms          rms(c)
DAV:   1    -0.872814949400E+03   -0.10204E+01   -0.47294E+02 33408   0.307E+01    0.117E+01
RMM:   2    -0.922502335982E+03   -0.49687E+02   -0.22938E+02 38378   0.328E+01    0.643E+01
RMM:   3    -0.875384650977E+03    0.47118E+02   -0.40706E+01 33408   0.193E+01    0.232E+01
RMM:   4    -0.873523439836E+03    0.18612E+01   -0.63378E+00 37978   0.412E+00    0.107E+01
RMM:   5    -0.873454749730E+03    0.68690E-01   -0.25308E+00 47190   0.179E+00    0.757E+00
RMM:   6    -0.873313365097E+03    0.14138E+00   -0.19997E+00 41366   0.217E+00    0.447E+00
RMM:   7    -0.873372910668E+03   -0.59546E-01   -0.73964E-01 44386   0.132E+00    0.580E+00
RMM:   8    -0.873183504200E+03    0.18941E+00   -0.24416E-01 33638   0.120E+00    0.143E+00
RMM:   9    -0.873264034562E+03   -0.80530E-01   -0.38127E-01 37798   0.116E+00    0.413E+00
RMM:  10    -0.873197873046E+03    0.66162E-01   -0.13402E-01 33756   0.862E-01    0.204E+00
RMM:  11    -0.873196250523E+03    0.16225E-02   -0.66444E-02 46909   0.310E-01    0.205E+00
RMM:  12    -0.873178111336E+03    0.18139E-01   -0.19179E-02 36000   0.293E-01    0.104E+00
RMM:  13    -0.873175116141E+03    0.29952E-02   -0.15634E-02 46789   0.163E-01    0.527E-01
RMM:  14    -0.873174839720E+03    0.27642E-03   -0.80065E-03 45112   0.118E-01    0.408E-01
RMM:  15    -0.873174328498E+03    0.51122E-03   -0.42238E-03 39728   0.109E-01    0.180E-01
RMM:  16    -0.873174585590E+03   -0.25709E-03   -0.20105E-03 49074   0.473E-02    0.277E-01
RMM:  17    -0.873174291508E+03    0.29408E-03   -0.28269E-04 36096   0.355E-02    0.151E-01
RMM:  18    -0.873174271875E+03    0.19633E-04   -0.21042E-04 46759   0.180E-02    0.134E-01
RMM:  19    -0.873174222529E+03    0.49346E-04   -0.99838E-05 37855   0.189E-02    0.902E-02
RMM:  20    -0.873174192085E+03    0.30444E-04   -0.62876E-05 37319   0.156E-02    0.431E-02
RMM:  21    -0.873174193483E+03   -0.13979E-05   -0.88601E-05 47889   0.121E-02    0.366E-02
RMM:  22    -0.873174187949E+03    0.55336E-05   -0.18154E-05 37128   0.803E-03    0.143E-02
RMM:  23    -0.873174188735E+03   -0.78614E-06   -0.92236E-06 35436   0.472E-03
   2 F= -.87317419E+03 E0= -.87317023E+03  d E =-.137961E+01
       N       E                     dE             d eps       ncg     rms          rms(c)
DAV:   1    -0.873204539269E+03   -0.30351E-01   -0.17801E+01 34008   0.585E+00    0.162E+00
RMM:   2    -0.874426780118E+03   -0.12222E+01   -0.33428E+00 35625   0.408E+00    0.141E+01
RMM:   3    -0.873232765566E+03    0.11940E+01   -0.81448E-01 33408   0.272E+00    0.222E+00
RMM:   4    -0.873213731126E+03    0.19034E-01   -0.18896E-01 45833   0.509E-01    0.705E-01
RMM:   5    -0.873224440010E+03   -0.10709E-01   -0.73829E-02 41577   0.411E-01    0.152E+00
RMM:   6    -0.873213123382E+03    0.11317E-01   -0.27706E-02 35927   0.340E-01    0.469E-01
RMM:   7    -0.873218734496E+03   -0.56111E-02   -0.28158E-02 40060   0.288E-01    0.115E+00
RMM:   8    -0.873212106102E+03    0.66284E-02   -0.85563E-03 33648   0.231E-01    0.292E-01
RMM:   9    -0.873212269015E+03   -0.16291E-03   -0.49603E-03 44367   0.882E-02    0.296E-01
RMM:  10    -0.873211956876E+03    0.31214E-03   -0.11698E-03 38040   0.631E-02    0.150E-01
RMM:  11    -0.873211895463E+03    0.61412E-04   -0.58318E-04 44212   0.325E-02    0.712E-02
RMM:  12    -0.873211919124E+03   -0.23660E-04   -0.23970E-04 41864   0.231E-02    0.943E-02
RMM:  13    -0.873211873151E+03    0.45973E-04   -0.77417E-05 35337   0.199E-02    0.197E-02
RMM:  14    -0.873211888288E+03   -0.15137E-04   -0.82304E-05 43680   0.136E-02    0.534E-02
RMM:  15    -0.873211876149E+03    0.12139E-04   -0.22578E-05 35307   0.108E-02    0.186E-02
RMM:  16    -0.873211876641E+03   -0.49201E-06   -0.14029E-05 36628   0.425E-03    0.185E-02
RMM:  17    -0.873211875228E+03    0.14129E-05   -0.19519E-06 21419   0.397E-03    0.903E-03
RMM:  18    -0.873211874933E+03    0.29518E-06   -0.98723E-07 19335   0.281E-03
   3 F= -.87321187E+03 E0= -.87320779E+03  d E =-.141730E+01
       N       E                     dE             d eps       ncg     rms          rms(c)
DAV:   1    -0.873268450881E+03   -0.56576E-01   -0.15934E+01 33408   0.566E+00    0.168E+00
RMM:   2    -0.875380773029E+03   -0.21123E+01   -0.42527E+00 37563   0.397E+00    0.197E+01
RMM:   3    -0.873289831498E+03    0.20909E+01   -0.11138E+00 33408   0.295E+00    0.219E+00
RMM:   4    -0.873268444647E+03    0.21387E-01   -0.44136E-01 44742   0.651E-01    0.903E-01
RMM:   5    -0.873276821988E+03   -0.83773E-02   -0.12160E-01 46018   0.347E-01    0.118E+00
RMM:   6    -0.873271266262E+03    0.55557E-02   -0.26117E-02 37353   0.291E-01    0.479E-01
RMM:   7    -0.873273525608E+03   -0.22593E-02   -0.18154E-02 39790   0.233E-01    0.896E-01
RMM:   8    -0.873269296140E+03    0.42295E-02   -0.60384E-03 33555   0.198E-01    0.224E-01
RMM:   9    -0.873270943488E+03   -0.16473E-02   -0.78308E-03 40551   0.147E-01    0.589E-01
RMM:  10    -0.873269242592E+03    0.17009E-02   -0.19121E-03 33987   0.110E-01    0.168E-01
RMM:  11    -0.873269198214E+03    0.44377E-04   -0.11345E-03 46000   0.378E-02    0.928E-02
RMM:  12    -0.873269226589E+03   -0.28375E-04   -0.36674E-04 40732   0.297E-02    0.109E-01
RMM:  13    -0.873269170910E+03    0.55679E-04   -0.10838E-04 35839   0.229E-02    0.353E-02
RMM:  14    -0.873269181923E+03   -0.11013E-04   -0.91856E-05 45384   0.122E-02    0.505E-02
RMM:  15    -0.873269172517E+03    0.94061E-05   -0.19439E-05 35719   0.914E-03    0.243E-02
RMM:  16    -0.873269172619E+03   -0.10200E-06   -0.13477E-05 37129   0.495E-03    0.230E-02
RMM:  17    -0.873269170749E+03    0.18704E-05   -0.27932E-06 21957   0.434E-03    0.109E-02
RMM:  18    -0.873269170490E+03    0.25862E-06   -0.13524E-06 19306   0.292E-03
   4 F= -.87326917E+03 E0= -.87326410E+03  d E =-.572956E-01
       N       E                     dE             d eps       ncg     rms          rms(c)
DAV:   1    -0.873281750322E+03   -0.12580E-01   -0.93343E+00 33408   0.433E+00    0.129E+00
RMM:   2    -0.874520993448E+03   -0.12392E+01   -0.25010E+00 37584   0.304E+00    0.151E+01
RMM:   3    -0.873294926486E+03    0.12261E+01   -0.65114E-01 33408   0.225E+00    0.168E+00
RMM:   4    -0.873281543561E+03    0.13383E-01   -0.26172E-01 44477   0.503E-01    0.685E-01
RMM:   5    -0.873286956893E+03   -0.54133E-02   -0.73642E-02 46929   0.266E-01    0.941E-01
RMM:   6    -0.873283280589E+03    0.36763E-02   -0.15538E-02 37443   0.221E-01    0.359E-01
RMM:   7    -0.873283675451E+03   -0.39486E-03   -0.80984E-03 40919   0.150E-01    0.550E-01
RMM:   8    -0.873282172711E+03    0.15027E-02   -0.30581E-03 33819   0.136E-01    0.172E-01
RMM:   9    -0.873283074836E+03   -0.90212E-03   -0.37653E-03 41525   0.979E-02    0.441E-01
RMM:  10    -0.873282103736E+03    0.97110E-03   -0.90224E-04 34071   0.750E-02    0.106E-01
RMM:  11    -0.873282098068E+03    0.56683E-05   -0.61969E-04 47009   0.264E-02    0.656E-02
RMM:  12    -0.873282106694E+03   -0.86265E-05   -0.18116E-04 41134   0.199E-02    0.690E-02
RMM:  13    -0.873282086342E+03    0.20352E-04   -0.51638E-05 36542   0.151E-02    0.268E-02
RMM:  14    -0.873282091562E+03   -0.52203E-05   -0.42075E-05 43811   0.918E-03    0.370E-02
RMM:  15    -0.873282086023E+03    0.55389E-05   -0.90260E-06 31767   0.690E-03    0.167E-02
RMM:  16    -0.873282085973E+03    0.49789E-07   -0.45574E-06 26223   0.343E-03
   5 F= -.87328209E+03 E0= -.87327636E+03  d E =-.702110E-01
       N       E                     dE             d eps       ncg     rms          rms(c)
DAV:   1    -0.873286063007E+03   -0.39770E-02   -0.15954E+00 34368   0.178E+00    0.536E-01
RMM:   2    -0.873501356848E+03   -0.21529E+00   -0.42584E-01 37460   0.126E+00    0.638E+00
RMM:   3    -0.873288933648E+03    0.21242E+00   -0.11341E-01 33408   0.939E-01    0.719E-01
RMM:   4    -0.873285863825E+03    0.30698E-02   -0.44671E-02 43324   0.218E-01    0.264E-01
RMM:   5    -0.873287205241E+03   -0.13414E-02   -0.13296E-02 46299   0.121E-01    0.474E-01
RMM:   6    -0.873286256928E+03    0.94831E-03   -0.33331E-03 37086   0.104E-01    0.151E-01
RMM:   7    -0.873286447953E+03   -0.19102E-03   -0.18668E-03 40836   0.719E-02    0.269E-01
RMM:   8    -0.873286080640E+03    0.36731E-03   -0.63494E-04 33625   0.621E-02    0.731E-02
RMM:   9    -0.873286231356E+03   -0.15072E-03   -0.65544E-04 43320   0.373E-02    0.179E-01
RMM:  10    -0.873286073768E+03    0.15759E-03   -0.13711E-04 34272   0.279E-02    0.442E-02
RMM:  11    -0.873286073391E+03    0.37677E-06   -0.11385E-04 46388   0.111E-02    0.277E-02
RMM:  12    -0.873286074195E+03   -0.80350E-06   -0.28443E-05 39142   0.845E-03    0.274E-02
RMM:  13    -0.873286070970E+03    0.32244E-05   -0.95970E-06 31929   0.659E-03    0.106E-02
RMM:  14    -0.873286072269E+03   -0.12985E-05   -0.57770E-06 27910   0.419E-03    0.176E-02
RMM:  15    -0.873286070998E+03    0.12713E-05   -0.19159E-06 19579   0.409E-03    0.684E-03
RMM:  16    -0.873286070955E+03    0.42572E-07   -0.88423E-07 18446   0.187E-03
   6 F= -.87328607E+03 E0= -.87328045E+03  d E =-.398498E-02
       N       E                     dE             d eps       ncg     rms          rms(c)
DAV:   1    -0.873286394603E+03   -0.32361E-03   -0.29276E-01 34752   0.764E-01    0.231E-01
RMM:   2    -0.873326187784E+03   -0.39793E-01   -0.80528E-02 37525   0.546E-01    0.273E+00
RMM:   3    -0.873286893700E+03    0.39294E-01   -0.21128E-02 33408   0.405E-01    0.314E-01
RMM:   4    -0.873286350019E+03    0.54368E-03   -0.84114E-03 43291   0.936E-02    0.112E-01
RMM:   5    -0.873286593615E+03   -0.24360E-03   -0.24898E-03 46559   0.515E-02    0.199E-01
RMM:   6    -0.873286427973E+03    0.16564E-03   -0.60359E-04 37191   0.436E-02    0.649E-02
RMM:   7    -0.873286459250E+03   -0.31277E-04   -0.32722E-04 40901   0.301E-02    0.112E-01
RMM:   8    -0.873286395827E+03    0.63423E-04   -0.11262E-04 33576   0.261E-02    0.327E-02
RMM:   9    -0.873286423402E+03   -0.27574E-04   -0.11301E-04 43690   0.149E-02    0.769E-02
RMM:  10    -0.873286393747E+03    0.29654E-04   -0.22981E-05 33818   0.114E-02    0.163E-02
RMM:  11    -0.873286393821E+03   -0.73691E-07   -0.17754E-05 36358   0.458E-03    0.116E-02
RMM:  12    -0.873286393712E+03    0.10920E-06   -0.31131E-06 23222   0.366E-03
   7 F= -.87328639E+03 E0= -.87328082E+03  d E =-.430774E-02
       N       E                     dE             d eps       ncg     rms          rms(c)
DAV:   1    -0.873286400630E+03   -0.68095E-05   -0.57962E-03 35904   0.108E-01    0.293E-02
RMM:   2    -0.873287047856E+03   -0.64723E-03   -0.13469E-03 37570   0.706E-02    0.346E-01
RMM:   3    -0.873286410255E+03    0.63760E-03   -0.33912E-04 33408   0.512E-02    0.386E-02
RMM:   4    -0.873286401869E+03    0.83867E-05   -0.13307E-04 43501   0.115E-02    0.147E-02
RMM:   5    -0.873286405048E+03   -0.31795E-05   -0.37274E-05 39478   0.640E-03    0.233E-02
RMM:   6    -0.873286402752E+03    0.22961E-05   -0.90863E-06 28978   0.577E-03    0.840E-03
RMM:   7    -0.873286403024E+03   -0.27183E-06   -0.32279E-06 21394   0.408E-03
   8 F= -.87328640E+03 E0= -.87328081E+03  d E =-.431705E-02
