<?xml version="1.0" encoding="ISO-8859-1"?>
<modeling>
 <generator>
  <i name="program" type="string">vasp </i>
  <i name="version" type="string">5.4.4.18Apr17-6-g9f103f2a35  </i>
  <i name="subversion" type="string">(build Aug 17 2017 06:00:38) complex            parallel </i>
  <i name="platform" type="string">LinuxIFC </i>
  <i name="date" type="string">2019 07 13 </i>
  <i name="time" type="string">00:26:34 </i>
 </generator>
 <incar>
  <i type="string" name="SYSTEM">Opt</i>
  <i type="int" name="ISTART">     0</i>
  <i type="string" name="PREC">normal</i>
  <i type="string" name="ALGO"> Fast</i>
  <i type="int" name="ISPIN">     1</i>
  <i type="int" name="ICHARG">     2</i>
  <i type="int" name="NELM">   400</i>
  <i type="int" name="IBRION">     2</i>
  <i name="EDIFF">      0.00000100</i>
  <i name="EDIFFG">     -0.01000000</i>
  <i type="int" name="NSW">   100</i>
  <i type="int" name="ISIF">     2</i>
  <i type="int" name="ISYM">     0</i>
  <i name="ENCUT">    400.00000000</i>
  <i type="int" name="NGX">    72</i>
  <i type="int" name="NGY">    72</i>
  <i type="int" name="NGZ">    72</i>
  <i name="POTIM">      0.50000000</i>
  <i type="string" name="LREAL">Auto</i>
  <i type="logical" name="LWAVE"> F  </i>
  <i type="logical" name="LCHARG"> F  </i>
  <v type="int" name="KPOINT_BSE">    -1     0     0     0</v>
  <i type="int" name="NELM">   400</i>
 </incar>
 <structure name="primitive_cell" >
  <crystal>
   <varray name="basis" >
    <v>      10.33484705       0.00000000       0.00000000 </v>
    <v>       0.00000000      10.33484705       0.00000000 </v>
    <v>       0.00000000       0.00000000      10.33484705 </v>
   </varray>
   <i name="volume">   1103.85533447 </i>
   <varray name="rec_basis" >
    <v>       0.09676002       0.00000000       0.00000000 </v>
    <v>       0.00000000       0.09676002       0.00000000 </v>
    <v>       0.00000000       0.00000000       0.09676002 </v>
   </varray>
  </crystal>
  <varray name="positions" >
   <v>       0.00000000       0.00000000       0.00000000 </v>
   <v>       0.00000000       0.16666893       0.16666893 </v>
   <v>       0.16666893       0.00000000       0.16666893 </v>
   <v>       0.16666893       0.16666893       0.00000000 </v>
   <v>       0.00000000      -0.16666896       0.16666893 </v>
   <v>       0.00000000       0.16666893      -0.16666896 </v>
   <v>       0.16666893      -0.16666896       0.00000000 </v>
   <v>       0.16666893       0.00000000      -0.16666896 </v>
   <v>      -0.16666896       0.00000000       0.16666893 </v>
   <v>      -0.16666896       0.16666893       0.00000000 </v>
   <v>       0.00000000      -0.16666896      -0.16666896 </v>
   <v>      -0.16666896      -0.16666896       0.00000000 </v>
   <v>      -0.16666896       0.00000000      -0.16666896 </v>
   <v>       0.00000000      -0.33333103       0.00000000 </v>
   <v>       0.00000000       0.00000000      -0.33333103 </v>
   <v>      -0.33333103       0.00000000       0.00000000 </v>
   <v>       0.00000000       0.33333106       0.00000000 </v>
   <v>       0.00000000       0.00000000       0.33333106 </v>
   <v>       0.33333106       0.00000000       0.00000000 </v>
   <v>       0.16666893      -0.33333104       0.16666893 </v>
   <v>       0.16666893       0.16666893      -0.33333104 </v>
   <v>      -0.33333104       0.16666893       0.16666893 </v>
   <v>       0.16666893      -0.33333104      -0.16666896 </v>
   <v>       0.16666893      -0.16666896      -0.33333104 </v>
   <v>      -0.33333104      -0.16666896       0.16666893 </v>
   <v>      -0.33333104       0.16666893      -0.16666896 </v>
   <v>      -0.16666896      -0.33333104       0.16666893 </v>
   <v>      -0.16666896       0.16666893      -0.33333104 </v>
   <v>       0.16666893       0.33333107       0.16666893 </v>
   <v>       0.16666893       0.16666893       0.33333107 </v>
   <v>       0.33333107       0.16666893       0.16666893 </v>
   <v>      -0.33333104      -0.16666896      -0.16666896 </v>
   <v>      -0.16666896      -0.33333104      -0.16666896 </v>
   <v>      -0.16666896      -0.16666896      -0.33333104 </v>
   <v>       0.16666893      -0.16666896       0.33333107 </v>
   <v>       0.16666893       0.33333107      -0.16666896 </v>
   <v>       0.33333107      -0.16666896       0.16666893 </v>
   <v>       0.33333107       0.16666893      -0.16666896 </v>
   <v>      -0.16666896       0.33333107       0.16666893 </v>
   <v>      -0.16666896       0.16666893       0.33333107 </v>
   <v>       0.33333107      -0.16666896      -0.16666896 </v>
   <v>      -0.16666896      -0.16666896       0.33333107 </v>
   <v>      -0.16666896       0.33333107      -0.16666896 </v>
   <v>       0.00000000      -0.33333104      -0.33333104 </v>
   <v>      -0.33333104      -0.33333104       0.00000000 </v>
   <v>      -0.33333104       0.00000000      -0.33333104 </v>
   <v>       0.00000000      -0.33333104       0.33333107 </v>
   <v>       0.00000000       0.33333107      -0.33333104 </v>
   <v>       0.33333107      -0.33333104       0.00000000 </v>
   <v>       0.33333107       0.00000000      -0.33333104 </v>
   <v>      -0.33333104       0.33333107       0.00000000 </v>
   <v>      -0.33333104       0.00000000       0.33333107 </v>
   <v>       0.00000000       0.33333107       0.33333107 </v>
   <v>       0.33333107       0.33333107       0.00000000 </v>
   <v>       0.33333107       0.00000000       0.33333107 </v>
   <v>       0.00000000      -0.50000000       0.16666894 </v>
   <v>       0.00000000       0.16666894      -0.50000000 </v>
   <v>       0.16666894      -0.50000000       0.00000000 </v>
   <v>       0.16666894       0.00000000      -0.50000000 </v>
   <v>      -0.50000000       0.00000000       0.16666894 </v>
   <v>      -0.50000000       0.16666894       0.00000000 </v>
   <v>       0.00000000      -0.16666897      -0.50000000 </v>
   <v>       0.00000000      -0.50000000      -0.16666897 </v>
   <v>      -0.50000000      -0.16666897       0.00000000 </v>
   <v>      -0.50000000       0.00000000      -0.16666897 </v>
   <v>      -0.16666897      -0.50000000       0.00000000 </v>
   <v>      -0.16666897       0.00000000      -0.50000000 </v>
   <v>      -0.33333104      -0.33333104      -0.33333104 </v>
   <v>       0.33333107      -0.33333104      -0.33333104 </v>
   <v>      -0.33333104      -0.33333104       0.33333107 </v>
   <v>      -0.33333104       0.33333107      -0.33333104 </v>
   <v>       0.33333107      -0.33333104       0.33333107 </v>
   <v>       0.33333107       0.33333107      -0.33333104 </v>
   <v>      -0.33333104       0.33333107       0.33333107 </v>
   <v>       0.33333107       0.33333107       0.33333107 </v>
   <v>       0.16666893      -0.33333104      -0.50000000 </v>
   <v>       0.16666893      -0.50000000      -0.33333104 </v>
   <v>      -0.50000000      -0.33333104       0.16666893 </v>
   <v>      -0.50000000       0.16666893      -0.33333104 </v>
   <v>      -0.33333104      -0.50000000       0.16666893 </v>
   <v>      -0.33333104       0.16666893      -0.50000000 </v>
   <v>      -0.50000000      -0.33333104      -0.16666896 </v>
   <v>      -0.50000000      -0.16666896      -0.33333104 </v>
   <v>      -0.33333104      -0.16666896      -0.50000000 </v>
   <v>      -0.33333104      -0.50000000      -0.16666896 </v>
   <v>      -0.16666896      -0.33333104      -0.50000000 </v>
   <v>      -0.16666896      -0.50000000      -0.33333104 </v>
   <v>       0.16666893       0.33333107      -0.50000000 </v>
   <v>       0.16666893      -0.50000000       0.33333107 </v>
   <v>       0.33333107      -0.50000000       0.16666893 </v>
   <v>       0.33333107       0.16666893      -0.50000000 </v>
   <v>      -0.50000000       0.33333107       0.16666893 </v>
   <v>      -0.50000000       0.16666893       0.33333107 </v>
   <v>       0.33333107      -0.16666896      -0.50000000 </v>
   <v>       0.33333107      -0.50000000      -0.16666896 </v>
   <v>      -0.50000000      -0.16666896       0.33333107 </v>
   <v>      -0.50000000       0.33333107      -0.16666896 </v>
   <v>      -0.16666896       0.33333107      -0.50000000 </v>
   <v>      -0.16666896      -0.50000000       0.33333107 </v>
   <v>       0.00000000      -0.50000000      -0.50000000 </v>
   <v>      -0.50000000      -0.50000000       0.00000000 </v>
   <v>      -0.50000000       0.00000000      -0.50000000 </v>
   <v>      -0.50000000      -0.33333103      -0.50000000 </v>
   <v>      -0.50000000      -0.50000000      -0.33333103 </v>
   <v>      -0.33333103      -0.50000000      -0.50000000 </v>
   <v>      -0.50000000       0.33333106      -0.50000000 </v>
   <v>      -0.50000000      -0.50000000       0.33333106 </v>
   <v>       0.33333106      -0.50000000      -0.50000000 </v>
  </varray>
 </structure>
 <varray name="primitive_index" >
  <v type="int" >        1 </v>
  <v type="int" >        2 </v>
  <v type="int" >       19 </v>
  <v type="int" >       20 </v>
  <v type="int" >        6 </v>
  <v type="int" >       14 </v>
  <v type="int" >       21 </v>
  <v type="int" >       25 </v>
  <v type="int" >      100 </v>
  <v type="int" >      101 </v>
  <v type="int" >       18 </v>
  <v type="int" >      102 </v>
  <v type="int" >      106 </v>
  <v type="int" >        5 </v>
  <v type="int" >       13 </v>
  <v type="int" >       88 </v>
  <v type="int" >        3 </v>
  <v type="int" >        7 </v>
  <v type="int" >       37 </v>
  <v type="int" >       28 </v>
  <v type="int" >       31 </v>
  <v type="int" >       80 </v>
  <v type="int" >       33 </v>
  <v type="int" >       34 </v>
  <v type="int" >       81 </v>
  <v type="int" >       84 </v>
  <v type="int" >       93 </v>
  <v type="int" >       96 </v>
  <v type="int" >       27 </v>
  <v type="int" >       29 </v>
  <v type="int" >       38 </v>
  <v type="int" >       87 </v>
  <v type="int" >       98 </v>
  <v type="int" >       99 </v>
  <v type="int" >       30 </v>
  <v type="int" >       32 </v>
  <v type="int" >       39 </v>
  <v type="int" >       42 </v>
  <v type="int" >       92 </v>
  <v type="int" >       94 </v>
  <v type="int" >       45 </v>
  <v type="int" >       95 </v>
  <v type="int" >       97 </v>
  <v type="int" >       17 </v>
  <v type="int" >       74 </v>
  <v type="int" >       78 </v>
  <v type="int" >       11 </v>
  <v type="int" >       15 </v>
  <v type="int" >       48 </v>
  <v type="int" >       52 </v>
  <v type="int" >       72 </v>
  <v type="int" >       75 </v>
  <v type="int" >        9 </v>
  <v type="int" >       46 </v>
  <v type="int" >       49 </v>
  <v type="int" >        4 </v>
  <v type="int" >        8 </v>
  <v type="int" >       35 </v>
  <v type="int" >       36 </v>
  <v type="int" >       54 </v>
  <v type="int" >       55 </v>
  <v type="int" >       12 </v>
  <v type="int" >       16 </v>
  <v type="int" >       59 </v>
  <v type="int" >       66 </v>
  <v type="int" >       90 </v>
  <v type="int" >       91 </v>
  <v type="int" >       86 </v>
  <v type="int" >       44 </v>
  <v type="int" >       83 </v>
  <v type="int" >       85 </v>
  <v type="int" >       41 </v>
  <v type="int" >       43 </v>
  <v type="int" >       82 </v>
  <v type="int" >       40 </v>
  <v type="int" >       24 </v>
  <v type="int" >       26 </v>
  <v type="int" >       58 </v>
  <v type="int" >       67 </v>
  <v type="int" >       73 </v>
  <v type="int" >       76 </v>
  <v type="int" >       70 </v>
  <v type="int" >       71 </v>
  <v type="int" >       77 </v>
  <v type="int" >       79 </v>
  <v type="int" >      105 </v>
  <v type="int" >      107 </v>
  <v type="int" >       22 </v>
  <v type="int" >       23 </v>
  <v type="int" >       47 </v>
  <v type="int" >       50 </v>
  <v type="int" >       56 </v>
  <v type="int" >       61 </v>
  <v type="int" >       51 </v>
  <v type="int" >       53 </v>
  <v type="int" >       65 </v>
  <v type="int" >       68 </v>
  <v type="int" >      103 </v>
  <v type="int" >      104 </v>
  <v type="int" >       10 </v>
  <v type="int" >       57 </v>
  <v type="int" >       60 </v>
  <v type="int" >       64 </v>
  <v type="int" >       69 </v>
  <v type="int" >       89 </v>
  <v type="int" >       62 </v>
  <v type="int" >       63 </v>
  <v type="int" >      108 </v>
 </varray>
 <kpoints>
  <generation param="Monkhorst-Pack">
   <v type="int" name="divisions">       4        4        4 </v>
   <v name="usershift">      0.00000000       0.00000000       0.00000000 </v>
   <v name="genvec1">      0.25000000       0.00000000       0.00000000 </v>
   <v name="genvec2">      0.00000000       0.25000000       0.00000000 </v>
   <v name="genvec3">      0.00000000       0.00000000       0.25000000 </v>
   <v name="shift">      0.50000000       0.50000000       0.50000000 </v>
  </generation>
  <varray name="kpointlist" >
   <v>       0.12500000       0.12500000       0.12500000 </v>
   <v>       0.37500000       0.12500000       0.12500000 </v>
   <v>      -0.37500000       0.12500000       0.12500000 </v>
   <v>      -0.12500000       0.12500000       0.12500000 </v>
   <v>       0.12500000       0.37500000       0.12500000 </v>
   <v>       0.37500000       0.37500000       0.12500000 </v>
   <v>      -0.37500000       0.37500000       0.12500000 </v>
   <v>      -0.12500000       0.37500000       0.12500000 </v>
   <v>       0.12500000      -0.37500000       0.12500000 </v>
   <v>       0.37500000      -0.37500000       0.12500000 </v>
   <v>      -0.37500000      -0.37500000       0.12500000 </v>
   <v>      -0.12500000      -0.37500000       0.12500000 </v>
   <v>       0.12500000      -0.12500000       0.12500000 </v>
   <v>       0.37500000      -0.12500000       0.12500000 </v>
   <v>      -0.37500000      -0.12500000       0.12500000 </v>
   <v>      -0.12500000      -0.12500000       0.12500000 </v>
   <v>       0.12500000       0.12500000       0.37500000 </v>
   <v>       0.37500000       0.12500000       0.37500000 </v>
   <v>      -0.37500000       0.12500000       0.37500000 </v>
   <v>      -0.12500000       0.12500000       0.37500000 </v>
   <v>       0.12500000       0.37500000       0.37500000 </v>
   <v>       0.37500000       0.37500000       0.37500000 </v>
   <v>      -0.37500000       0.37500000       0.37500000 </v>
   <v>      -0.12500000       0.37500000       0.37500000 </v>
   <v>       0.12500000      -0.37500000       0.37500000 </v>
   <v>       0.37500000      -0.37500000       0.37500000 </v>
   <v>      -0.37500000      -0.37500000       0.37500000 </v>
   <v>      -0.12500000      -0.37500000       0.37500000 </v>
   <v>       0.12500000      -0.12500000       0.37500000 </v>
   <v>       0.37500000      -0.12500000       0.37500000 </v>
   <v>      -0.37500000      -0.12500000       0.37500000 </v>
   <v>      -0.12500000      -0.12500000       0.37500000 </v>
  </varray>
  <varray name="weights" >
   <v>       0.03125000 </v>
   <v>       0.03125000 </v>
   <v>       0.03125000 </v>
   <v>       0.03125000 </v>
   <v>       0.03125000 </v>
   <v>       0.03125000 </v>
   <v>       0.03125000 </v>
   <v>       0.03125000 </v>
   <v>       0.03125000 </v>
   <v>       0.03125000 </v>
   <v>       0.03125000 </v>
   <v>       0.03125000 </v>
   <v>       0.03125000 </v>
   <v>       0.03125000 </v>
   <v>       0.03125000 </v>
   <v>       0.03125000 </v>
   <v>       0.03125000 </v>
   <v>       0.03125000 </v>
   <v>       0.03125000 </v>
   <v>       0.03125000 </v>
   <v>       0.03125000 </v>
   <v>       0.03125000 </v>
   <v>       0.03125000 </v>
   <v>       0.03125000 </v>
   <v>       0.03125000 </v>
   <v>       0.03125000 </v>
   <v>       0.03125000 </v>
   <v>       0.03125000 </v>
   <v>       0.03125000 </v>
   <v>       0.03125000 </v>
   <v>       0.03125000 </v>
   <v>       0.03125000 </v>
  </varray>
 </kpoints>
 <parameters>
  <separator name="general" >
   <i type="string" name="SYSTEM">Opt</i>
   <i type="logical" name="LCOMPAT"> F  </i>
  </separator>
  <separator name="electronic" >
   <i type="string" name="PREC">normal</i>
   <i name="ENMAX">    400.00000000</i>
   <i name="ENAUG">    511.36800000</i>
   <i name="EDIFF">      0.00000100</i>
   <i type="int" name="IALGO">    68</i>
   <i type="int" name="IWAVPR">    11</i>
   <i type="int" name="NBANDS">   522</i>
   <i name="NELECT">    862.00000000</i>
   <i type="int" name="TURBO">     0</i>
   <i type="int" name="IRESTART">     0</i>
   <i type="int" name="NREBOOT">     0</i>
   <i type="int" name="NMIN">     0</i>
   <i name="EREF">      0.00000000</i>
   <separator name="electronic smearing" >
    <i type="int" name="ISMEAR">     1</i>
    <i name="SIGMA">      0.20000000</i>
    <i name="KSPACING">      0.50000000</i>
    <i type="logical" name="KGAMMA"> T  </i>
   </separator>
   <separator name="electronic projectors" >
    <i type="logical" name="LREAL"> T  </i>
    <v name="ROPT">     -0.00050000     -0.00050000</v>
    <i type="int" name="LMAXPAW">  -100</i>
    <i type="int" name="LMAXMIX">     2</i>
    <i type="logical" name="NLSPLINE"> F  </i>
   </separator>
   <separator name="electronic startup" >
    <i type="int" name="ISTART">     0</i>
    <i type="int" name="ICHARG">     2</i>
    <i type="int" name="INIWAV">     1</i>
   </separator>
   <separator name="electronic spin" >
    <i type="int" name="ISPIN">     1</i>
    <i type="logical" name="LNONCOLLINEAR"> F  </i>
    <v name="MAGMOM">      1.00000000      1.00000000      1.00000000      1.00000000      1.00000000      1.00000000      1.00000000      1.00000000      1.00000000      1.00000000      1.00000000      1.00000000      1.00000000      1.00000000      1.00000000      1.00000000      1.00000000      1.00000000      1.00000000      1.00000000
      1.00000000      1.00000000      1.00000000      1.00000000      1.00000000      1.00000000      1.00000000      1.00000000      1.00000000      1.00000000      1.00000000      1.00000000      1.00000000      1.00000000      1.00000000      1.00000000      1.00000000      1.00000000      1.00000000      1.00000000
      1.00000000      1.00000000      1.00000000      1.00000000      1.00000000      1.00000000      1.00000000      1.00000000      1.00000000      1.00000000      1.00000000      1.00000000      1.00000000      1.00000000      1.00000000      1.00000000      1.00000000      1.00000000      1.00000000      1.00000000
      1.00000000      1.00000000      1.00000000      1.00000000      1.00000000      1.00000000      1.00000000      1.00000000      1.00000000      1.00000000      1.00000000      1.00000000      1.00000000      1.00000000      1.00000000      1.00000000      1.00000000      1.00000000      1.00000000      1.00000000
      1.00000000      1.00000000      1.00000000      1.00000000      1.00000000      1.00000000      1.00000000      1.00000000      1.00000000      1.00000000      1.00000000      1.00000000      1.00000000      1.00000000      1.00000000      1.00000000      1.00000000      1.00000000      1.00000000      1.00000000
      1.00000000      1.00000000      1.00000000      1.00000000      1.00000000      1.00000000      1.00000000      1.00000000</v>
    <i name="NUPDOWN">     -1.00000000</i>
    <i type="logical" name="LSORBIT"> F  </i>
    <v name="SAXIS">      0.00000000      0.00000000      1.00000000</v>
    <i type="logical" name="LSPIRAL"> F  </i>
    <v name="QSPIRAL">      0.00000000      0.00000000      0.00000000</v>
    <i type="logical" name="LZEROZ"> F  </i>
   </separator>
   <separator name="electronic exchange-correlation" >
    <i type="logical" name="LASPH"> F  </i>
    <i type="logical" name="LMETAGGA"> F  </i>
   </separator>
   <separator name="electronic convergence" >
    <i type="int" name="NELM">   400</i>
    <i type="int" name="NELMDL">    -5</i>
    <i type="int" name="NELMIN">     2</i>
    <i name="ENINI">    400.00000000</i>
    <separator name="electronic convergence detail" >
     <i type="logical" name="LDIAG"> T  </i>
     <i type="logical" name="LSUBROT"> F  </i>
     <i name="WEIMIN">      0.00100000</i>
     <i name="EBREAK">      0.00000000</i>
     <i name="DEPER">      0.30000000</i>
     <i type="int" name="NRMM">     4</i>
     <i name="TIME">      0.40000000</i>
    </separator>
   </separator>
   <separator name="electronic mixer" >
    <i name="AMIX">      0.40000000</i>
    <i name="BMIX">      1.00000000</i>
    <i name="AMIN">      0.10000000</i>
    <i name="AMIX_MAG">      1.60000000</i>
    <i name="BMIX_MAG">      1.00000000</i>
    <separator name="electronic mixer details" >
     <i type="int" name="IMIX">     4</i>
     <i type="logical" name="MIXFIRST"> F  </i>
     <i type="int" name="MAXMIX">   -45</i>
     <i name="WC">    100.00000000</i>
     <i type="int" name="INIMIX">     1</i>
     <i type="int" name="MIXPRE">     1</i>
     <i type="int" name="MREMOVE">     5</i>
    </separator>
   </separator>
   <separator name="electronic dipolcorrection" >
    <i type="logical" name="LDIPOL"> F  </i>
    <i type="logical" name="LMONO"> F  </i>
    <i type="int" name="IDIPOL">     0</i>
    <i name="EPSILON">      1.00000000</i>
    <v name="DIPOL">   -100.00000000   -100.00000000   -100.00000000</v>
    <i name="EFIELD">      0.00000000</i>
   </separator>
  </separator>
  <separator name="grids" >
   <i type="int" name="NGX">    72</i>
   <i type="int" name="NGY">    72</i>
   <i type="int" name="NGZ">    72</i>
   <i type="int" name="NGXF">   144</i>
   <i type="int" name="NGYF">   144</i>
   <i type="int" name="NGZF">   144</i>
   <i type="logical" name="ADDGRID"> F  </i>
  </separator>
  <separator name="ionic" >
   <i type="int" name="NSW">   100</i>
   <i type="int" name="IBRION">     2</i>
   <i type="int" name="MDALGO">     0</i>
   <i type="int" name="ISIF">     2</i>
   <i name="PSTRESS">      0.00000000</i>
   <i name="EDIFFG">     -0.01000000</i>
   <i type="int" name="NFREE">     1</i>
   <i name="POTIM">      0.50000000</i>
   <i name="SMASS">     -3.00000000</i>
   <i name="SCALEE">      1.00000000</i>
  </separator>
  <separator name="ionic md" >
   <i name="TEBEG">      0.00010000</i>
   <i name="TEEND">      0.00010000</i>
   <i type="int" name="NBLOCK">     1</i>
   <i type="int" name="KBLOCK">   100</i>
   <i type="int" name="NPACO">   256</i>
   <i name="APACO">     16.00000000</i>
  </separator>
  <separator name="symmetry" >
   <i type="int" name="ISYM">     0</i>
   <i name="SYMPREC">      0.00001000</i>
  </separator>
  <separator name="dos" >
   <i type="int" name="LORBIT">     0</i>
   <v name="RWIGS">     -1.00000000     -1.00000000</v>
   <i type="int" name="NEDOS">   301</i>
   <i name="EMIN">     10.00000000</i>
   <i name="EMAX">    -10.00000000</i>
   <i name="EFERMI">      0.00000000</i>
  </separator>
  <separator name="writing" >
   <i type="int" name="NWRITE">     2</i>
   <i type="logical" name="LWAVE"> F  </i>
   <i type="logical" name="LDOWNSAMPLE"> F  </i>
   <i type="logical" name="LCHARG"> F  </i>
   <i type="logical" name="LPARD"> F  </i>
   <i type="logical" name="LVTOT"> F  </i>
   <i type="logical" name="LVHAR"> F  </i>
   <i type="logical" name="LELF"> F  </i>
   <i type="logical" name="LOPTICS"> F  </i>
   <v name="STM">      0.00000000      0.00000000      0.00000000      0.00000000      0.00000000      0.00000000      0.00000000</v>
  </separator>
  <separator name="performance" >
   <i type="int" name="NPAR">     6</i>
   <i type="int" name="NSIM">     4</i>
   <i type="int" name="NBLK">    -1</i>
   <i type="logical" name="LPLANE"> T  </i>
   <i type="logical" name="LSCALAPACK"> T  </i>
   <i type="logical" name="LSCAAWARE"> F  </i>
   <i type="logical" name="LSCALU"> F  </i>
   <i type="logical" name="LASYNC"> F  </i>
   <i type="logical" name="LORBITALREAL"> F  </i>
  </separator>
  <separator name="miscellaneous" >
   <i type="int" name="IDIOT">     3</i>
   <i type="int" name="ISPECIAL">     0</i>
   <i type="logical" name="LMUSIC"> F  </i>
   <v name="POMASS">     55.84700000    127.60000000</v>
   <v name="DARWINR">      0.00000000      0.00000000</v>
   <v name="DARWINV">      1.00000000      1.00000000</v>
   <i type="logical" name="LCORR"> T  </i>
  </separator>
  <i type="logical" name="GGA_COMPAT"> T  </i>
  <i type="logical" name="LBERRY"> F  </i>
  <i type="int" name="ICORELEVEL">     0</i>
  <i type="logical" name="LDAU"> F  </i>
  <i type="int" name="I_CONSTRAINED_M">     0</i>
  <separator name="electronic exchange-correlation" >
   <i type="string" name="GGA">--</i>
   <i type="int" name="VOSKOWN">     0</i>
   <i type="logical" name="LHFCALC"> F  </i>
   <i type="string" name="PRECFOCK"></i>
   <i type="logical" name="LSYMGRAD"> F  </i>
   <i type="logical" name="LHFONE"> F  </i>
   <i type="logical" name="LRHFCALC"> F  </i>
   <i type="logical" name="LTHOMAS"> F  </i>
   <i type="logical" name="LMODELHF"> F  </i>
   <i name="ENCUT4O">     -1.00000000</i>
   <i type="int" name="EXXOEP">     0</i>
   <i type="int" name="FOURORBIT">     0</i>
   <i name="AEXX">      0.00000000</i>
   <i name="HFALPHA">      0.00000000</i>
   <i name="MCALPHA">      0.00000000</i>
   <i name="ALDAX">      1.00000000</i>
   <i name="AGGAX">      1.00000000</i>
   <i name="ALDAC">      1.00000000</i>
   <i name="AGGAC">      1.00000000</i>
   <i type="int" name="NKREDX">     1</i>
   <i type="int" name="NKREDY">     1</i>
   <i type="int" name="NKREDZ">     1</i>
   <i type="logical" name="SHIFTRED"> F  </i>
   <i type="logical" name="ODDONLY"> F  </i>
   <i type="logical" name="EVENONLY"> F  </i>
   <i type="int" name="LMAXFOCK">     0</i>
   <i type="int" name="NMAXFOCKAE">     0</i>
   <i type="logical" name="LFOCKAEDFT"> F  </i>
   <i name="HFSCREEN">      0.00000000</i>
   <i name="HFSCREENC">      0.00000000</i>
   <i type="int" name="NBANDSGWLOW">     0</i>
  </separator>
  <separator name="vdW DFT" >
   <i type="logical" name="LUSE_VDW"> F  </i>
   <i name="Zab_VDW">     -0.84910000</i>
   <i name="PARAM1">      0.12340000</i>
   <i name="PARAM2">      1.00000000</i>
   <i name="PARAM3">      0.00000000</i>
  </separator>
  <separator name="model GW" >
   <i type="int" name="MODEL_GW">     0</i>
   <i name="MODEL_EPS0">      6.13252964</i>
   <i name="MODEL_ALPHA">      1.00000000</i>
  </separator>
  <separator name="linear response parameters" >
   <i type="logical" name="LEPSILON"> F  </i>
   <i type="logical" name="LRPA"> F  </i>
   <i type="logical" name="LNABLA"> F  </i>
   <i type="logical" name="LVEL"> F  </i>
   <i type="int" name="KINTER">     0</i>
   <i name="CSHIFT">      0.10000000</i>
   <i name="OMEGAMAX">     -1.00000000</i>
   <i name="DEG_THRESHOLD">      0.00200000</i>
   <i name="RTIME">     -0.10000000</i>
   <i name="WPLASMAI">      0.00000000</i>
   <v name="DFIELD">      0.00000000      0.00000000      0.00000000</v>
   <v name="WPLASMA">      0.00000000      0.00000000      0.00000000      0.00000000      0.00000000      0.00000000      0.00000000      0.00000000      0.00000000</v>
  </separator>
  <separator name="orbital magnetization" >
   <i type="logical" name="NUCIND"> F  </i>
   <v name="MAGPOS">      0.00000000      0.00000000      0.00000000</v>
   <i type="logical" name="LNICSALL"> T  </i>
   <i type="logical" name="ORBITALMAG"> F  </i>
   <i type="logical" name="LMAGBLOCH"> F  </i>
   <i type="logical" name="LCHIMAG"> F  </i>
   <i type="logical" name="LGAUGE"> T  </i>
   <i type="int" name="MAGATOM">     0</i>
   <v name="MAGDIPOL">      0.00000000      0.00000000      0.00000000</v>
   <v name="AVECCONST">      0.00000000      0.00000000      0.00000000</v>
  </separator>
  <separator name="response functions" >
   <i type="logical" name="LADDER"> F  </i>
   <i type="logical" name="LRPAFORCE"> F  </i>
   <i type="logical" name="LFXC"> F  </i>
   <i type="logical" name="LHARTREE"> T  </i>
   <i type="int" name="IBSE">     0</i>
   <v type="int" name="KPOINT">    -1     0     0     0</v>
   <i type="logical" name="LTCTE"> F  </i>
   <i type="logical" name="LTETE"> F  </i>
   <i type="logical" name="LTRIPLET"> F  </i>
   <i type="logical" name="LFXCEPS"> F  </i>
   <i type="logical" name="LFXHEG"> F  </i>
   <i type="int" name="NATURALO">     2</i>
   <i type="logical" name="L2ORDER"> F  </i>
   <i type="logical" name="LMP2LT"> F  </i>
   <i type="logical" name="LUSEW"> F  </i>
   <i name="ENCUTGW">     -2.00000000</i>
   <i name="ENCUTGWSOFT">     -2.00000000</i>
   <i name="ENCUTLF">     -1.00000000</i>
   <i type="int" name="LMAXMP2">    -1</i>
   <i name="SCISSOR">      0.00000000</i>
   <i type="int" name="NOMEGA">     0</i>
   <i type="int" name="NOMEGAR">     0</i>
   <i type="int" name="NBANDSGW">    -1</i>
   <i type="int" name="NBANDSO">    -1</i>
   <i type="int" name="NBANDSV">    -1</i>
   <i type="int" name="NELM">   400</i>
   <i type="int" name="NELMHF">     1</i>
   <i type="int" name="DIM">     3</i>
   <i type="int" name="ANTIRES">     0</i>
   <i name="OMEGAMAX">    -30.00000000</i>
   <i name="OMEGAMIN">    -30.00000000</i>
   <i name="OMEGATL">   -200.00000000</i>
   <i type="int" name="OMEGAGRID">   140</i>
   <i name="CSHIFT">     -0.10000000</i>
   <i type="logical" name="SELFENERGY"> F  </i>
   <i type="logical" name="LSPECTRAL"> F  </i>
   <i type="logical" name="LSPECTRALGW"> F  </i>
   <i type="logical" name="LSINGLES"> F  </i>
   <i type="logical" name="LFERMIGW"> F  </i>
   <i type="logical" name="ODDONLYGW"> F  </i>
   <i type="logical" name="EVENONLYGW"> F  </i>
   <i type="int" name="NKREDLFX">     1</i>
   <i type="int" name="NKREDLFY">     1</i>
   <i type="int" name="NKREDLFZ">     1</i>
   <i type="int" name="MAXMEM">  2800</i>
   <i type="int" name="TELESCOPE">     0</i>
   <i type="int" name="TAUPAR">     1</i>
   <i type="int" name="OMEGAPAR">    -1</i>
   <i name="LAMBDA">      1.00000000</i>
  </separator>
  <separator name="External order field" >
   <i name="OFIELD_KAPPA">      0.00000000</i>
   <v name="OFIELD_K">      0.00000000      0.00000000      0.00000000</v>
   <i name="OFIELD_Q6_NEAR">      0.00000000</i>
   <i name="OFIELD_Q6_FAR">      0.00000000</i>
   <i name="OFIELD_A">      0.00000000</i>
  </separator>
 </parameters>
 <atominfo>
  <atoms>     108 </atoms>
  <types>       2 </types>
  <array name="atoms" >
   <dimension dim="1">ion</dimension>
   <field type="string">element</field>
   <field type="int">atomtype</field>
   <set>
    <rc><c>Fe</c><c>   1</c></rc>
    <rc><c>Fe</c><c>   1</c></rc>
    <rc><c>Fe</c><c>   1</c></rc>
    <rc><c>Fe</c><c>   1</c></rc>
    <rc><c>Fe</c><c>   1</c></rc>
    <rc><c>Fe</c><c>   1</c></rc>
    <rc><c>Fe</c><c>   1</c></rc>
    <rc><c>Fe</c><c>   1</c></rc>
    <rc><c>Fe</c><c>   1</c></rc>
    <rc><c>Fe</c><c>   1</c></rc>
    <rc><c>Fe</c><c>   1</c></rc>
    <rc><c>Fe</c><c>   1</c></rc>
    <rc><c>Fe</c><c>   1</c></rc>
    <rc><c>Fe</c><c>   1</c></rc>
    <rc><c>Fe</c><c>   1</c></rc>
    <rc><c>Fe</c><c>   1</c></rc>
    <rc><c>Fe</c><c>   1</c></rc>
    <rc><c>Fe</c><c>   1</c></rc>
    <rc><c>Fe</c><c>   1</c></rc>
    <rc><c>Fe</c><c>   1</c></rc>
    <rc><c>Fe</c><c>   1</c></rc>
    <rc><c>Fe</c><c>   1</c></rc>
    <rc><c>Fe</c><c>   1</c></rc>
    <rc><c>Fe</c><c>   1</c></rc>
    <rc><c>Fe</c><c>   1</c></rc>
    <rc><c>Fe</c><c>   1</c></rc>
    <rc><c>Fe</c><c>   1</c></rc>
    <rc><c>Fe</c><c>   1</c></rc>
    <rc><c>Fe</c><c>   1</c></rc>
    <rc><c>Fe</c><c>   1</c></rc>
    <rc><c>Fe</c><c>   1</c></rc>
    <rc><c>Fe</c><c>   1</c></rc>
    <rc><c>Fe</c><c>   1</c></rc>
    <rc><c>Fe</c><c>   1</c></rc>
    <rc><c>Fe</c><c>   1</c></rc>
    <rc><c>Fe</c><c>   1</c></rc>
    <rc><c>Fe</c><c>   1</c></rc>
    <rc><c>Fe</c><c>   1</c></rc>
    <rc><c>Fe</c><c>   1</c></rc>
    <rc><c>Fe</c><c>   1</c></rc>
    <rc><c>Fe</c><c>   1</c></rc>
    <rc><c>Fe</c><c>   1</c></rc>
    <rc><c>Fe</c><c>   1</c></rc>
    <rc><c>Fe</c><c>   1</c></rc>
    <rc><c>Fe</c><c>   1</c></rc>
    <rc><c>Fe</c><c>   1</c></rc>
    <rc><c>Fe</c><c>   1</c></rc>
    <rc><c>Fe</c><c>   1</c></rc>
    <rc><c>Fe</c><c>   1</c></rc>
    <rc><c>Fe</c><c>   1</c></rc>
    <rc><c>Fe</c><c>   1</c></rc>
    <rc><c>Fe</c><c>   1</c></rc>
    <rc><c>Fe</c><c>   1</c></rc>
    <rc><c>Fe</c><c>   1</c></rc>
    <rc><c>Fe</c><c>   1</c></rc>
    <rc><c>Fe</c><c>   1</c></rc>
    <rc><c>Fe</c><c>   1</c></rc>
    <rc><c>Fe</c><c>   1</c></rc>
    <rc><c>Fe</c><c>   1</c></rc>
    <rc><c>Fe</c><c>   1</c></rc>
    <rc><c>Fe</c><c>   1</c></rc>
    <rc><c>Fe</c><c>   1</c></rc>
    <rc><c>Fe</c><c>   1</c></rc>
    <rc><c>Fe</c><c>   1</c></rc>
    <rc><c>Fe</c><c>   1</c></rc>
    <rc><c>Fe</c><c>   1</c></rc>
    <rc><c>Fe</c><c>   1</c></rc>
    <rc><c>Fe</c><c>   1</c></rc>
    <rc><c>Fe</c><c>   1</c></rc>
    <rc><c>Fe</c><c>   1</c></rc>
    <rc><c>Fe</c><c>   1</c></rc>
    <rc><c>Fe</c><c>   1</c></rc>
    <rc><c>Fe</c><c>   1</c></rc>
    <rc><c>Fe</c><c>   1</c></rc>
    <rc><c>Fe</c><c>   1</c></rc>
    <rc><c>Fe</c><c>   1</c></rc>
    <rc><c>Fe</c><c>   1</c></rc>
    <rc><c>Fe</c><c>   1</c></rc>
    <rc><c>Fe</c><c>   1</c></rc>
    <rc><c>Fe</c><c>   1</c></rc>
    <rc><c>Fe</c><c>   1</c></rc>
    <rc><c>Fe</c><c>   1</c></rc>
    <rc><c>Fe</c><c>   1</c></rc>
    <rc><c>Fe</c><c>   1</c></rc>
    <rc><c>Fe</c><c>   1</c></rc>
    <rc><c>Fe</c><c>   1</c></rc>
    <rc><c>Fe</c><c>   1</c></rc>
    <rc><c>Fe</c><c>   1</c></rc>
    <rc><c>Fe</c><c>   1</c></rc>
    <rc><c>Fe</c><c>   1</c></rc>
    <rc><c>Fe</c><c>   1</c></rc>
    <rc><c>Fe</c><c>   1</c></rc>
    <rc><c>Fe</c><c>   1</c></rc>
    <rc><c>Fe</c><c>   1</c></rc>
    <rc><c>Fe</c><c>   1</c></rc>
    <rc><c>Fe</c><c>   1</c></rc>
    <rc><c>Fe</c><c>   1</c></rc>
    <rc><c>Fe</c><c>   1</c></rc>
    <rc><c>Fe</c><c>   1</c></rc>
    <rc><c>Fe</c><c>   1</c></rc>
    <rc><c>Fe</c><c>   1</c></rc>
    <rc><c>Fe</c><c>   1</c></rc>
    <rc><c>Fe</c><c>   1</c></rc>
    <rc><c>Fe</c><c>   1</c></rc>
    <rc><c>Fe</c><c>   1</c></rc>
    <rc><c>Fe</c><c>   1</c></rc>
    <rc><c>Fe</c><c>   1</c></rc>
    <rc><c>Te</c><c>   2</c></rc>
   </set>
  </array>
  <array name="atomtypes" >
   <dimension dim="1">type</dimension>
   <field type="int">atomspertype</field>
   <field type="string">element</field>
   <field>mass</field>
   <field>valence</field>
   <field type="string">pseudopotential</field>
   <set>
    <rc><c> 107</c><c>Fe</c><c>     55.84700000</c><c>      8.00000000</c><c> PAW_PBE Fe 06Sep2000                   </c></rc>
    <rc><c>   1</c><c>Te</c><c>    127.60000000</c><c>      6.00000000</c><c> PAW_PBE Te 08Apr2002                   </c></rc>
   </set>
  </array>
 </atominfo>
 <structure name="initialpos" >
  <crystal>
   <varray name="basis" >
    <v>      10.33484705       0.00000000       0.00000000 </v>
    <v>       0.00000000      10.33484705       0.00000000 </v>
    <v>       0.00000000       0.00000000      10.33484705 </v>
   </varray>
   <i name="volume">   1103.85533447 </i>
   <varray name="rec_basis" >
    <v>       0.09676002       0.00000000       0.00000000 </v>
    <v>       0.00000000       0.09676002       0.00000000 </v>
    <v>       0.00000000       0.00000000       0.09676002 </v>
   </varray>
  </crystal>
  <varray name="positions" >
   <v>       0.00000000       0.00000000       0.00000000 </v>
   <v>       0.00000000       0.16666893       0.16666893 </v>
   <v>       0.00000000       0.33333106       0.00000000 </v>
   <v>       0.00000000       0.50000000       0.16666894 </v>
   <v>       0.00000000       0.66666897       0.00000000 </v>
   <v>       0.00000000       0.83333104       0.16666893 </v>
   <v>       0.00000000       0.00000000       0.33333106 </v>
   <v>       0.00000000       0.16666894       0.50000000 </v>
   <v>       0.00000000       0.33333107       0.33333107 </v>
   <v>       0.00000000       0.50000000       0.50000000 </v>
   <v>       0.00000000       0.66666896       0.33333107 </v>
   <v>       0.00000000       0.83333103       0.50000000 </v>
   <v>       0.00000000       0.00000000       0.66666897 </v>
   <v>       0.00000000       0.16666893       0.83333104 </v>
   <v>       0.00000000       0.33333107       0.66666896 </v>
   <v>       0.00000000       0.50000000       0.83333103 </v>
   <v>       0.00000000       0.66666896       0.66666896 </v>
   <v>       0.00000000       0.83333104       0.83333104 </v>
   <v>       0.16666893       0.00000000       0.16666893 </v>
   <v>       0.16666893       0.16666893       0.00000000 </v>
   <v>       0.16666893       0.83333104       0.00000000 </v>
   <v>       0.16666893       0.33333107       0.50000000 </v>
   <v>       0.16666893       0.50000000       0.33333107 </v>
   <v>       0.16666893       0.66666896       0.50000000 </v>
   <v>       0.16666893       0.00000000       0.83333104 </v>
   <v>       0.16666893       0.50000000       0.66666896 </v>
   <v>       0.16666893       0.33333107       0.16666893 </v>
   <v>       0.16666893       0.66666896       0.16666893 </v>
   <v>       0.16666893       0.16666893       0.33333107 </v>
   <v>       0.16666893       0.83333104       0.33333107 </v>
   <v>       0.16666893       0.16666893       0.66666896 </v>
   <v>       0.16666893       0.33333107       0.83333104 </v>
   <v>       0.16666893       0.66666896       0.83333104 </v>
   <v>       0.16666893       0.83333104       0.66666896 </v>
   <v>       0.16666894       0.50000000       0.00000000 </v>
   <v>       0.16666894       0.00000000       0.50000000 </v>
   <v>       0.33333106       0.00000000       0.00000000 </v>
   <v>       0.33333107       0.16666893       0.16666893 </v>
   <v>       0.33333107       0.83333104       0.16666893 </v>
   <v>       0.33333107       0.33333107       0.33333107 </v>
   <v>       0.33333107       0.66666896       0.33333107 </v>
   <v>       0.33333107       0.16666893       0.83333104 </v>
   <v>       0.33333107       0.33333107       0.66666896 </v>
   <v>       0.33333107       0.66666896       0.66666896 </v>
   <v>       0.33333107       0.83333104       0.83333104 </v>
   <v>       0.33333107       0.33333107       0.00000000 </v>
   <v>       0.33333107       0.50000000       0.16666893 </v>
   <v>       0.33333107       0.66666896       0.00000000 </v>
   <v>       0.33333107       0.00000000       0.33333107 </v>
   <v>       0.33333107       0.16666893       0.50000000 </v>
   <v>       0.33333107       0.83333104       0.50000000 </v>
   <v>       0.33333107       0.00000000       0.66666896 </v>
   <v>       0.33333107       0.50000000       0.83333104 </v>
   <v>       0.50000000       0.00000000       0.16666894 </v>
   <v>       0.50000000       0.16666894       0.00000000 </v>
   <v>       0.50000000       0.33333107       0.16666893 </v>
   <v>       0.50000000       0.50000000       0.00000000 </v>
   <v>       0.50000000       0.66666896       0.16666893 </v>
   <v>       0.50000000       0.83333103       0.00000000 </v>
   <v>       0.50000000       0.00000000       0.50000000 </v>
   <v>       0.50000000       0.16666893       0.33333107 </v>
   <v>       0.50000000       0.33333106       0.50000000 </v>
   <v>       0.50000000       0.50000000       0.33333106 </v>
   <v>       0.50000000       0.66666897       0.50000000 </v>
   <v>       0.50000000       0.83333104       0.33333107 </v>
   <v>       0.50000000       0.00000000       0.83333103 </v>
   <v>       0.50000000       0.16666893       0.66666896 </v>
   <v>       0.50000000       0.33333107       0.83333104 </v>
   <v>       0.50000000       0.50000000       0.66666897 </v>
   <v>       0.50000000       0.66666896       0.83333104 </v>
   <v>       0.50000000       0.83333104       0.66666896 </v>
   <v>       0.66666896       0.33333107       0.00000000 </v>
   <v>       0.66666896       0.50000000       0.16666893 </v>
   <v>       0.66666896       0.66666896       0.00000000 </v>
   <v>       0.66666896       0.00000000       0.33333107 </v>
   <v>       0.66666896       0.16666893       0.50000000 </v>
   <v>       0.66666896       0.83333104       0.50000000 </v>
   <v>       0.66666896       0.00000000       0.66666896 </v>
   <v>       0.66666896       0.50000000       0.83333104 </v>
   <v>       0.66666896       0.16666893       0.16666893 </v>
   <v>       0.66666896       0.83333104       0.16666893 </v>
   <v>       0.66666896       0.33333107       0.33333107 </v>
   <v>       0.66666896       0.66666896       0.33333107 </v>
   <v>       0.66666896       0.16666893       0.83333104 </v>
   <v>       0.66666896       0.33333107       0.66666896 </v>
   <v>       0.66666896       0.66666896       0.66666896 </v>
   <v>       0.66666896       0.83333104       0.83333104 </v>
   <v>       0.66666897       0.00000000       0.00000000 </v>
   <v>       0.66666897       0.50000000       0.50000000 </v>
   <v>       0.83333103       0.50000000       0.00000000 </v>
   <v>       0.83333103       0.00000000       0.50000000 </v>
   <v>       0.83333104       0.33333107       0.16666893 </v>
   <v>       0.83333104       0.66666896       0.16666893 </v>
   <v>       0.83333104       0.16666893       0.33333107 </v>
   <v>       0.83333104       0.83333104       0.33333107 </v>
   <v>       0.83333104       0.16666893       0.66666896 </v>
   <v>       0.83333104       0.33333107       0.83333104 </v>
   <v>       0.83333104       0.66666896       0.83333104 </v>
   <v>       0.83333104       0.83333104       0.66666896 </v>
   <v>       0.83333104       0.00000000       0.16666893 </v>
   <v>       0.83333104       0.16666893       0.00000000 </v>
   <v>       0.83333104       0.83333104       0.00000000 </v>
   <v>       0.83333104       0.33333107       0.50000000 </v>
   <v>       0.83333104       0.50000000       0.33333107 </v>
   <v>       0.83333104       0.66666896       0.50000000 </v>
   <v>       0.83333104       0.00000000       0.83333104 </v>
   <v>       0.83333104       0.50000000       0.66666896 </v>
   <v>       0.33333106       0.50000000       0.50000000 </v>
  </varray>
 </structure>
 <calculation>
  <scstep>
   <time name="dav">  126.22  126.27</time>
   <time name="total">  126.35  126.40</time>
   <energy>
    <i name="alphaZ">   7219.36161419 </i>
    <i name="ewald"> -65934.10789516 </i>
    <i name="hartreedc"> -11154.59655395 </i>
    <i name="XCdc">    418.13818114 </i>
    <i name="pawpsdc">  51348.42291135 </i>
    <i name="pawaedc"> -52126.69704375 </i>
    <i name="eentropy">     -0.00347176 </i>
    <i name="bandstr">  13949.77667914 </i>
    <i name="atom">  63830.48195377 </i>
    <i name="e_fr_energy">   7550.77637496 </i>
    <i name="e_wo_entrp">   7550.77984673 </i>
    <i name="e_0_energy">   7550.77753222 </i>
   </energy>
  </scstep>
  <scstep>
   <time name="dav">  126.03  126.05</time>
   <time name="total">  126.04  126.06</time>
   <energy>
    <i name="e_fr_energy">    -31.22191667 </i>
    <i name="e_wo_entrp">    -31.22095316 </i>
    <i name="e_0_energy">    -31.22159550 </i>
   </energy>
  </scstep>
  <scstep>
   <time name="dav">  126.01  126.05</time>
   <time name="total">  126.03  126.06</time>
   <energy>
    <i name="e_fr_energy">   -851.66345802 </i>
    <i name="e_wo_entrp">   -851.67636522 </i>
    <i name="e_0_energy">   -851.66776042 </i>
   </energy>
  </scstep>
  <scstep>
   <time name="dav">  205.18  205.23</time>
   <time name="total">  205.20  205.25</time>
   <energy>
    <i name="e_fr_energy">  -1020.26013699 </i>
    <i name="e_wo_entrp">  -1020.24025870 </i>
    <i name="e_0_energy">  -1020.25351089 </i>
   </energy>
  </scstep>
  <scstep>
   <time name="dav">  184.33  184.36</time>
   <time name="total">  189.08  189.11</time>
   <energy>
    <i name="e_fr_energy">  -1033.88211036 </i>
    <i name="e_wo_entrp">  -1033.84100541 </i>
    <i name="e_0_energy">  -1033.86840871 </i>
   </energy>
  </scstep>
  <scstep>
   <time name="diag">   17.99   17.99</time>
   <time name="diis">   70.63   70.65</time>
   <time name="orth">    3.46    3.46</time>
   <time name="total">   96.99   97.02</time>
   <energy>
    <i name="e_fr_energy">   -872.16766512 </i>
    <i name="e_wo_entrp">   -872.17850707 </i>
    <i name="e_0_energy">   -872.17127910 </i>
   </energy>
  </scstep>
  <scstep>
   <time name="diag">   17.98   17.99</time>
   <time name="diis">   72.98   73.01</time>
   <time name="orth">    3.47    3.47</time>
   <time name="total">   99.29   99.33</time>
   <energy>
    <i name="e_fr_energy">   -958.80346447 </i>
    <i name="e_wo_entrp">   -958.78668172 </i>
    <i name="e_0_energy">   -958.79787022 </i>
   </energy>
  </scstep>
  <scstep>
   <time name="diag">   17.96   17.98</time>
   <time name="diis">   70.07   70.09</time>
   <time name="orth">    3.46    3.46</time>
   <time name="total">   96.35   96.40</time>
   <energy>
    <i name="e_fr_energy">   -884.64152696 </i>
    <i name="e_wo_entrp">   -884.48433178 </i>
    <i name="e_0_energy">   -884.58912857 </i>
   </energy>
  </scstep>
  <scstep>
   <time name="diag">   17.95   17.95</time>
   <time name="diis">   73.54   73.57</time>
   <time name="orth">    3.46    3.47</time>
   <time name="total">   99.84   99.87</time>
   <energy>
    <i name="e_fr_energy">   -872.61598375 </i>
    <i name="e_wo_entrp">   -872.57629547 </i>
    <i name="e_0_energy">   -872.60275432 </i>
   </energy>
  </scstep>
  <scstep>
   <time name="diag">   17.99   18.00</time>
   <time name="diis">   90.11   90.11</time>
   <time name="orth">    3.45    3.45</time>
   <time name="total">  116.42  116.44</time>
   <energy>
    <i name="e_fr_energy">   -874.65324697 </i>
    <i name="e_wo_entrp">   -874.63099322 </i>
    <i name="e_0_energy">   -874.64582905 </i>
   </energy>
  </scstep>
  <scstep>
   <time name="diag">   17.78   17.79</time>
   <time name="diis">   74.00   74.03</time>
   <time name="orth">    3.45    3.46</time>
   <time name="total">  100.10  100.15</time>
   <energy>
    <i name="e_fr_energy">   -872.42032397 </i>
    <i name="e_wo_entrp">   -872.41135818 </i>
    <i name="e_0_energy">   -872.41733538 </i>
   </energy>
  </scstep>
  <scstep>
   <time name="diag">   17.79   17.79</time>
   <time name="diis">  101.45  101.46</time>
   <time name="orth">    3.46    3.46</time>
   <time name="total">  127.54  127.56</time>
   <energy>
    <i name="e_fr_energy">   -872.46892869 </i>
    <i name="e_wo_entrp">   -872.46382148 </i>
    <i name="e_0_energy">   -872.46722629 </i>
   </energy>
  </scstep>
  <scstep>
   <time name="diag">   17.85   17.86</time>
   <time name="diis">   74.23   74.26</time>
   <time name="orth">    3.52    3.52</time>
   <time name="total">  100.43  100.47</time>
   <energy>
    <i name="e_fr_energy">   -871.99169120 </i>
    <i name="e_wo_entrp">   -871.97149865 </i>
    <i name="e_0_energy">   -871.98496035 </i>
   </energy>
  </scstep>
  <scstep>
   <time name="diag">   17.84   17.84</time>
   <time name="diis">   90.96   90.96</time>
   <time name="orth">    3.46    3.46</time>
   <time name="total">  117.11  117.13</time>
   <energy>
    <i name="e_fr_energy">   -871.91122900 </i>
    <i name="e_wo_entrp">   -871.88768456 </i>
    <i name="e_0_energy">   -871.90338085 </i>
   </energy>
  </scstep>
  <scstep>
   <time name="diag">   17.83   17.83</time>
   <time name="diis">   81.40   81.43</time>
   <time name="orth">    3.45    3.45</time>
   <time name="total">  107.60  107.64</time>
   <energy>
    <i name="e_fr_energy">   -871.90782196 </i>
    <i name="e_wo_entrp">   -871.88162529 </i>
    <i name="e_0_energy">   -871.89908974 </i>
   </energy>
  </scstep>
  <scstep>
   <time name="diag">   17.85   17.86</time>
   <time name="diis">   74.97   74.99</time>
   <time name="orth">    3.50    3.50</time>
   <time name="total">  101.17  101.20</time>
   <energy>
    <i name="e_fr_energy">   -871.84169784 </i>
    <i name="e_wo_entrp">   -871.81594304 </i>
    <i name="e_0_energy">   -871.83311291 </i>
   </energy>
  </scstep>
  <scstep>
   <time name="diag">   17.94   17.95</time>
   <time name="diis">   93.66   93.68</time>
   <time name="orth">    3.49    3.49</time>
   <time name="total">  119.97  120.00</time>
   <energy>
    <i name="e_fr_energy">   -871.83502788 </i>
    <i name="e_wo_entrp">   -871.80959374 </i>
    <i name="e_0_energy">   -871.82654983 </i>
   </energy>
  </scstep>
  <scstep>
   <time name="diag">   17.95   17.96</time>
   <time name="diis">   76.49   76.50</time>
   <time name="orth">    3.47    3.47</time>
   <time name="total">  102.76  102.78</time>
   <energy>
    <i name="e_fr_energy">   -871.79866856 </i>
    <i name="e_wo_entrp">   -871.77792126 </i>
    <i name="e_0_energy">   -871.79175279 </i>
   </energy>
  </scstep>
  <scstep>
   <time name="diag">   17.90   17.91</time>
   <time name="diis">  102.69  102.72</time>
   <time name="orth">    3.49    3.49</time>
   <time name="total">  128.99  129.02</time>
   <energy>
    <i name="e_fr_energy">   -871.80264672 </i>
    <i name="e_wo_entrp">   -871.78198306 </i>
    <i name="e_0_energy">   -871.79575883 </i>
   </energy>
  </scstep>
  <scstep>
   <time name="diag">   17.90   17.90</time>
   <time name="diis">   80.59   80.63</time>
   <time name="orth">    3.50    3.50</time>
   <time name="total">  106.86  106.90</time>
   <energy>
    <i name="e_fr_energy">   -871.79962286 </i>
    <i name="e_wo_entrp">   -871.77842243 </i>
    <i name="e_0_energy">   -871.79255605 </i>
   </energy>
  </scstep>
  <scstep>
   <time name="diag">   17.89   17.89</time>
   <time name="diis">   76.46   76.47</time>
   <time name="orth">    3.48    3.48</time>
   <time name="total">  102.76  102.77</time>
   <energy>
    <i name="e_fr_energy">   -871.79514204 </i>
    <i name="e_wo_entrp">   -871.77349569 </i>
    <i name="e_0_energy">   -871.78792659 </i>
   </energy>
  </scstep>
  <scstep>
   <time name="diag">   17.91   17.91</time>
   <time name="diis">   98.82   98.83</time>
   <time name="orth">    3.48    3.48</time>
   <time name="total">  125.11  125.13</time>
   <energy>
    <i name="e_fr_energy">   -871.79515545 </i>
    <i name="e_wo_entrp">   -871.77361909 </i>
    <i name="e_0_energy">   -871.78797667 </i>
   </energy>
  </scstep>
  <scstep>
   <time name="diag">   17.90   17.90</time>
   <time name="diis">   80.58   80.60</time>
   <time name="orth">    3.45    3.45</time>
   <time name="total">  106.81  106.84</time>
   <energy>
    <i name="e_fr_energy">   -871.79479171 </i>
    <i name="e_wo_entrp">   -871.77337822 </i>
    <i name="e_0_energy">   -871.78765388 </i>
   </energy>
  </scstep>
  <scstep>
   <time name="diag">   17.93   17.93</time>
   <time name="diis">   97.64   97.65</time>
   <time name="orth">    3.46    3.46</time>
   <time name="total">  123.93  123.94</time>
   <energy>
    <i name="e_fr_energy">   -871.79475922 </i>
    <i name="e_wo_entrp">   -871.77343796 </i>
    <i name="e_0_energy">   -871.78765213 </i>
   </energy>
  </scstep>
  <scstep>
   <time name="diag">   17.91   17.91</time>
   <time name="diis">   82.24   82.26</time>
   <time name="orth">    3.46    3.46</time>
   <time name="total">  108.52  108.54</time>
   <energy>
    <i name="e_fr_energy">   -871.79472227 </i>
    <i name="e_wo_entrp">   -871.77348811 </i>
    <i name="e_0_energy">   -871.78764422 </i>
   </energy>
  </scstep>
  <scstep>
   <time name="diag">   17.93   17.93</time>
   <time name="diis">   79.48   79.50</time>
   <time name="orth">    3.49    3.49</time>
   <time name="total">  105.82  105.84</time>
   <energy>
    <i name="e_fr_energy">   -871.79467963 </i>
    <i name="e_wo_entrp">   -871.77351554 </i>
    <i name="e_0_energy">   -871.78762493 </i>
   </energy>
  </scstep>
  <scstep>
   <time name="diag">   17.94   17.95</time>
   <time name="diis">   94.64   94.69</time>
   <time name="orth">    3.48    3.48</time>
   <time name="total">  120.97  121.02</time>
   <energy>
    <i name="e_fr_energy">   -871.79466418 </i>
    <i name="e_wo_entrp">   -871.77357883 </i>
    <i name="e_0_energy">   -871.78763573 </i>
   </energy>
  </scstep>
  <scstep>
   <time name="diag">   17.94   17.94</time>
   <time name="diis">   77.84   77.87</time>
   <time name="orth">    3.45    3.45</time>
   <time name="total">  104.15  104.19</time>
   <energy>
    <i name="e_fr_energy">   -871.79461197 </i>
    <i name="e_wo_entrp">   -871.77366659 </i>
    <i name="e_0_energy">   -871.78763017 </i>
   </energy>
  </scstep>
  <scstep>
   <time name="diag">   17.90   17.91</time>
   <time name="diis">   87.78   87.80</time>
   <time name="orth">    3.48    3.48</time>
   <time name="total">  114.08  114.10</time>
   <energy>
    <i name="e_fr_energy">   -871.79460365 </i>
    <i name="e_wo_entrp">   -871.77372165 </i>
    <i name="e_0_energy">   -871.78764299 </i>
   </energy>
  </scstep>
  <scstep>
   <time name="diag">   17.93   17.93</time>
   <time name="diis">   57.38   57.41</time>
   <time name="orth">    3.46    3.46</time>
   <time name="total">   83.67   83.70</time>
   <energy>
    <i name="e_fr_energy">   -871.79459896 </i>
    <i name="e_wo_entrp">   -871.77375602 </i>
    <i name="e_0_energy">   -871.78765131 </i>
   </energy>
  </scstep>
  <scstep>
   <time name="diag">   17.87   17.89</time>
   <time name="diis">   45.87   45.89</time>
   <time name="orth">    3.47    3.47</time>
   <time name="total">   72.10   72.15</time>
   <energy>
    <i name="e_fr_energy">   -871.79459377 </i>
    <i name="e_wo_entrp">   -871.77379801 </i>
    <i name="e_0_energy">   -871.78766185 </i>
   </energy>
  </scstep>
  <scstep>
   <time name="diag">   17.89   17.90</time>
   <time name="diis">   45.18   45.18</time>
   <time name="orth">    3.47    3.47</time>
   <time name="total">   71.44   71.46</time>
   <energy>
    <i name="e_fr_energy">   -871.79459085 </i>
    <i name="e_wo_entrp">   -871.77383491 </i>
    <i name="e_0_energy">   -871.78767220 </i>
   </energy>
  </scstep>
  <scstep>
   <time name="diag">   17.88   17.90</time>
   <time name="diis">   44.51   44.51</time>
   <time name="orth">    3.46    3.46</time>
   <time name="total">   70.76   70.79</time>
   <energy>
    <i name="e_fr_energy">   -871.79458769 </i>
    <i name="e_wo_entrp">   -871.77387115 </i>
    <i name="e_0_energy">   -871.78768217 </i>
   </energy>
  </scstep>
  <scstep>
   <time name="diag">   17.87   17.87</time>
   <time name="diis">   44.23   44.23</time>
   <time name="orth">    3.46    3.46</time>
   <time name="total">   70.46   70.46</time>
   <energy>
    <i name="e_fr_energy">   -871.79458537 </i>
    <i name="e_wo_entrp">   -871.77390289 </i>
    <i name="e_0_energy">   -871.78769121 </i>
   </energy>
  </scstep>
  <scstep>
   <time name="diag">   17.90   17.90</time>
   <time name="diis">   43.74   43.77</time>
   <time name="orth">    3.47    3.47</time>
   <time name="total">   69.99   70.03</time>
   <energy>
    <i name="e_fr_energy">   -871.79458357 </i>
    <i name="e_wo_entrp">   -871.77393072 </i>
    <i name="e_0_energy">   -871.78769929 </i>
   </energy>
  </scstep>
  <scstep>
   <time name="diag">   17.92   17.92</time>
   <time name="diis">   42.45   42.46</time>
   <time name="orth">    3.49    3.49</time>
   <time name="total">   68.75   68.78</time>
   <energy>
    <i name="e_fr_energy">   -871.79458192 </i>
    <i name="e_wo_entrp">   -871.77395433 </i>
    <i name="e_0_energy">   -871.78770605 </i>
   </energy>
  </scstep>
  <scstep>
   <time name="diag">   17.96   17.97</time>
   <time name="diis">   41.83   41.84</time>
   <time name="orth">    3.49    3.49</time>
   <time name="total">   68.20   68.21</time>
   <energy>
    <i name="e_fr_energy">   -871.79458045 </i>
    <i name="e_wo_entrp">   -871.77397570 </i>
    <i name="e_0_energy">   -871.78771220 </i>
   </energy>
  </scstep>
  <scstep>
   <time name="diag">   17.93   17.93</time>
   <time name="diis">   40.89   40.89</time>
   <time name="orth">    3.49    3.49</time>
   <time name="total">   67.22   67.23</time>
   <energy>
    <i name="e_fr_energy">   -871.79457918 </i>
    <i name="e_wo_entrp">   -871.77399478 </i>
    <i name="e_0_energy">   -871.78771771 </i>
   </energy>
  </scstep>
  <scstep>
   <time name="diag">   17.93   17.94</time>
   <time name="diis">   37.06   37.06</time>
   <time name="orth">    3.49    3.49</time>
   <time name="total">   63.38   63.40</time>
   <energy>
    <i name="e_fr_energy">   -871.79457793 </i>
    <i name="e_wo_entrp">   -871.77401229 </i>
    <i name="e_0_energy">   -871.78772272 </i>
   </energy>
  </scstep>
  <scstep>
   <time name="diag">   17.96   17.96</time>
   <time name="diis">   36.51   36.53</time>
   <time name="orth">    3.47    3.47</time>
   <time name="total">   62.85   62.88</time>
   <energy>
    <i name="e_fr_energy">   -871.79457689 </i>
    <i name="e_wo_entrp">   -871.77402768 </i>
    <i name="e_0_energy">   -871.78772715 </i>
   </energy>
  </scstep>
  <scstep>
   <time name="diag">   17.92   17.94</time>
   <time name="diis">   34.69   34.69</time>
   <time name="orth">    3.46    3.46</time>
   <time name="total">   60.97   60.99</time>
   <energy>
    <i name="e_fr_energy">   -871.79457584 </i>
    <i name="e_wo_entrp">   -871.77404212 </i>
    <i name="e_0_energy">   -871.78773127 </i>
   </energy>
  </scstep>
  <scstep>
   <time name="diag">   17.93   17.93</time>
   <time name="diis">   34.84   34.85</time>
   <time name="orth">    3.45    3.45</time>
   <time name="total">   56.36   56.37</time>
   <energy>
    <i name="alphaZ">   7219.36161419 </i>
    <i name="ewald"> -65934.10789516 </i>
    <i name="hartreedc">  -9341.36029587 </i>
    <i name="XCdc">    333.92322282 </i>
    <i name="pawpsdc">  57759.57533828 </i>
    <i name="pawaedc"> -58650.28314933 </i>
    <i name="eentropy">     -0.02051972 </i>
    <i name="bandstr">   3910.63515610 </i>
    <i name="atom">  63830.48195377 </i>
    <i name="e_fr_energy">   -871.79457490 </i>
    <i name="e_wo_entrp">   -871.77405518 </i>
    <i name="e_0_energy">   -871.78773499 </i>
   </energy>
  </scstep>
  <structure>
   <crystal>
    <varray name="basis" >
     <v>      10.33484705       0.00000000       0.00000000 </v>
     <v>       0.00000000      10.33484705       0.00000000 </v>
     <v>       0.00000000       0.00000000      10.33484705 </v>
    </varray>
    <i name="volume">   1103.85533447 </i>
    <varray name="rec_basis" >
     <v>       0.09676002       0.00000000       0.00000000 </v>
     <v>       0.00000000       0.09676002       0.00000000 </v>
     <v>       0.00000000       0.00000000       0.09676002 </v>
    </varray>
   </crystal>
   <varray name="positions" >
    <v>       0.00000000       0.00000000       0.00000000 </v>
    <v>       0.00000000       0.16666893       0.16666893 </v>
    <v>       0.00000000       0.33333106       0.00000000 </v>
    <v>       0.00000000       0.50000000       0.16666894 </v>
    <v>       0.00000000       0.66666897       0.00000000 </v>
    <v>       0.00000000       0.83333104       0.16666893 </v>
    <v>       0.00000000       0.00000000       0.33333106 </v>
    <v>       0.00000000       0.16666894       0.50000000 </v>
    <v>       0.00000000       0.33333107       0.33333107 </v>
    <v>       0.00000000       0.50000000       0.50000000 </v>
    <v>       0.00000000       0.66666896       0.33333107 </v>
    <v>       0.00000000       0.83333103       0.50000000 </v>
    <v>       0.00000000       0.00000000       0.66666897 </v>
    <v>       0.00000000       0.16666893       0.83333104 </v>
    <v>       0.00000000       0.33333107       0.66666896 </v>
    <v>       0.00000000       0.50000000       0.83333103 </v>
    <v>       0.00000000       0.66666896       0.66666896 </v>
    <v>       0.00000000       0.83333104       0.83333104 </v>
    <v>       0.16666893       0.00000000       0.16666893 </v>
    <v>       0.16666893       0.16666893       0.00000000 </v>
    <v>       0.16666893       0.83333104       0.00000000 </v>
    <v>       0.16666893       0.33333107       0.50000000 </v>
    <v>       0.16666893       0.50000000       0.33333107 </v>
    <v>       0.16666893       0.66666896       0.50000000 </v>
    <v>       0.16666893       0.00000000       0.83333104 </v>
    <v>       0.16666893       0.50000000       0.66666896 </v>
    <v>       0.16666893       0.33333107       0.16666893 </v>
    <v>       0.16666893       0.66666896       0.16666893 </v>
    <v>       0.16666893       0.16666893       0.33333107 </v>
    <v>       0.16666893       0.83333104       0.33333107 </v>
    <v>       0.16666893       0.16666893       0.66666896 </v>
    <v>       0.16666893       0.33333107       0.83333104 </v>
    <v>       0.16666893       0.66666896       0.83333104 </v>
    <v>       0.16666893       0.83333104       0.66666896 </v>
    <v>       0.16666894       0.50000000       0.00000000 </v>
    <v>       0.16666894       0.00000000       0.50000000 </v>
    <v>       0.33333106       0.00000000       0.00000000 </v>
    <v>       0.33333107       0.16666893       0.16666893 </v>
    <v>       0.33333107       0.83333104       0.16666893 </v>
    <v>       0.33333107       0.33333107       0.33333107 </v>
    <v>       0.33333107       0.66666896       0.33333107 </v>
    <v>       0.33333107       0.16666893       0.83333104 </v>
    <v>       0.33333107       0.33333107       0.66666896 </v>
    <v>       0.33333107       0.66666896       0.66666896 </v>
    <v>       0.33333107       0.83333104       0.83333104 </v>
    <v>       0.33333107       0.33333107       0.00000000 </v>
    <v>       0.33333107       0.50000000       0.16666893 </v>
    <v>       0.33333107       0.66666896       0.00000000 </v>
    <v>       0.33333107       0.00000000       0.33333107 </v>
    <v>       0.33333107       0.16666893       0.50000000 </v>
    <v>       0.33333107       0.83333104       0.50000000 </v>
    <v>       0.33333107       0.00000000       0.66666896 </v>
    <v>       0.33333107       0.50000000       0.83333104 </v>
    <v>       0.50000000       0.00000000       0.16666894 </v>
    <v>       0.50000000       0.16666894       0.00000000 </v>
    <v>       0.50000000       0.33333107       0.16666893 </v>
    <v>       0.50000000       0.50000000       0.00000000 </v>
    <v>       0.50000000       0.66666896       0.16666893 </v>
    <v>       0.50000000       0.83333103       0.00000000 </v>
    <v>       0.50000000       0.00000000       0.50000000 </v>
    <v>       0.50000000       0.16666893       0.33333107 </v>
    <v>       0.50000000       0.33333106       0.50000000 </v>
    <v>       0.50000000       0.50000000       0.33333106 </v>
    <v>       0.50000000       0.66666897       0.50000000 </v>
    <v>       0.50000000       0.83333104       0.33333107 </v>
    <v>       0.50000000       0.00000000       0.83333103 </v>
    <v>       0.50000000       0.16666893       0.66666896 </v>
    <v>       0.50000000       0.33333107       0.83333104 </v>
    <v>       0.50000000       0.50000000       0.66666897 </v>
    <v>       0.50000000       0.66666896       0.83333104 </v>
    <v>       0.50000000       0.83333104       0.66666896 </v>
    <v>       0.66666896       0.33333107       0.00000000 </v>
    <v>       0.66666896       0.50000000       0.16666893 </v>
    <v>       0.66666896       0.66666896       0.00000000 </v>
    <v>       0.66666896       0.00000000       0.33333107 </v>
    <v>       0.66666896       0.16666893       0.50000000 </v>
    <v>       0.66666896       0.83333104       0.50000000 </v>
    <v>       0.66666896       0.00000000       0.66666896 </v>
    <v>       0.66666896       0.50000000       0.83333104 </v>
    <v>       0.66666896       0.16666893       0.16666893 </v>
    <v>       0.66666896       0.83333104       0.16666893 </v>
    <v>       0.66666896       0.33333107       0.33333107 </v>
    <v>       0.66666896       0.66666896       0.33333107 </v>
    <v>       0.66666896       0.16666893       0.83333104 </v>
    <v>       0.66666896       0.33333107       0.66666896 </v>
    <v>       0.66666896       0.66666896       0.66666896 </v>
    <v>       0.66666896       0.83333104       0.83333104 </v>
    <v>       0.66666897       0.00000000       0.00000000 </v>
    <v>       0.66666897       0.50000000       0.50000000 </v>
    <v>       0.83333103       0.50000000       0.00000000 </v>
    <v>       0.83333103       0.00000000       0.50000000 </v>
    <v>       0.83333104       0.33333107       0.16666893 </v>
    <v>       0.83333104       0.66666896       0.16666893 </v>
    <v>       0.83333104       0.16666893       0.33333107 </v>
    <v>       0.83333104       0.83333104       0.33333107 </v>
    <v>       0.83333104       0.16666893       0.66666896 </v>
    <v>       0.83333104       0.33333107       0.83333104 </v>
    <v>       0.83333104       0.66666896       0.83333104 </v>
    <v>       0.83333104       0.83333104       0.66666896 </v>
    <v>       0.83333104       0.00000000       0.16666893 </v>
    <v>       0.83333104       0.16666893       0.00000000 </v>
    <v>       0.83333104       0.83333104       0.00000000 </v>
    <v>       0.83333104       0.33333107       0.50000000 </v>
    <v>       0.83333104       0.50000000       0.33333107 </v>
    <v>       0.83333104       0.66666896       0.50000000 </v>
    <v>       0.83333104       0.00000000       0.83333104 </v>
    <v>       0.83333104       0.50000000       0.66666896 </v>
    <v>       0.33333106       0.50000000       0.50000000 </v>
   </varray>
  </structure>
  <varray name="forces" >
   <v>      -0.06408834       0.00000089      -0.00000129 </v>
   <v>       0.00600708       0.00560452       0.00560739 </v>
   <v>      -0.00839848       0.01396423      -0.00000352 </v>
   <v>       0.16987558       0.00000000       0.16945622 </v>
   <v>      -0.00840274      -0.01396769       0.00000008 </v>
   <v>       0.00600918      -0.00560277       0.00560743 </v>
   <v>      -0.00839755       0.00000048       0.01396653 </v>
   <v>       0.16988162       0.16945416       0.00000089 </v>
   <v>       0.02407663      -0.03388803      -0.03388499 </v>
   <v>      -0.07690917      -0.00000196      -0.00000049 </v>
   <v>       0.02408001       0.03388469      -0.03388716 </v>
   <v>       0.16988354      -0.16944889      -0.00000121 </v>
   <v>      -0.00839686       0.00000305      -0.01396826 </v>
   <v>       0.00601183       0.00560593      -0.00560551 </v>
   <v>       0.02408132      -0.03388852       0.03388495 </v>
   <v>       0.16987864      -0.00000165      -0.16945209 </v>
   <v>       0.02407877       0.03388471       0.03388480 </v>
   <v>       0.00601045      -0.00560309      -0.00560430 </v>
   <v>       0.01316617      -0.00000141      -0.00880508 </v>
   <v>       0.01316448      -0.00880802      -0.00000534 </v>
   <v>       0.01316292       0.00881206      -0.00000018 </v>
   <v>      -1.42544841      -1.42462288       0.00000403 </v>
   <v>      -1.42544954       0.00000012      -1.42461958 </v>
   <v>      -1.42544774       1.42461968       0.00000124 </v>
   <v>       0.01316689       0.00000215       0.00880690 </v>
   <v>      -1.42544281      -0.00000454       1.42461915 </v>
   <v>      -0.03471394      -0.03389864       0.02367211 </v>
   <v>      -0.03471551       0.03389870       0.02367302 </v>
   <v>      -0.03471246       0.02366821      -0.03389460 </v>
   <v>      -0.03471393      -0.02366545      -0.03389661 </v>
   <v>      -0.03471105       0.02367142       0.03389683 </v>
   <v>      -0.03471112      -0.03390145      -0.02367177 </v>
   <v>      -0.03471179       0.03389648      -0.02367143 </v>
   <v>      -0.03470948      -0.02366579       0.03389548 </v>
   <v>      -0.01119595      -0.00000210      -0.00000384 </v>
   <v>      -0.01119590       0.00000080       0.00000166 </v>
   <v>       0.00039906       0.00000285      -0.00000321 </v>
   <v>       0.00040863       0.16946234       0.16946569 </v>
   <v>       0.00040448      -0.16945966       0.16946829 </v>
   <v>       0.00047571      -1.42449408      -1.42448933 </v>
   <v>       0.00047420       1.42448929      -1.42448779 </v>
   <v>       0.00040437       0.16946407      -0.16946537 </v>
   <v>       0.00047128      -1.42448636       1.42448408 </v>
   <v>       0.00047669       1.42448427       1.42448614 </v>
   <v>       0.00040729      -0.16946012      -0.16946650 </v>
   <v>       0.00040216      -0.01037289      -0.00000525 </v>
   <v>       0.00040046      -0.00000183      -0.07734253 </v>
   <v>       0.00040409       0.01036799      -0.00000383 </v>
   <v>       0.00039945       0.00000154      -0.01036904 </v>
   <v>       0.00040391      -0.07734524       0.00000299 </v>
   <v>       0.00040103       0.07734913       0.00000211 </v>
   <v>       0.00039959       0.00000143       0.01036896 </v>
   <v>       0.00040161      -0.00000082       0.07734206 </v>
   <v>      -0.01356261       0.00000216      -0.00881075 </v>
   <v>      -0.01356323      -0.00881114      -0.00000155 </v>
   <v>       0.03429691      -0.03390522       0.02367414 </v>
   <v>       0.01080765      -0.00000101      -0.00000412 </v>
   <v>       0.03429491       0.03390176       0.02367191 </v>
   <v>      -0.01355879       0.00881297      -0.00000374 </v>
   <v>       0.01080263       0.00000329       0.00000031 </v>
   <v>       0.03429365       0.02367438      -0.03390023 </v>
   <v>       1.42481056      -1.42438416      -0.00000015 </v>
   <v>       1.42481537      -0.00000333      -1.42438149 </v>
   <v>       1.42480718       1.42437946       0.00000238 </v>
   <v>       0.03429043      -0.02366984      -0.03390116 </v>
   <v>      -0.01356564       0.00000030       0.00881326 </v>
   <v>       0.03428805       0.02367506       0.03389771 </v>
   <v>       0.03429242      -0.03390437      -0.02367180 </v>
   <v>       1.42480845      -0.00000050       1.42438188 </v>
   <v>       0.03429439       0.03390161      -0.02367300 </v>
   <v>       0.03429065      -0.02367338       0.03390249 </v>
   <v>       0.00799130       0.01395972       0.00000061 </v>
   <v>      -0.17028043      -0.00000369       0.16943862 </v>
   <v>       0.00799401      -0.01396139      -0.00000299 </v>
   <v>       0.00799323       0.00000337       0.01395825 </v>
   <v>      -0.17028799       0.16944056      -0.00000241 </v>
   <v>      -0.17028930      -0.16943363       0.00000282 </v>
   <v>       0.00799094      -0.00000076      -0.01396103 </v>
   <v>      -0.17028469       0.00000177      -0.16943618 </v>
   <v>      -0.00642741       0.00560642       0.00560731 </v>
   <v>      -0.00642640      -0.00560040       0.00560223 </v>
   <v>      -0.02447542      -0.03389690      -0.03389573 </v>
   <v>      -0.02447389       0.03388951      -0.03389570 </v>
   <v>      -0.00642924       0.00560595      -0.00560148 </v>
   <v>      -0.02447567      -0.03389465       0.03389268 </v>
   <v>      -0.02447614       0.03389258       0.03389766 </v>
   <v>      -0.00642901      -0.00560406      -0.00560128 </v>
   <v>       0.06366640       0.00000031      -0.00000006 </v>
   <v>       0.07647997      -0.00000302      -0.00000138 </v>
   <v>       0.00040452       0.00000227       0.00000063 </v>
   <v>       0.00040910       0.00000317      -0.00000158 </v>
   <v>       0.00040740       0.01397039      -0.00880340 </v>
   <v>       0.00041028      -0.01397335      -0.00880846 </v>
   <v>       0.00040989      -0.00880575       0.01396932 </v>
   <v>       0.00041300       0.00881070       0.01396606 </v>
   <v>       0.00041317      -0.00880516      -0.01397185 </v>
   <v>       0.00041023       0.01397071       0.00880591 </v>
   <v>       0.00040804      -0.01397440       0.00881016 </v>
   <v>       0.00041073       0.00880860      -0.01396742 </v>
   <v>       0.00040856      -0.00000001      -0.06449869 </v>
   <v>       0.00041034      -0.06450091       0.00000091 </v>
   <v>       0.00040860       0.06450048      -0.00000023 </v>
   <v>       0.00040520      -0.01037000      -0.00000027 </v>
   <v>       0.00040294      -0.00000203      -0.01037151 </v>
   <v>       0.00040716       0.01036396       0.00000053 </v>
   <v>       0.00040985       0.00000045       0.06450202 </v>
   <v>       0.00040270      -0.00000201       0.01036909 </v>
   <v>       0.00114874       0.00000179       0.00001178 </v>
  </varray>
  <varray name="stress" >
   <v>      25.77563671       0.00000634      -0.00000633 </v>
   <v>       0.00000637      25.77587127       0.00002154 </v>
   <v>      -0.00000637       0.00002155      25.77592873 </v>
  </varray>
  <energy>
   <i name="e_fr_energy">   -871.79457490 </i>
   <i name="e_wo_entrp">   -871.78773499 </i>
   <i name="e_0_energy">     -0.02051972 </i>
  </energy>
  <time name="totalsc"> 4449.05 4450.31</time>
 </calculation>
 <calculation>
  <scstep>
   <time name="dav">  125.66  125.68</time>
   <time name="total">  130.57  130.59</time>
   <energy>
    <i name="alphaZ">   7219.36161419 </i>
    <i name="ewald"> -65843.70755706 </i>
    <i name="hartreedc">  -9435.54847479 </i>
    <i name="XCdc">    334.25015210 </i>
    <i name="pawpsdc">  57759.57523552 </i>
    <i name="pawaedc"> -58650.28330002 </i>
    <i name="eentropy">      0.01497237 </i>
    <i name="bandstr">   3913.04045452 </i>
    <i name="atom">  63830.48195377 </i>
    <i name="e_fr_energy">   -872.81494940 </i>
    <i name="e_wo_entrp">   -872.82992177 </i>
    <i name="e_0_energy">   -872.81994019 </i>
   </energy>
  </scstep>
  <scstep>
   <time name="diag">   18.01   18.01</time>
   <time name="diis">   80.24   80.25</time>
   <time name="orth">    3.47    3.47</time>
   <time name="total">  106.57  106.59</time>
   <energy>
    <i name="e_fr_energy">   -922.50233598 </i>
    <i name="e_wo_entrp">   -922.49550737 </i>
    <i name="e_0_energy">   -922.50005978 </i>
   </energy>
  </scstep>
  <scstep>
   <time name="diag">   17.99   17.99</time>
   <time name="diis">   70.56   70.59</time>
   <time name="orth">    3.51    3.51</time>
   <time name="total">   96.94   97.01</time>
   <energy>
    <i name="e_fr_energy">   -875.38465098 </i>
    <i name="e_wo_entrp">   -875.35534934 </i>
    <i name="e_0_energy">   -875.37488377 </i>
   </energy>
  </scstep>
  <scstep>
   <time name="diag">   17.96   17.97</time>
   <time name="diis">   79.74   79.75</time>
   <time name="orth">    3.48    3.48</time>
   <time name="total">  106.05  106.07</time>
   <energy>
    <i name="e_fr_energy">   -873.52343984 </i>
    <i name="e_wo_entrp">   -873.50045403 </i>
    <i name="e_0_energy">   -873.51577790 </i>
   </energy>
  </scstep>
  <scstep>
   <time name="diag">   18.00   18.00</time>
   <time name="diis">   97.24   97.27</time>
   <time name="orth">    3.49    3.49</time>
   <time name="total">  123.62  123.66</time>
   <energy>
    <i name="e_fr_energy">   -873.45474973 </i>
    <i name="e_wo_entrp">   -873.43251724 </i>
    <i name="e_0_energy">   -873.44733890 </i>
   </energy>
  </scstep>
  <scstep>
   <time name="diag">   17.88   17.88</time>
   <time name="diis">   86.08   86.12</time>
   <time name="orth">    3.48    3.48</time>
   <time name="total">  112.30  112.35</time>
   <energy>
    <i name="e_fr_energy">   -873.31336510 </i>
    <i name="e_wo_entrp">   -873.31390845 </i>
    <i name="e_0_energy">   -873.31354621 </i>
   </energy>
  </scstep>
  <scstep>
   <time name="diag">   17.86   17.87</time>
   <time name="diis">   91.67   91.68</time>
   <time name="orth">    3.48    3.48</time>
   <time name="total">  117.88  117.89</time>
   <energy>
    <i name="e_fr_energy">   -873.37291067 </i>
    <i name="e_wo_entrp">   -873.36686607 </i>
    <i name="e_0_energy">   -873.37089580 </i>
   </energy>
  </scstep>
  <scstep>
   <time name="diag">   17.92   17.93</time>
   <time name="diis">   70.37   70.40</time>
   <time name="orth">    3.50    3.50</time>
   <time name="total">   96.63   96.66</time>
   <energy>
    <i name="e_fr_energy">   -873.18350420 </i>
    <i name="e_wo_entrp">   -873.17179089 </i>
    <i name="e_0_energy">   -873.17959976 </i>
   </energy>
  </scstep>
  <scstep>
   <time name="diag">   17.92   17.92</time>
   <time name="diis">   79.00   79.01</time>
   <time name="orth">    3.49    3.49</time>
   <time name="total">  105.23  105.25</time>
   <energy>
    <i name="e_fr_energy">   -873.26403456 </i>
    <i name="e_wo_entrp">   -873.25266377 </i>
    <i name="e_0_energy">   -873.26024430 </i>
   </energy>
  </scstep>
  <scstep>
   <time name="diag">   17.98   17.99</time>
   <time name="diis">   70.63   70.64</time>
   <time name="orth">    3.50    3.50</time>
   <time name="total">   96.96   96.97</time>
   <energy>
    <i name="e_fr_energy">   -873.19787305 </i>
    <i name="e_wo_entrp">   -873.18091360 </i>
    <i name="e_0_energy">   -873.19221990 </i>
   </energy>
  </scstep>
  <scstep>
   <time name="diag">   17.93   17.93</time>
   <time name="diis">   96.83   96.84</time>
   <time name="orth">    3.47    3.47</time>
   <time name="total">  123.08  123.09</time>
   <energy>
    <i name="e_fr_energy">   -873.19625052 </i>
    <i name="e_wo_entrp">   -873.18073115 </i>
    <i name="e_0_energy">   -873.19107740 </i>
   </energy>
  </scstep>
  <scstep>
   <time name="diag">   17.89   17.89</time>
   <time name="diis">   75.26   75.28</time>
   <time name="orth">    3.48    3.48</time>
   <time name="total">  101.46  101.48</time>
   <energy>
    <i name="e_fr_energy">   -873.17811134 </i>
    <i name="e_wo_entrp">   -873.16510379 </i>
    <i name="e_0_energy">   -873.17377549 </i>
   </energy>
  </scstep>
  <scstep>
   <time name="diag">   17.85   17.85</time>
   <time name="diis">   96.28   96.31</time>
   <time name="orth">    3.49    3.49</time>
   <time name="total">  122.46  122.50</time>
   <energy>
    <i name="e_fr_energy">   -873.17511614 </i>
    <i name="e_wo_entrp">   -873.16230178 </i>
    <i name="e_0_energy">   -873.17084469 </i>
   </energy>
  </scstep>
  <scstep>
   <time name="diag">   17.74   17.76</time>
   <time name="diis">   93.15   93.19</time>
   <time name="orth">    3.48    3.48</time>
   <time name="total">  119.21  119.27</time>
   <energy>
    <i name="e_fr_energy">   -873.17483972 </i>
    <i name="e_wo_entrp">   -873.16282572 </i>
    <i name="e_0_energy">   -873.17083505 </i>
   </energy>
  </scstep>
  <scstep>
   <time name="diag">   17.77   17.77</time>
   <time name="diis">   82.93   82.94</time>
   <time name="orth">    3.47    3.47</time>
   <time name="total">  108.99  109.01</time>
   <energy>
    <i name="e_fr_energy">   -873.17432850 </i>
    <i name="e_wo_entrp">   -873.16290335 </i>
    <i name="e_0_energy">   -873.17052012 </i>
   </energy>
  </scstep>
  <scstep>
   <time name="diag">   17.76   17.77</time>
   <time name="diis">  100.86  100.90</time>
   <time name="orth">    3.48    3.48</time>
   <time name="total">  126.92  126.97</time>
   <energy>
    <i name="e_fr_energy">   -873.17458559 </i>
    <i name="e_wo_entrp">   -873.16309769 </i>
    <i name="e_0_energy">   -873.17075629 </i>
   </energy>
  </scstep>
  <scstep>
   <time name="diag">   17.79   17.79</time>
   <time name="diis">   75.34   75.34</time>
   <time name="orth">    3.48    3.48</time>
   <time name="total">  101.41  101.42</time>
   <energy>
    <i name="e_fr_energy">   -873.17429151 </i>
    <i name="e_wo_entrp">   -873.16267996 </i>
    <i name="e_0_energy">   -873.17042099 </i>
   </energy>
  </scstep>
  <scstep>
   <time name="diag">   17.77   17.78</time>
   <time name="diis">   96.33   96.37</time>
   <time name="orth">    3.46    3.46</time>
   <time name="total">  122.36  122.41</time>
   <energy>
    <i name="e_fr_energy">   -873.17427188 </i>
    <i name="e_wo_entrp">   -873.16263056 </i>
    <i name="e_0_energy">   -873.17039144 </i>
   </energy>
  </scstep>
  <scstep>
   <time name="diag">   17.81   17.81</time>
   <time name="diis">   78.70   78.73</time>
   <time name="orth">    3.47    3.47</time>
   <time name="total">  104.80  104.83</time>
[...]
       <r>    -5.8959    -0.0000     2.0000 </r>
       <r>    -5.8332    -0.0000     2.0000 </r>
       <r>    -5.7705    -0.0000     2.0000 </r>
       <r>    -5.7078    -0.0000     2.0000 </r>
       <r>    -5.6452    -0.0000     2.0000 </r>
       <r>    -5.5825    -0.0000     2.0000 </r>
       <r>    -5.5198     0.0000     2.0000 </r>
       <r>    -5.4571     0.0000     2.0000 </r>
       <r>    -5.3944     0.0000     2.0000 </r>
       <r>    -5.3317     0.0000     2.0000 </r>
       <r>    -5.2690     0.0000     2.0000 </r>
       <r>    -5.2063     0.0000     2.0000 </r>
       <r>    -5.1436     0.0000     2.0000 </r>
       <r>    -5.0809     0.0000     2.0000 </r>
       <r>    -5.0182     0.0000     2.0000 </r>
       <r>    -4.9556     0.0000     2.0000 </r>
       <r>    -4.8929     0.0000     2.0000 </r>
       <r>    -4.8302     0.0000     2.0000 </r>
       <r>    -4.7675     0.0000     2.0000 </r>
       <r>    -4.7048     0.0000     2.0000 </r>
       <r>    -4.6421     0.0000     2.0000 </r>
       <r>    -4.5794     0.0000     2.0000 </r>
       <r>    -4.5167     0.0000     2.0000 </r>
       <r>    -4.4540     0.0000     2.0000 </r>
       <r>    -4.3913     0.0000     2.0000 </r>
       <r>    -4.3287     0.0000     2.0000 </r>
       <r>    -4.2660     0.0000     2.0000 </r>
       <r>    -4.2033     0.0000     2.0000 </r>
       <r>    -4.1406     0.0000     2.0000 </r>
       <r>    -4.0779     0.0000     2.0000 </r>
       <r>    -4.0152     0.0000     2.0000 </r>
       <r>    -3.9525     0.0000     2.0000 </r>
       <r>    -3.8898     0.0000     2.0000 </r>
       <r>    -3.8271     0.0000     2.0000 </r>
       <r>    -3.7644     0.0000     2.0000 </r>
       <r>    -3.7017     0.0000     2.0000 </r>
       <r>    -3.6391     0.0000     2.0000 </r>
       <r>    -3.5764     0.0000     2.0000 </r>
       <r>    -3.5137     0.0000     2.0000 </r>
       <r>    -3.4510     0.0000     2.0000 </r>
       <r>    -3.3883     0.0000     2.0000 </r>
       <r>    -3.3256     0.0000     2.0000 </r>
       <r>    -3.2629    -0.0000     2.0000 </r>
       <r>    -3.2002    -0.0000     2.0000 </r>
       <r>    -3.1375    -0.0000     2.0000 </r>
       <r>    -3.0748    -0.0000     2.0000 </r>
       <r>    -3.0122    -0.0000     2.0000 </r>
       <r>    -2.9495    -0.0000     2.0000 </r>
       <r>    -2.8868    -0.0000     2.0000 </r>
       <r>    -2.8241    -0.0000     2.0000 </r>
       <r>    -2.7614    -0.0000     2.0000 </r>
       <r>    -2.6987    -0.0000     2.0000 </r>
       <r>    -2.6360    -0.0000     2.0000 </r>
       <r>    -2.5733    -0.0000     2.0000 </r>
       <r>    -2.5106    -0.0000     2.0000 </r>
       <r>    -2.4479    -0.0000     2.0000 </r>
       <r>    -2.3853    -0.0000     2.0000 </r>
       <r>    -2.3226    -0.0000     2.0000 </r>
       <r>    -2.2599    -0.0001     2.0000 </r>
       <r>    -2.1972    -0.0006     2.0000 </r>
       <r>    -2.1345    -0.0027     1.9998 </r>
       <r>    -2.0718    -0.0103     1.9991 </r>
       <r>    -2.0091    -0.0305     1.9972 </r>
       <r>    -1.9464    -0.0697     1.9929 </r>
       <r>    -1.8837    -0.1158     1.9856 </r>
       <r>    -1.8210    -0.1101     1.9787 </r>
       <r>    -1.7583     0.0641     1.9827 </r>
       <r>    -1.6957     0.5440     2.0168 </r>
       <r>    -1.6330     1.3952     2.1043 </r>
       <r>    -1.5703     2.5127     2.2618 </r>
       <r>    -1.5076     3.6067     2.4879 </r>
       <r>    -1.4449     4.3442     2.7603 </r>
       <r>    -1.3822     4.5966     3.0484 </r>
       <r>    -1.3195     4.6134     3.3376 </r>
       <r>    -1.2568     4.9133     3.6456 </r>
       <r>    -1.1941     5.8138     4.0101 </r>
       <r>    -1.1314     6.9456     4.4455 </r>
       <r>    -1.0688     7.4732     4.9140 </r>
       <r>    -1.0061     7.0627     5.3568 </r>
       <r>    -0.9434     6.4319     5.7600 </r>
       <r>    -0.8807     6.6588     6.1775 </r>
       <r>    -0.8180     8.0650     6.6831 </r>
       <r>    -0.7553     9.9619     7.3076 </r>
       <r>    -0.6926    11.3867     8.0214 </r>
       <r>    -0.6299    11.9304     8.7693 </r>
       <r>    -0.5672    11.8232     9.5105 </r>
       <r>    -0.5045    11.3618    10.2228 </r>
       <r>    -0.4418    10.6548    10.8908 </r>
       <r>    -0.3792    10.1279    11.5257 </r>
       <r>    -0.3165    10.6470    12.1932 </r>
       <r>    -0.2538    12.3489    12.9673 </r>
       <r>    -0.1911    13.7424    13.8288 </r>
       <r>    -0.1284    13.0699    14.6482 </r>
       <r>    -0.0657    10.5576    15.3100 </r>
       <r>    -0.0030     8.3394    15.8328 </r>
       <r>     0.0597     8.1101    16.3413 </r>
       <r>     0.1224     9.7391    16.9518 </r>
       <r>     0.1851    12.1467    17.7133 </r>
       <r>     0.2477    14.4938    18.6219 </r>
       <r>     0.3104    16.2699    19.6419 </r>
       <r>     0.3731    17.0669    20.7118 </r>
       <r>     0.4358    16.7210    21.7601 </r>
       <r>     0.4985    15.4260    22.7271 </r>
       <r>     0.5612    13.6701    23.5841 </r>
       <r>     0.6239    12.1574    24.3463 </r>
       <r>     0.6866    11.4924    25.0667 </r>
       <r>     0.7493    11.7441    25.8030 </r>
       <r>     0.8120    12.5551    26.5901 </r>
       <r>     0.8747    13.6722    27.4472 </r>
       <r>     0.9373    15.0454    28.3904 </r>
       <r>     1.0000    16.5437    29.4275 </r>
       <r>     1.0627    18.0367    30.5582 </r>
       <r>     1.1254    19.5913    31.7864 </r>
       <r>     1.1881    21.0906    33.1086 </r>
       <r>     1.2508    21.9315    34.4835 </r>
       <r>     1.3135    21.6372    35.8399 </r>
       <r>     1.3762    20.5085    37.1256 </r>
       <r>     1.4389    19.3302    38.3374 </r>
       <r>     1.5016    18.8657    39.5201 </r>
       <r>     1.5642    19.8506    40.7646 </r>
       <r>     1.6269    22.7279    42.1894 </r>
       <r>     1.6896    26.7694    43.8676 </r>
       <r>     1.7523    29.9526    45.7453 </r>
       <r>     1.8150    30.6226    47.6651 </r>
       <r>     1.8777    29.5125    49.5152 </r>
       <r>     1.9404    29.7815    51.3822 </r>
       <r>     2.0031    34.7959    53.5636 </r>
       <r>     2.0658    45.6744    56.4270 </r>
       <r>     2.1285    60.6486    60.2290 </r>
       <r>     2.1911    76.4145    65.0195 </r>
       <r>     2.2538    89.8543    70.6525 </r>
       <r>     2.3165    98.8634    76.8503 </r>
       <r>     2.3792   102.7926    83.2944 </r>
       <r>     2.4419   102.8884    89.7445 </r>
       <r>     2.5046   101.7147    96.1210 </r>
       <r>     2.5673   101.4925   102.4837 </r>
       <r>     2.6300   103.0566   108.9443 </r>
       <r>     2.6927   106.2278   115.6038 </r>
       <r>     2.7554   110.7373   122.5459 </r>
       <r>     2.8181   116.7755   129.8666 </r>
       <r>     2.8807   124.5769   137.6764 </r>
       <r>     2.9434   133.2831   146.0320 </r>
       <r>     3.0061   140.9424   154.8677 </r>
       <r>     3.0688   146.5664   164.0560 </r>
       <r>     3.1315   151.5125   173.5544 </r>
       <r>     3.1942   157.5119   183.4289 </r>
       <r>     3.2569   163.7418   193.6939 </r>
       <r>     3.3196   167.3117   204.1828 </r>
       <r>     3.3823   166.6022   214.6271 </r>
       <r>     3.4450   162.7743   224.8315 </r>
       <r>     3.5076   157.9425   234.7330 </r>
       <r>     3.5703   153.4824   244.3549 </r>
       <r>     3.6330   150.5004   253.7898 </r>
       <r>     3.6957   149.9148   263.1880 </r>
       <r>     3.7584   150.7879   272.6410 </r>
       <r>     3.8211   150.0819   282.0497 </r>
       <r>     3.8838   145.5648   291.1752 </r>
       <r>     3.9465   138.4127   299.8523 </r>
       <r>     4.0092   132.2185   308.1412 </r>
       <r>     4.0719   129.6420   316.2685 </r>
       <r>     4.1346   130.0912   324.4240 </r>
       <r>     4.1972   130.5384   332.6075 </r>
       <r>     4.2599   128.8811   340.6871 </r>
       <r>     4.3226   126.5422   348.6201 </r>
       <r>     4.3853   127.1715   356.5925 </r>
       <r>     4.4480   132.7197   364.9127 </r>
       <r>     4.5107   141.8261   373.8039 </r>
       <r>     4.5734   152.3660   383.3558 </r>
       <r>     4.6361   163.6936   393.6178 </r>
       <r>     4.6988   174.7826   404.5750 </r>
       <r>     4.7615   181.9316   415.9803 </r>
       <r>     4.8241   181.4378   427.3547 </r>
       <r>     4.8868   174.8542   438.3164 </r>
       <r>     4.9495   169.5473   448.9454 </r>
       <r>     5.0122   172.9138   459.7855 </r>
       <r>     5.0749   186.1445   471.4549 </r>
       <r>     5.1376   203.4965   484.2122 </r>
       <r>     5.2003   217.3137   497.8357 </r>
       <r>     5.2630   223.8928   511.8716 </r>
       <r>     5.3257   225.0679   525.9812 </r>
       <r>     5.3884   225.2444   540.1019 </r>
       <r>     5.4510   228.0282   554.3971 </r>
       <r>     5.5137   235.0850   569.1346 </r>
       <r>     5.5764   245.7023   584.5378 </r>
       <r>     5.6391   255.7590   600.5714 </r>
       <r>     5.7018   258.4391   616.7731 </r>
       <r>     5.7645   248.6921   632.3637 </r>
       <r>     5.8272   227.9727   646.6554 </r>
       <r>     5.8899   203.4786   659.4116 </r>
       <r>     5.9526   182.0955   670.8272 </r>
       <r>     6.0153   165.9498   681.2307 </r>
       <r>     6.0780   153.9700   690.8831 </r>
       <r>     6.1406   145.8089   700.0239 </r>
       <r>     6.2033   142.6024   708.9637 </r>
       <r>     6.2660   144.8115   718.0420 </r>
       <r>     6.3287   151.0707   727.5127 </r>
       <r>     6.3914   159.1799   737.4918 </r>
       <r>     6.4541   167.4485   747.9892 </r>
       <r>     6.5168   175.4919   758.9908 </r>
       <r>     6.5795   184.2450   770.5412 </r>
       <r>     6.6422   194.1809   782.7145 </r>
       <r>     6.7049   202.9039   795.4346 </r>
       <r>     6.7675   206.2288   808.3632 </r>
       <r>     6.8302   203.0139   821.0902 </r>
       <r>     6.8929   197.1856   833.4519 </r>
       <r>     6.9556   192.9950   845.5508 </r>
       <r>     7.0183   189.7844   857.4485 </r>
       <r>     7.0810   184.0356   868.9857 </r>
       <r>     7.1437   175.7288   880.0022 </r>
       <r>     7.2064   169.6121   890.6353 </r>
       <r>     7.2691   169.5738   901.2659 </r>
       <r>     7.3318   173.9977   912.1739 </r>
       <r>     7.3945   178.0172   923.3339 </r>
       <r>     7.4571   179.1775   934.5666 </r>
       <r>     7.5198   179.6793   945.8308 </r>
       <r>     7.5825   183.9472   957.3625 </r>
       <r>     7.6452   195.1234   969.5949 </r>
       <r>     7.7079   212.5982   982.9227 </r>
       <r>     7.7706   230.0871   997.3470 </r>
       <r>     7.8333   235.3623  1012.1019 </r>
       <r>     7.8960   215.3248  1025.6007 </r>
       <r>     7.9587   166.4461  1036.0353 </r>
       <r>     8.0214   101.5066  1042.3988 </r>
       <r>     8.0840    42.7602  1045.0795 </r>
       <r>     8.1467     6.1119  1045.4626 </r>
       <r>     8.2094    -7.7217  1044.9785 </r>
       <r>     8.2721    -8.1666  1044.4666 </r>
       <r>     8.3348    -4.7039  1044.1717 </r>
       <r>     8.3975    -1.9375  1044.0502 </r>
       <r>     8.4602    -0.6122  1044.0118 </r>
       <r>     8.5229    -0.1527  1044.0023 </r>
       <r>     8.5856    -0.0305  1044.0004 </r>
       <r>     8.6483    -0.0049  1044.0000 </r>
       <r>     8.7110    -0.0006  1044.0000 </r>
       <r>     8.7736    -0.0001  1044.0000 </r>
       <r>     8.8363    -0.0000  1044.0000 </r>
       <r>     8.8990    -0.0000  1044.0000 </r>
       <r>     8.9617    -0.0000  1044.0000 </r>
       <r>     9.0244    -0.0000  1044.0000 </r>
       <r>     9.0871    -0.0000  1044.0000 </r>
       <r>     9.1498    -0.0000  1044.0000 </r>
       <r>     9.2125    -0.0000  1044.0000 </r>
       <r>     9.2752     0.0000  1044.0000 </r>
       <r>     9.3379     0.0000  1044.0000 </r>
       <r>     9.4005     0.0000  1044.0000 </r>
       <r>     9.4632     0.0000  1044.0000 </r>
       <r>     9.5259     0.0000  1044.0000 </r>
       <r>     9.5886     0.0000  1044.0000 </r>
       <r>     9.6513     0.0000  1044.0000 </r>
       <r>     9.7140     0.0000  1044.0000 </r>
       <r>     9.7767     0.0000  1044.0000 </r>
       <r>     9.8394     0.0000  1044.0000 </r>
       <r>     9.9021     0.0000  1044.0000 </r>
       <r>     9.9648     0.0000  1044.0000 </r>
      </set>
     </set>
    </array>
   </total>
  </dos>
 </calculation>
 <structure name="finalpos" >
  <crystal>
   <varray name="basis" >
    <v>      10.33484705       0.00000000       0.00000000 </v>
    <v>       0.00000000      10.33484705       0.00000000 </v>
    <v>       0.00000000       0.00000000      10.33484705 </v>
   </varray>
   <i name="volume">   1103.85533447 </i>
   <varray name="rec_basis" >
    <v>       0.09676002       0.00000000       0.00000000 </v>
    <v>       0.00000000       0.09676002       0.00000000 </v>
    <v>       0.00000000       0.00000000       0.09676002 </v>
   </varray>
  </crystal>
  <varray name="positions" >
   <v>      -0.00045560      -0.00000188      -0.00000116 </v>
   <v>      -0.00021480       0.16645095       0.16645127 </v>
   <v>      -0.00123661       0.33295463      -0.00000093 </v>
   <v>      -0.00059187       0.50000186       0.16607424 </v>
   <v>      -0.00123664       0.66704736      -0.00000105 </v>
   <v>      -0.00021498       0.83354726       0.16645104 </v>
   <v>      -0.00123663      -0.00000160       0.33295415 </v>
   <v>      -0.00059191       0.16607395       0.50000113 </v>
   <v>      -0.00078881       0.33265381       0.33265342 </v>
   <v>       0.00009784       0.50000167       0.50000101 </v>
   <v>      -0.00078886       0.66734787       0.33265336 </v>
   <v>      -0.00059209       0.83392451       0.50000125 </v>
   <v>      -0.00123668      -0.00000171       0.66704697 </v>
   <v>      -0.00021490       0.16645073       0.83354760 </v>
   <v>      -0.00078884       0.33265375       0.66734750 </v>
   <v>      -0.00059197       0.50000196       0.83392476 </v>
   <v>      -0.00078885       0.66734803       0.66734769 </v>
   <v>      -0.00021504       0.83354738       0.83354775 </v>
   <v>       0.16628737      -0.00000164       0.16542962 </v>
   <v>       0.16628735       0.16542930      -0.00000100 </v>
   <v>       0.16628728       0.83456893      -0.00000110 </v>
   <v>       0.15788387       0.32455082       0.50000085 </v>
   <v>       0.15788409       0.50000159       0.32455046 </v>
   <v>       0.15788471       0.67545004       0.50000110 </v>
   <v>       0.16628722      -0.00000181       0.83456931 </v>
   <v>       0.15788447       0.50000179       0.67544994 </v>
   <v>       0.16598667       0.33265394       0.16587743 </v>
   <v>       0.16598657       0.66734779       0.16587729 </v>
   <v>       0.16598666       0.16587718       0.33265347 </v>
   <v>       0.16598669       0.83412127       0.33265341 </v>
   <v>       0.16598648       0.16587699       0.66734744 </v>
   <v>       0.16598663       0.33265385       0.83412160 </v>
   <v>       0.16598657       0.66734804       0.83412166 </v>
   <v>       0.16598653       0.83412134       0.66734768 </v>
   <v>       0.16642128       0.50000190      -0.00000089 </v>
   <v>       0.16642130      -0.00000162       0.50000116 </v>
   <v>       0.33333366      -0.00000182      -0.00000109 </v>
   <v>       0.33333370       0.16607403       0.16607435 </v>
   <v>       0.33333373       0.83392444       0.16607422 </v>
   <v>       0.33333381       0.32455132       0.32455083 </v>
   <v>       0.33333385       0.67544937       0.32455196 </v>
   <v>       0.33333365       0.16607388       0.83392481 </v>
   <v>       0.33333380       0.32455212       0.67544933 </v>
   <v>       0.33333382       0.67544878       0.67544856 </v>
   <v>       0.33333370       0.83392451       0.83392488 </v>
   <v>       0.33333367       0.33308856      -0.00000088 </v>
   <v>       0.33333373       0.50000165       0.16676453 </v>
   <v>       0.33333367       0.66691326      -0.00000101 </v>
   <v>       0.33333373      -0.00000166       0.33308818 </v>
   <v>       0.33333374       0.16676424       0.50000087 </v>
   <v>       0.33333385       0.83323433       0.50000102 </v>
   <v>       0.33333364      -0.00000180       0.66691291 </v>
   <v>       0.33333372       0.50000178       0.83323464 </v>
   <v>       0.50037968      -0.00000171       0.16542952 </v>
   <v>       0.50037963       0.16542914      -0.00000093 </v>
   <v>       0.50068031       0.33265387       0.16587739 </v>
   <v>       0.50024563       0.50000189      -0.00000088 </v>
   <v>       0.50068046       0.66734791       0.16587736 </v>
   <v>       0.50037973       0.83456913      -0.00000103 </v>
   <v>       0.50024561      -0.00000170       0.50000108 </v>
   <v>       0.50068032       0.16587709       0.33265339 </v>
   <v>       0.50878170       0.32455275       0.50000090 </v>
   <v>       0.50878147       0.50000162       0.32455253 </v>
   <v>       0.50878092       0.67544818       0.50000111 </v>
   <v>       0.50068040       0.83412135       0.33265340 </v>
   <v>       0.50037975      -0.00000186       0.83456948 </v>
   <v>       0.50068047       0.16587694       0.66734754 </v>
   <v>       0.50068032       0.33265382       0.83412173 </v>
   <v>       0.50878112       0.50000182       0.67544804 </v>
   <v>       0.50068044       0.66734811       0.83412174 </v>
   <v>       0.50068051       0.83412137       0.66734774 </v>
   <v>       0.66790293       0.33295461      -0.00000086 </v>
   <v>       0.66725835       0.50000190       0.16607424 </v>
   <v>       0.66790297       0.66704739      -0.00000098 </v>
   <v>       0.66790292      -0.00000168       0.33295415 </v>
   <v>       0.66725843       0.16607382       0.50000111 </v>
   <v>       0.66725852       0.83392455       0.50000121 </v>
   <v>       0.66790304      -0.00000175       0.66704700 </v>
   <v>       0.66725852       0.50000202       0.83392487 </v>
   <v>       0.66688109       0.16645088       0.16645126 </v>
   <v>       0.66688126       0.83354731       0.16645108 </v>
   <v>       0.66745516       0.33265384       0.33265339 </v>
   <v>       0.66745519       0.66734794       0.33265342 </v>
   <v>       0.66688126       0.16645069       0.83354769 </v>
   <v>       0.66745525       0.33265380       0.66734754 </v>
   <v>       0.66745523       0.66734805       0.66734766 </v>
   <v>       0.66688138       0.83354738       0.83354779 </v>
   <v>       0.66712200      -0.00000187      -0.00000102 </v>
   <v>       0.66656782       0.50000175       0.50000103 </v>
   <v>       0.83333327       0.50000203      -0.00000093 </v>
   <v>       0.83333324      -0.00000174       0.50000128 </v>
   <v>       0.83333310       0.33295469       0.16542966 </v>
   <v>       0.83333305       0.66704729       0.16542949 </v>
   <v>       0.83333307       0.16542927       0.33295422 </v>
   <v>       0.83333300       0.83456911       0.33295414 </v>
   <v>       0.83333310       0.16542907       0.66704688 </v>
   <v>       0.83333312       0.33295456       0.83456943 </v>
   <v>       0.83333306       0.66704752       0.83456951 </v>
   <v>       0.83333307       0.83456919       0.66704716 </v>
   <v>       0.83333292      -0.00000185       0.16621043 </v>
   <v>       0.83333299       0.16621006      -0.00000110 </v>
   <v>       0.83333299       0.83378795      -0.00000120 </v>
   <v>       0.83333306       0.33308859       0.50000100 </v>
   <v>       0.83333303       0.50000177       0.33308815 </v>
   <v>       0.83333298       0.66691316       0.50000112 </v>
   <v>       0.83333301      -0.00000197       0.83378832 </v>
   <v>       0.83333304       0.50000188       0.66691281 </v>
   <v>       0.33333713       0.50000181       0.50000140 </v>
  </varray>
 </structure>
</modeling>
