Opt                                     
           1
    10.334847    0.000000    0.000000
     0.000000   10.334847    0.000000
     0.000000    0.000000   10.334847
   Fe   Te
 107   1
Direct configuration=     1
   0.00000000  0.00000000  0.00000000
   0.00000000  0.16666893  0.16666893
   0.00000000  0.33333106  0.00000000
   0.00000000  0.50000000  0.16666894
   0.00000000  0.66666897  0.00000000
   0.00000000  0.83333104  0.16666893
   0.00000000  0.00000000  0.33333106
   0.00000000  0.16666894  0.50000000
   0.00000000  0.33333107  0.33333107
   0.00000000  0.50000000  0.50000000
   0.00000000  0.66666896  0.33333107
   0.00000000  0.83333103  0.50000000
   0.00000000  0.00000000  0.66666897
   0.00000000  0.16666893  0.83333104
   0.00000000  0.33333107  0.66666896
   0.00000000  0.50000000  0.83333103
   0.00000000  0.66666896  0.66666896
   0.00000000  0.83333104  0.83333104
   0.16666893  0.00000000  0.16666893
   0.16666893  0.16666893  0.00000000
   0.16666893  0.83333104  0.00000000
   0.16666893  0.33333107  0.50000000
   0.16666893  0.50000000  0.33333107
   0.16666893  0.66666896  0.50000000
   0.16666893  0.00000000  0.83333104
   0.16666893  0.50000000  0.66666896
   0.16666893  0.33333107  0.16666893
   0.16666893  0.66666896  0.16666893
   0.16666893  0.16666893  0.33333107
   0.16666893  0.83333104  0.33333107
   0.16666893  0.16666893  0.66666896
   0.16666893  0.33333107  0.83333104
   0.16666893  0.66666896  0.83333104
   0.16666893  0.83333104  0.66666896
   0.16666894  0.50000000  0.00000000
   0.16666894  0.00000000  0.50000000
   0.33333106  0.00000000  0.00000000
   0.33333107  0.16666893  0.16666893
   0.33333107  0.83333104  0.16666893
   0.33333107  0.33333107  0.33333107
   0.33333107  0.66666896  0.33333107
   0.33333107  0.16666893  0.83333104
   0.33333107  0.33333107  0.66666896
   0.33333107  0.66666896  0.66666896
   0.33333107  0.83333104  0.83333104
   0.33333107  0.33333107  0.00000000
   0.33333107  0.50000000  0.16666893
   0.33333107  0.66666896  0.00000000
   0.33333107  0.00000000  0.33333107
   0.33333107  0.16666893  0.50000000
   0.33333107  0.83333104  0.50000000
   0.33333107  0.00000000  0.66666896
   0.33333107  0.50000000  0.83333104
   0.50000000  0.00000000  0.16666894
   0.50000000  0.16666894  0.00000000
   0.50000000  0.33333107  0.16666893
   0.50000000  0.50000000  0.00000000
   0.50000000  0.66666896  0.16666893
   0.50000000  0.83333103  0.00000000
   0.50000000  0.00000000  0.50000000
   0.50000000  0.16666893  0.33333107
   0.50000000  0.33333106  0.50000000
   0.50000000  0.50000000  0.33333106
   0.50000000  0.66666897  0.50000000
   0.50000000  0.83333104  0.33333107
   0.50000000  0.00000000  0.83333103
   0.50000000  0.16666893  0.66666896
   0.50000000  0.33333107  0.83333104
   0.50000000  0.50000000  0.66666897
   0.50000000  0.66666896  0.83333104
   0.50000000  0.83333104  0.66666896
   0.66666896  0.33333107  0.00000000
   0.66666896  0.50000000  0.16666893
   0.66666896  0.66666896  0.00000000
   0.66666896  0.00000000  0.33333107
   0.66666896  0.16666893  0.50000000
   0.66666896  0.83333104  0.50000000
   0.66666896  0.00000000  0.66666896
   0.66666896  0.50000000  0.83333104
   0.66666896  0.16666893  0.16666893
   0.66666896  0.83333104  0.16666893
   0.66666896  0.33333107  0.33333107
   0.66666896  0.66666896  0.33333107
   0.66666896  0.16666893  0.83333104
   0.66666896  0.33333107  0.66666896
   0.66666896  0.66666896  0.66666896
   0.66666896  0.83333104  0.83333104
   0.66666897  0.00000000  0.00000000
   0.66666897  0.50000000  0.50000000
   0.83333103  0.50000000  0.00000000
   0.83333103  0.00000000  0.50000000
   0.83333104  0.33333107  0.16666893
   0.83333104  0.66666896  0.16666893
   0.83333104  0.16666893  0.33333107
   0.83333104  0.83333104  0.33333107
   0.83333104  0.16666893  0.66666896
   0.83333104  0.33333107  0.83333104
   0.83333104  0.66666896  0.83333104
   0.83333104  0.83333104  0.66666896
   0.83333104  0.00000000  0.16666893
   0.83333104  0.16666893  0.00000000
   0.83333104  0.83333104  0.00000000
   0.83333104  0.33333107  0.50000000
   0.83333104  0.50000000  0.33333107
   0.83333104  0.66666896  0.50000000
   0.83333104  0.00000000  0.83333104
   0.83333104  0.50000000  0.66666896
   0.33333106  0.50000000  0.50000000
Direct configuration=     2
  -0.00029916  0.00000000 -0.00000001
   0.00002804  0.16669509  0.16669511
  -0.00003920  0.33339625 -0.00000002
   0.00079297  0.50000000  0.16745995
  -0.00003922  0.66660377  0.00000000
   0.00002805  0.83330488  0.16669511
  -0.00003920  0.00000000  0.33339626
   0.00079300  0.16745994  0.50000000
   0.00011239  0.33317288  0.33317289
  -0.00035901  0.49999999  0.50000000
   0.00011240  0.66682713  0.33317288
   0.00079301  0.83254005  0.49999999
  -0.00003920  0.00000001  0.66660376
   0.00002806  0.16669510  0.83330487
   0.00011241  0.33317288  0.66682714
   0.00079299  0.49999999  0.83254004
   0.00011240  0.66682713  0.66682713
   0.00002806  0.83330488  0.83330488
   0.16673039 -0.00000001  0.16662783
   0.16673038  0.16662782 -0.00000002
   0.16673038  0.83337217 -0.00000000
   0.16001500  0.32668098  0.50000002
   0.16001499  0.50000000  0.32668100
   0.16001500  0.67331903  0.50000001
   0.16673040  0.00000001  0.83337215
   0.16001502  0.49999998  0.67331903
   0.16650689  0.33317283  0.16677943
   0.16650688  0.66682720  0.16677944
   0.16650690  0.16677942  0.33317285
   0.16650689  0.83322057  0.33317284
   0.16650690  0.16677943  0.66682719
   0.16650690  0.33317282  0.83322054
   0.16650690  0.66682719  0.83322054
   0.16650691  0.83322057  0.66682719
   0.16661668  0.49999999 -0.00000002
   0.16661668  0.00000000  0.50000001
   0.33333292  0.00000001 -0.00000002
   0.33333297  0.16745998  0.16745999
   0.33333295  0.83254001  0.16746001
   0.33333329  0.32668158  0.32668161
   0.33333328  0.67331842  0.32668161
   0.33333295  0.16745999  0.83253998
   0.33333327  0.32668162  0.67331840
   0.33333329  0.67331840  0.67331841
   0.33333297  0.83254000  0.83253997
   0.33333294  0.33328265 -0.00000002
   0.33333294  0.49999999  0.16630790
   0.33333295  0.66671736 -0.00000002
   0.33333293  0.00000001  0.33328266
   0.33333295  0.16630789  0.50000001
   0.33333294  0.83369210  0.50000001
   0.33333293  0.00000001  0.66671736
   0.33333294  0.50000000  0.83369207
   0.49993669  0.00000001  0.16662781
   0.49993669  0.16662781 -0.00000001
   0.50016010  0.33317280  0.16677944
   0.50005045  0.50000000 -0.00000002
   0.50016009  0.66682721  0.16677943
   0.49993671  0.83337217 -0.00000002
   0.50005043  0.00000002  0.50000000
   0.50016008  0.16677944  0.33317282
   0.50665096  0.32668209  0.50000000
   0.50665098  0.49999998  0.32668211
   0.50665094  0.67331791  0.50000001
   0.50016007  0.83322055  0.33317282
   0.49993668  0.00000000  0.83337217
   0.50016006  0.16677945  0.66682720
   0.50016008  0.33317280  0.83322054
   0.50665095  0.50000000  0.67331792
   0.50016008  0.66682721  0.83322053
   0.50016007  0.83322053  0.66682722
   0.66670627  0.33339623  0.00000000
   0.66587410  0.49999998  0.16745987
   0.66670628  0.66660379 -0.00000001
   0.66670627  0.00000002  0.33339622
   0.66587406  0.16745987  0.49999999
   0.66587406  0.83254013  0.50000001
   0.66670626 -0.00000000  0.66660379
   0.66587408  0.50000001  0.83254012
   0.66663896  0.16669510  0.16669511
   0.66663896  0.83330489  0.16669508
   0.66655471  0.33317284  0.33317284
   0.66655472  0.66682716  0.33317284
   0.66663895  0.16669510  0.83330489
   0.66655471  0.33317285  0.66682717
   0.66655471  0.66682717  0.66682720
   0.66663895  0.83330488  0.83330489
   0.66696616  0.00000000 -0.00000000
   0.66702597  0.49999999  0.49999999
   0.83333292  0.50000001  0.00000000
   0.83333294  0.00000001  0.49999999
   0.83333294  0.33339628  0.16662784
   0.83333295  0.66660374  0.16662782
   0.83333295  0.16662783  0.33339627
   0.83333296  0.83337217  0.33339626
   0.83333297  0.16662783  0.66660374
   0.83333295  0.33339628  0.83337214
   0.83333294  0.66660373  0.83337216
   0.83333295  0.83337216  0.66660376
   0.83333295 -0.00000000  0.16636786
   0.83333295  0.16636785  0.00000000
   0.83333295  0.83363212 -0.00000000
   0.83333293  0.33328266  0.50000000
   0.83333292  0.49999999  0.33328265
   0.83333294  0.66671734  0.50000000
   0.83333295  0.00000000  0.83363213
   0.83333292  0.49999999  0.66671736
   0.33333642  0.50000001  0.50000005
Direct configuration=     3
  -0.00035816  0.00000000 -0.00000001
   0.00003357  0.16670025  0.16670027
  -0.00004693  0.33340910 -0.00000002
   0.00094934  0.50000000  0.16761594
  -0.00004696  0.66659091  0.00000000
   0.00003358  0.83329973  0.16670027
  -0.00004693  0.00000000  0.33340911
   0.00094938  0.16761593  0.50000000
   0.00013455  0.33314168  0.33314170
  -0.00042980  0.49999999  0.50000000
   0.00013457  0.66685833  0.33314169
   0.00094939  0.83238407  0.49999999
  -0.00004693  0.00000002  0.66659091
   0.00003360  0.16670026  0.83329971
   0.00013458  0.33314168  0.66685833
   0.00094936  0.49999999  0.83238406
   0.00013456  0.66685833  0.66685833
   0.00003359  0.83329973  0.83329972
   0.16674251 -0.00000001  0.16661973
   0.16674250  0.16661971 -0.00000003
   0.16674249  0.83338028 -0.00000000
   0.15870286  0.32536961  0.50000002
   0.15870285  0.50000000  0.32536962
   0.15870286  0.67463040  0.50000001
   0.16674252  0.00000001  0.83338026
   0.15870289  0.49999997  0.67463040
   0.16647494  0.33314162  0.16680122
   0.16647493  0.66685840  0.16680123
   0.16647494  0.16680120  0.33314165
   0.16647494  0.83319878  0.33314164
   0.16647495  0.16680122  0.66685839
   0.16647495  0.33314161  0.83319875
   0.16647495  0.66685839  0.83319875
   0.16647496  0.83319878  0.66685839
   0.16660637  0.49999999 -0.00000002
   0.16660637  0.00000000  0.50000001
   0.33333329  0.00000002 -0.00000002
   0.33333335  0.16761597  0.16761599
   0.33333333  0.83238402  0.16761600
   0.33333372  0.32537033  0.32537035
   0.33333372  0.67462968  0.32537036
   0.33333333  0.16761598  0.83238399
   0.33333370  0.32537037  0.67462965
   0.33333373  0.67462965  0.67462966
   0.33333334  0.83238401  0.83238398
   0.33333331  0.33327310 -0.00000003
   0.33333330  0.49999999  0.16623671
   0.33333333  0.66672690 -0.00000002
   0.33333330  0.00000001  0.33327312
   0.33333332  0.16623669  0.50000002
   0.33333331  0.83376330  0.50000001
   0.33333330  0.00000001  0.66672691
   0.33333331  0.50000000  0.83376326
   0.49992421  0.00000001  0.16661970
   0.49992420  0.16661970 -0.00000001
   0.50019167  0.33314159  0.16680124
   0.50006040  0.49999999 -0.00000002
   0.50019166  0.66685842  0.16680122
   0.49992423  0.83338028 -0.00000002
   0.50006037  0.00000002  0.50000000
   0.50019165  0.16680124  0.33314162
   0.50796251  0.32537094  0.50000000
   0.50796254  0.49999998  0.32537095
   0.50796249  0.67462907  0.50000001
   0.50019163  0.83319876  0.33314161
   0.49992419  0.00000000  0.83338029
   0.50019162  0.16680124  0.66685840
   0.50019164  0.33314159  0.83319875
   0.50796250  0.50000000  0.67462908
   0.50019165  0.66685842  0.83319874
   0.50019163  0.83319874  0.66685842
   0.66671362  0.33340908  0.00000000
   0.66571736  0.49999998  0.16761584
   0.66671364  0.66659094 -0.00000002
   0.66671363  0.00000002  0.33340907
   0.66571731  0.16761585  0.49999999
   0.66571731  0.83238416  0.50000002
   0.66671362 -0.00000000  0.66659094
   0.66571733  0.50000001  0.83238415
   0.66663304  0.16670027  0.16670027
   0.66663305  0.83329974  0.16670024
   0.66653218  0.33314163  0.33314164
   0.66653219  0.66685835  0.33314164
   0.66663303  0.16670026  0.83329973
   0.66653218  0.33314165  0.66685837
   0.66653218  0.66685837  0.66685840
   0.66663303  0.83329972  0.83329973
   0.66702476  0.00000000 -0.00000000
   0.66709637  0.49999998  0.49999999
   0.83333329  0.50000001  0.00000000
   0.83333332  0.00000002  0.49999999
   0.83333331  0.33340914  0.16661974
   0.83333333  0.66659087  0.16661971
   0.83333333  0.16661972  0.33340913
   0.83333335  0.83338028  0.33340911
   0.83333335  0.16661973  0.66659088
   0.83333333  0.33340914  0.83338025
   0.83333332  0.66659087  0.83338027
   0.83333333  0.83338026  0.66659091
   0.83333332 -0.00000000  0.16630848
   0.83333333  0.16630847  0.00000001
   0.83333332  0.83369150 -0.00000000
   0.83333330  0.33327311  0.50000000
   0.83333329  0.49999999  0.33327311
   0.83333331  0.66672688  0.50000000
   0.83333333  0.00000000  0.83369151
   0.83333329  0.49999999  0.66672691
   0.33333748  0.50000001  0.50000007
Direct configuration=     4
  -0.00031979 -0.00000004  0.00000002
  -0.00006000  0.16660647  0.16660643
  -0.00067499  0.33338513  0.00000015
   0.00006205  0.50000001  0.16672909
  -0.00067511  0.66661493  0.00000001
  -0.00006000  0.83339352  0.16660642
  -0.00067479 -0.00000003  0.33338504
   0.00006242  0.16672901  0.49999990
  -0.00033481  0.33294585  0.33294562
  -0.00019479  0.50000015  0.49999985
  -0.00033483  0.66705417  0.33294580
   0.00006234  0.83327083  0.50000000
  -0.00067474 -0.00000018  0.66661494
  -0.00005983  0.16660635  0.83339369
  -0.00033465  0.33294584  0.66705422
   0.00006215  0.50000014  0.83327104
  -0.00033484  0.66705434  0.66705419
  -0.00005998  0.83339351  0.83339356
   0.16671853 -0.00000007  0.16599137
   0.16671851  0.16599128 -0.00000001
   0.16671864  0.83400866 -0.00000003
   0.15837258  0.32503983  0.49999993
   0.15837247  0.50000010  0.32503974
   0.15837256  0.67496039  0.49999999
   0.16671869 -0.00000009  0.83400858
   0.15837241  0.50000014  0.67496031
   0.16627872  0.33294549  0.16633202
   0.16627890  0.66705458  0.16633207
   0.16627878  0.16633193  0.33294545
   0.16627891  0.83366798  0.33294554
   0.16627901  0.16633185  0.66705456
   0.16627886  0.33294541  0.83366800
   0.16627893  0.66705469  0.83366793
   0.16627902  0.83366804  0.66705449
   0.16648196  0.50000004  0.00000007
   0.16648213 -0.00000015  0.50000004
   0.33333329 -0.00000017 -0.00000018
   0.33333319  0.16672869  0.16672873
   0.33333336  0.83327113  0.16672867
   0.33333340  0.32503930  0.32503917
   0.33333353  0.67496080  0.32503928
   0.33333331  0.16672848  0.83327120
   0.33333341  0.32503920  0.67496071
   0.33333358  0.67496094  0.67496070
   0.33333351  0.83327130  0.83327117
   0.33333337  0.33314864  0.00000004
   0.33333346  0.50000017  0.16647190
   0.33333363  0.66685154  0.00000002
   0.33333324 -0.00000015  0.33314871
   0.33333327  0.16647176  0.50000009
   0.33333335  0.83352810  0.50000013
   0.33333340 -0.00000017  0.66685147
   0.33333346  0.50000021  0.83352812
   0.49994795 -0.00000022  0.16599139
   0.49994798  0.16599140 -0.00000013
   0.50038786  0.33294586  0.16633203
   0.50018487  0.50000028  0.00000005
   0.50038785  0.66705438  0.16633199
   0.49994808  0.83400829 -0.00000016
   0.50018448 -0.00000023  0.50000018
   0.50038766  0.16633208  0.33294562
   0.50829447  0.32503924  0.49999996
   0.50829447  0.50000023  0.32503916
   0.50829442  0.67496093  0.50000004
   0.50038769  0.83366769  0.33294563
   0.49994793 -0.00000026  0.83400841
   0.50038755  0.16633185  0.66705452
   0.50038776  0.33294565  0.83366800
   0.50829457  0.50000030  0.67496099
   0.50038786  0.66705462  0.83366802
   0.50038770  0.83366788  0.66705455
   0.66734165  0.33338543  0.00000013
   0.66660440  0.50000018  0.16672899
   0.66734151  0.66661487 -0.00000004
   0.66734157 -0.00000017  0.33338513
   0.66660420  0.16672910  0.49999997
   0.66660420  0.83327067  0.50000010
   0.66734137 -0.00000033  0.66661500
   0.66660430  0.50000034  0.83327110
   0.66672677  0.16660664  0.16660644
   0.66672659  0.83339317  0.16660633
   0.66700146  0.33294611  0.33294566
   0.66700136  0.66705407  0.33294576
   0.66672649  0.16660637  0.83339358
   0.66700131  0.33294599  0.66705421
   0.66700133  0.66705436  0.66705429
   0.66672644  0.83339330  0.83339353
   0.66698643 -0.00000026 -0.00000012
   0.66686169  0.50000021  0.49999984
   0.83333306  0.50000014  0.00000014
   0.83333328 -0.00000022  0.49999999
   0.83333336  0.33338544  0.16599178
   0.83333321  0.66661463  0.16599174
   0.83333350  0.16599188  0.33338506
   0.83333336  0.83400798  0.33338523
   0.83333339  0.16599173  0.66661480
   0.83333333  0.33338543  0.83400839
   0.83333318  0.66661480  0.83400828
   0.83333325  0.83400798  0.66661481
   0.83333359 -0.00000005  0.16634638
   0.83333356  0.16634650  0.00000014
   0.83333335  0.83365333 -0.00000003
   0.83333330  0.33314934  0.49999981
   0.83333322  0.50000014  0.33314898
   0.83333323  0.66685090  0.49999995
   0.83333343 -0.00000022  0.83365361
   0.83333323  0.50000028  0.66685090
   0.33333279  0.50000010  0.49999990
Direct configuration=     5
  -0.00029043 -0.00000008  0.00000003
  -0.00013162  0.16653469  0.16653461
  -0.00115569  0.33336679  0.00000028
  -0.00061707  0.50000003  0.16605032
  -0.00115589  0.66663331  0.00000002
  -0.00013163  0.83346531  0.16653459
  -0.00115534 -0.00000006  0.33336661
  -0.00061645  0.16605018  0.49999982
  -0.00069405  0.33279597  0.33279555
  -0.00001491  0.50000028  0.49999974
  -0.00069411  0.66720407  0.33279587
  -0.00061659  0.83394954  0.50000001
  -0.00115527 -0.00000032  0.66663334
  -0.00013134  0.16653446  0.83346562
  -0.00069380  0.33279595  0.66720415
  -0.00061690  0.50000026  0.83394992
  -0.00069412  0.66720436  0.66720410
  -0.00013159  0.83346528  0.83346539
   0.16670017 -0.00000011  0.16551044
   0.16670015  0.16551029  0.00000001
   0.16670039  0.83448962 -0.00000005
   0.15811979  0.32478743  0.49999986
   0.15811961  0.50000018  0.32478725
   0.15811976  0.67521295  0.49999998
   0.16670046 -0.00000017  0.83448949
   0.15811947  0.50000026  0.67521282
   0.16612854  0.33279537  0.16597290
   0.16612887  0.66720473  0.16597299
   0.16612864  0.16597275  0.33279529
   0.16612887  0.83402710  0.33279545
   0.16612903  0.16597259  0.66720470
   0.16612877  0.33279523  0.83402715
   0.16612890  0.66720493  0.83402704
   0.16612906  0.83402720  0.66720458
   0.16638673  0.50000009  0.00000014
   0.16638704 -0.00000028  0.50000006
   0.33333328 -0.00000031 -0.00000030
   0.33333307  0.16604957  0.16604964
   0.33333338  0.83395011  0.16604952
   0.33333314  0.32478594  0.32478569
   0.33333340  0.67521424  0.32478587
   0.33333329  0.16604920  0.83395025
   0.33333318  0.32478572  0.67521411
   0.33333346  0.67521451  0.67521407
   0.33333364  0.83395041  0.83395022
   0.33333342  0.33305338  0.00000009
   0.33333358  0.50000031  0.16665191
   0.33333386  0.66694694  0.00000005
   0.33333320 -0.00000027  0.33305348
   0.33333324  0.16665167  0.50000015
   0.33333338  0.83334809  0.50000022
   0.33333347 -0.00000031  0.66694680
   0.33333357  0.50000037  0.83334815
   0.49996612 -0.00000041  0.16551049
   0.49996618  0.16551052 -0.00000023
   0.50053803  0.33279605  0.16597291
   0.50028014  0.50000051  0.00000011
   0.50053801  0.66720437  0.16597284
   0.49996634  0.83448896 -0.00000028
   0.50027948 -0.00000042  0.50000032
   0.50053769  0.16597300  0.33279561
   0.50854855  0.32478536  0.49999993
   0.50854852  0.50000042  0.32478522
   0.50854847  0.67521494  0.50000006
   0.50053775  0.83402660  0.33279563
   0.49996610 -0.00000046  0.83448917
   0.50053751  0.16597258  0.66720463
   0.50053787  0.33279568  0.83402715
   0.50854873  0.50000053  0.67521503
   0.50053804  0.66720479  0.83402719
   0.50053776  0.83402696  0.66720467
   0.66782233  0.33336732  0.00000022
   0.66728334  0.50000034  0.16605020
   0.66782207  0.66663318 -0.00000005
   0.66782218 -0.00000032  0.33336680
   0.66728301  0.16605040  0.49999996
   0.66728301  0.83394919  0.50000017
   0.66782184 -0.00000058  0.66663342
   0.66728317  0.50000060  0.83394996
   0.66679850  0.16653499  0.16653463
   0.66679819  0.83346468  0.16653445
   0.66736064  0.33279647  0.33279566
   0.66736046  0.66720386  0.33279583
   0.66679802  0.16653451  0.83346541
   0.66736037  0.33279623  0.66720409
   0.66736042  0.66720437  0.66720422
   0.66679793  0.83346492  0.83346532
   0.66695709 -0.00000046 -0.00000022
   0.66668206  0.50000039  0.49999972
   0.83333288  0.50000024  0.00000025
   0.83333324 -0.00000040  0.49999999
   0.83333340  0.33336729  0.16551115
   0.83333312  0.66663281  0.16551110
   0.83333363  0.16551134  0.33336664
   0.83333337  0.83448841  0.33336696
   0.83333342  0.16551107  0.66663311
   0.83333334  0.33336728  0.83448917
   0.83333307  0.66663313  0.83448894
   0.83333319  0.83448843  0.66663310
   0.83333380 -0.00000008  0.16637539
   0.83333374  0.16637561  0.00000023
   0.83333338  0.83362411 -0.00000005
   0.83333330  0.33305460  0.49999967
   0.83333317  0.50000026  0.33305397
   0.83333317  0.66694582  0.49999992
   0.83333350 -0.00000039  0.83362461
   0.83333318  0.50000050  0.66694580
   0.33332920  0.50000017  0.49999978
Direct configuration=     6
  -0.00041116 -0.00000140 -0.00000084
  -0.00019242  0.16647348  0.16647369
  -0.00121484  0.33306553 -0.00000060
  -0.00059865  0.50000137  0.16606780
  -0.00121491  0.66693596 -0.00000076
  -0.00019255  0.83352521  0.16647352
  -0.00121476 -0.00000118  0.33306513
  -0.00059851  0.16606756  0.50000077
  -0.00076331  0.33269206  0.33269166
   0.00006750  0.50000130  0.50000067
  -0.00076336  0.66730918  0.33269171
  -0.00059868  0.83393125  0.50000092
  -0.00121478 -0.00000134  0.66693568
  -0.00019242  0.16647326  0.83352554
  -0.00076327  0.33269201  0.66730893
  -0.00059868  0.50000150  0.83393153
  -0.00076336  0.66730937  0.66730905
  -0.00019259  0.83352529  0.83352559
   0.16639844 -0.00000123  0.16545136
   0.16639842  0.16545109 -0.00000072
   0.16639844  0.83454759 -0.00000082
   0.15794734  0.32461449  0.50000059
   0.15794746  0.50000121  0.32461418
   0.15794795  0.67538625  0.50000080
   0.16639841 -0.00000137  0.83454783
   0.15794770  0.50000138  0.67538614
   0.16602484  0.33269199  0.16590312
   0.16602486  0.66730930  0.16590304
   0.16602486  0.16590289  0.33269163
   0.16602495  0.83409593  0.33269163
   0.16602483  0.16590271  0.66730903
   0.16602488  0.33269189  0.83409619
   0.16602487  0.66730953  0.83409620
   0.16602488  0.83409601  0.66730918
   0.16641198  0.50000141 -0.00000062
   0.16641208 -0.00000126  0.50000087
   0.33333356 -0.00000141 -0.00000087
   0.33333353  0.16606745  0.16606770
   0.33333364  0.83393135  0.16606758
   0.33333363  0.32461445  0.32461402
   0.33333373  0.67538611  0.32461490
   0.33333355  0.16606724  0.83393166
   0.33333363  0.32461498  0.67538604
   0.33333373  0.67538575  0.67538546
   0.33333368  0.83393148  0.83393170
   0.33333360  0.33307910 -0.00000062
   0.33333369  0.50000129  0.16673423
   0.33333372  0.66692232 -0.00000072
   0.33333359 -0.00000129  0.33307884
   0.33333361  0.16673395  0.50000068
   0.33333372  0.83326494  0.50000080
   0.33333359 -0.00000140  0.66692203
   0.33333368  0.50000140  0.83326518
   0.50026840 -0.00000136  0.16545131
   0.50026838  0.16545103 -0.00000074
   0.50064203  0.33269213  0.16590309
   0.50025491  0.50000152 -0.00000061
   0.50064213  0.66730929  0.16590305
   0.50026850  0.83454756 -0.00000083
   0.50025472 -0.00000136  0.50000087
   0.50064194  0.16590290  0.33269166
   0.50871897  0.32461534  0.50000064
   0.50871879  0.50000130  0.32461514
   0.50871837  0.67538542  0.50000082
   0.50064202  0.83409585  0.33269167
   0.50026845 -0.00000148  0.83454787
   0.50064201  0.16590268  0.66730908
   0.50064199  0.33269199  0.83409628
   0.50871859  0.50000147  0.67538534
   0.50064212  0.66730954  0.83409630
   0.50064210  0.83409597  0.66730924
   0.66788124  0.33306566 -0.00000057
   0.66726507  0.50000148  0.16606777
   0.66788120  0.66693594 -0.00000073
   0.66788119 -0.00000131  0.33306518
   0.66726504  0.16606752  0.50000080
   0.66726511  0.83393118  0.50000093
   0.66788119 -0.00000144  0.66693572
   0.66726515  0.50000164  0.83393162
   0.66685887  0.16647351  0.16647369
   0.66685890  0.83352508  0.16647351
   0.66742973  0.33269222  0.33269167
   0.66742970  0.66730917  0.33269174
   0.66685887  0.16647324  0.83352555
   0.66742972  0.33269213  0.66730894
   0.66742972  0.66730939  0.66730907
   0.66685892  0.83352519  0.83352560
   0.66707763 -0.00000149 -0.00000080
   0.66659856  0.50000138  0.50000067
   0.83333317  0.50000155 -0.00000061
   0.83333324 -0.00000138  0.50000093
   0.83333318  0.33306571  0.16545158
   0.83333307  0.66693576  0.16545145
   0.83333322  0.16545135  0.33306519
   0.83333310  0.83454740  0.33306522
   0.83333319  0.16545113  0.66693555
   0.83333318  0.33306561  0.83454783
   0.83333306  0.66693602  0.83454783
   0.83333310  0.83454746  0.66693575
   0.83333316 -0.00000138  0.16625481
   0.83333319  0.16625460 -0.00000074
   0.83333309  0.83374386 -0.00000089
   0.83333312  0.33307944  0.50000064
   0.83333307  0.50000137  0.33307895
   0.83333303  0.66692195  0.50000079
   0.83333314 -0.00000154  0.83374427
   0.83333308  0.50000151  0.66692169
   0.33333500  0.50000137  0.50000096
Direct configuration=     7
  -0.00046288 -0.00000196 -0.00000121
  -0.00021846  0.16644726  0.16644759
  -0.00124018  0.33293647 -0.00000098
  -0.00059076  0.50000194  0.16607529
  -0.00124020  0.66706560 -0.00000109
  -0.00021865  0.83355087  0.16644736
  -0.00124021 -0.00000166  0.33293598
  -0.00059082  0.16607500  0.50000118
  -0.00079298  0.33264754  0.33264715
   0.00010281  0.50000173  0.50000107
  -0.00079303  0.66735420  0.33264708
  -0.00059101  0.83392341  0.50000130
  -0.00124027 -0.00000177  0.66706520
  -0.00021858  0.16644704  0.83355121
  -0.00079303  0.33264748  0.66735381
  -0.00059087  0.50000204  0.83392366
  -0.00079303  0.66735436  0.66735401
  -0.00021872  0.83355100  0.83355138
   0.16626918 -0.00000171  0.16542605
   0.16626916  0.16542573 -0.00000104
   0.16626908  0.83457243 -0.00000115
   0.15787347  0.32454040  0.50000090
   0.15787372  0.50000165  0.32454003
   0.15787436  0.67546048  0.50000114
   0.16626901 -0.00000188  0.83457283
   0.15787412  0.50000186  0.67546039
   0.16598042  0.33264771  0.16587322
   0.16598030  0.66735409  0.16587308
   0.16598040  0.16587297  0.33264722
   0.16598043  0.83412542  0.33264715
   0.16598019  0.16587277  0.66735373
   0.16598037  0.33264762  0.83412576
   0.16598030  0.66735434  0.83412583
   0.16598025  0.83412548  0.66735399
   0.16642280  0.50000198 -0.00000094
   0.16642281 -0.00000168  0.50000121
   0.33333368 -0.00000188 -0.00000112
   0.33333373  0.16607511  0.16607544
   0.33333374  0.83392331  0.16607531
   0.33333384  0.32454098  0.32454049
   0.33333387  0.67545973  0.32454165
   0.33333367  0.16607496  0.83392369
   0.33333383  0.32454183  0.67545970
   0.33333384  0.67545910  0.67545889
   0.33333370  0.83392337  0.83392377
   0.33333368  0.33309011 -0.00000092
   0.33333373  0.50000170  0.16676949
   0.33333366  0.66691178 -0.00000105
   0.33333375 -0.00000173  0.33308971
   0.33333376  0.16676920  0.50000091
   0.33333387  0.83322932  0.50000105
   0.33333364 -0.00000187  0.66691142
   0.33333373  0.50000185  0.83322964
   0.50039790 -0.00000177  0.16542595
   0.50039785  0.16542555 -0.00000096
   0.50068658  0.33264761  0.16587318
   0.50024411  0.50000195 -0.00000092
   0.50068674  0.66735423  0.16587315
   0.50039794  0.83457266 -0.00000106
   0.50024412 -0.00000176  0.50000111
   0.50068660  0.16587286  0.33264713
   0.50879197  0.32454250  0.50000094
   0.50879174  0.50000168  0.32454227
   0.50879116  0.67545846  0.50000115
   0.50068668  0.83412552  0.33264714
   0.50039797 -0.00000192  0.83457302
   0.50068677  0.16587273  0.66735383
   0.50068660  0.33264757  0.83412589
   0.50879135  0.50000187  0.67545830
   0.50068671  0.66735442  0.83412590
   0.50068680  0.83412553  0.66735405
   0.66790648  0.33293642 -0.00000090
   0.66725725  0.50000197  0.16607529
   0.66790654  0.66706564 -0.00000102
   0.66790647 -0.00000174  0.33293597
   0.66725735  0.16607485  0.50000116
   0.66725744  0.83392347  0.50000125
   0.66790662 -0.00000180  0.66706522
   0.66725744  0.50000209  0.83392377
   0.66688473  0.16644717  0.16644759
   0.66688492  0.83355095  0.16644741
   0.66745932  0.33264756  0.33264712
   0.66745937  0.66735429  0.33264714
   0.66688493  0.16644700  0.83355131
   0.66745943  0.33264753  0.66735386
   0.66745941  0.66735438  0.66735398
   0.66688505  0.83355101  0.83355142
   0.66712927 -0.00000193 -0.00000105
   0.66656279  0.50000181  0.50000108
   0.83333329  0.50000211 -0.00000099
   0.83333324 -0.00000180  0.50000134
   0.83333309  0.33293652  0.16542606
   0.83333305  0.66706555  0.16542590
   0.83333305  0.16542565  0.33293605
   0.83333298  0.83457267  0.33293595
   0.83333309  0.16542546  0.66706511
   0.83333311  0.33293638  0.83457297
   0.83333306  0.66706578  0.83457306
   0.83333307  0.83457275  0.66706540
   0.83333288 -0.00000193  0.16620316
   0.83333295  0.16620276 -0.00000116
   0.83333297  0.83379516 -0.00000125
   0.83333305  0.33309009  0.50000105
   0.83333303  0.50000184  0.33308965
   0.83333297  0.66691172  0.50000117
   0.83333299 -0.00000204  0.83379553
   0.83333303  0.50000194  0.66691136
   0.33333748  0.50000188  0.50000147
Direct configuration=     8
  -0.00045560 -0.00000188 -0.00000116
  -0.00021480  0.16645095  0.16645127
  -0.00123661  0.33295463 -0.00000093
  -0.00059187  0.50000186  0.16607424
  -0.00123664  0.66704736 -0.00000105
  -0.00021498  0.83354726  0.16645104
  -0.00123663 -0.00000160  0.33295415
  -0.00059191  0.16607395  0.50000113
  -0.00078881  0.33265381  0.33265342
   0.00009784  0.50000167  0.50000101
  -0.00078886  0.66734787  0.33265336
  -0.00059209  0.83392451  0.50000125
  -0.00123668 -0.00000171  0.66704697
  -0.00021490  0.16645073  0.83354760
  -0.00078884  0.33265375  0.66734750
  -0.00059197  0.50000196  0.83392476
  -0.00078885  0.66734803  0.66734769
  -0.00021504  0.83354738  0.83354775
   0.16628737 -0.00000164  0.16542962
   0.16628735  0.16542930 -0.00000100
   0.16628728  0.83456893 -0.00000110
   0.15788387  0.32455082  0.50000085