 108 108   0   0
  0.1022088E+02  0.1033485E-08  0.1033485E-08  0.1033485E-08  0.5000000E-15
  1.000000000000000E-004
  CAR 
 Opt                                     
      9.66057585     -3.93845652  301      6.77485393      1.00000000
     -3.938  0.0000E+00  0.0000E+00
     -3.893  0.0000E+00  0.0000E+00
     -3.848  0.0000E+00  0.0000E+00
     -3.802  0.0000E+00  0.0000E+00
     -3.757  0.0000E+00  0.0000E+00
     -3.712  0.0000E+00  0.0000E+00
     -3.666  0.0000E+00  0.0000E+00
     -3.621  0.0000E+00  0.0000E+00
     -3.576 -0.9933E-30 -0.4503E-31
     -3.530 -0.3653E-28 -0.1701E-29
     -3.485 -0.1240E-26 -0.5793E-28
     -3.440 -0.3796E-25 -0.1779E-26
     -3.394 -0.1047E-23 -0.4924E-25
     -3.349 -0.2602E-22 -0.1229E-23
     -3.304 -0.5828E-21 -0.2765E-22
     -3.259 -0.1176E-19 -0.5606E-21
     -3.213 -0.2136E-18 -0.1025E-19
     -3.168 -0.3497E-17 -0.1687E-18
     -3.123 -0.4847E-16 -0.2366E-17
     -3.077 -0.6653E-15 -0.3252E-16
     -3.032 -0.7891E-14 -0.3902E-15
     -2.987 -0.8456E-13 -0.4223E-14
     -2.941 -0.8146E-12 -0.4115E-13
     -2.896 -0.7052E-11 -0.3608E-12
     -2.851 -0.5485E-10 -0.2847E-11
     -2.805 -0.3830E-09 -0.2021E-10
     -2.760 -0.2400E-08 -0.1290E-09
     -2.715 -0.1347E-07 -0.7398E-09
     -2.669 -0.6776E-07 -0.3811E-08
     -2.624 -0.3047E-06 -0.1762E-07
     -2.579 -0.1223E-05 -0.7307E-07
     -2.533 -0.4374E-05 -0.2713E-06
     -2.488 -0.1390E-04 -0.9013E-06
     -2.443 -0.3907E-04 -0.2672E-05
     -2.397 -0.9669E-04 -0.7055E-05
     -2.352 -0.2089E-03 -0.1653E-04
     -2.307 -0.3888E-03 -0.3415E-04
     -2.261 -0.6084E-03 -0.6173E-04
     -2.216 -0.7574E-03 -0.9607E-04
     -2.171 -0.6252E-03 -0.1244E-03
     -2.125  0.5530E-04 -0.1219E-03
     -2.080  0.1506E-02 -0.5365E-04
     -2.035  0.3815E-02  0.1193E-03
     -1.989  0.6965E-02  0.4350E-03
     -1.944  0.1094E-01  0.9309E-03
     -1.899  0.1577E-01  0.1646E-02
     -1.853  0.2137E-01  0.2615E-02
     -1.808  0.2726E-01  0.3851E-02
     -1.763  0.3256E-01  0.5326E-02
     -1.717  0.3641E-01  0.6977E-02
     -1.672  0.3852E-01  0.8723E-02
     -1.627  0.3931E-01  0.1050E-01
     -1.581  0.3961E-01  0.1230E-01
     -1.536  0.4023E-01  0.1412E-01
     -1.491  0.4172E-01  0.1601E-01
     -1.445  0.4437E-01  0.1803E-01
     -1.400  0.4832E-01  0.2022E-01
     -1.355  0.5354E-01  0.2264E-01
     -1.309  0.5976E-01  0.2535E-01
     -1.264  0.6617E-01  0.2835E-01
     -1.219  0.7130E-01  0.3158E-01
     -1.173  0.7331E-01  0.3491E-01
     -1.128  0.7100E-01  0.3813E-01
     -1.083  0.6485E-01  0.4106E-01
     -1.037  0.5725E-01  0.4366E-01
     -0.992  0.5156E-01  0.4600E-01
     -0.947  0.5054E-01  0.4829E-01
     -0.901  0.5532E-01  0.5080E-01
     -0.856  0.6526E-01  0.5375E-01
     -0.811  0.7853E-01  0.5731E-01
     -0.765  0.9274E-01  0.6152E-01
     -0.720  0.1052E+00  0.6629E-01
     -0.675  0.1130E+00  0.7141E-01
     -0.629  0.1134E+00  0.7655E-01
     -0.584  0.1055E+00  0.8133E-01
     -0.539  0.9143E-01  0.8548E-01
     -0.493  0.7617E-01  0.8893E-01
     -0.448  0.6554E-01  0.9190E-01
     -0.403  0.6358E-01  0.9478E-01
     -0.357  0.7090E-01  0.9799E-01
     -0.312  0.8485E-01  0.1018E+00
     -0.267  0.1011E+00  0.1064E+00
     -0.221  0.1153E+00  0.1116E+00
     -0.176  0.1242E+00  0.1173E+00
     -0.131  0.1267E+00  0.1230E+00
     -0.085  0.1237E+00  0.1286E+00
     -0.040  0.1178E+00  0.1340E+00
      0.005  0.1129E+00  0.1391E+00
      0.051  0.1119E+00  0.1442E+00
      0.096  0.1154E+00  0.1494E+00
      0.141  0.1221E+00  0.1549E+00
      0.187  0.1295E+00  0.1608E+00
      0.232  0.1358E+00  0.1670E+00
      0.277  0.1398E+00  0.1733E+00
      0.323  0.1416E+00  0.1797E+00
      0.368  0.1410E+00  0.1861E+00
      0.413  0.1382E+00  0.1924E+00
      0.459  0.1332E+00  0.1984E+00
      0.504  0.1270E+00  0.2042E+00
      0.549  0.1216E+00  0.2097E+00
      0.595  0.1204E+00  0.2151E+00
      0.640  0.1270E+00  0.2209E+00
      0.685  0.1431E+00  0.2274E+00
      0.731  0.1666E+00  0.2349E+00
      0.776  0.1912E+00  0.2436E+00
      0.821  0.2095E+00  0.2531E+00
      0.867  0.2166E+00  0.2629E+00
      0.912  0.2130E+00  0.2726E+00
      0.957  0.2039E+00  0.2818E+00
      1.003  0.1947E+00  0.2906E+00
      1.048  0.1876E+00  0.2991E+00
      1.093  0.1808E+00  0.3073E+00
      1.139  0.1724E+00  0.3151E+00
      1.184  0.1639E+00  0.3226E+00
      1.229  0.1617E+00  0.3299E+00
      1.275  0.1732E+00  0.3377E+00
      1.320  0.2021E+00  0.3469E+00
      1.365  0.2443E+00  0.3580E+00
      1.410  0.2891E+00  0.3711E+00
      1.456  0.3233E+00  0.3857E+00
      1.501  0.3365E+00  0.4010E+00
      1.546  0.3262E+00  0.4158E+00
      1.592  0.2990E+00  0.4293E+00
      1.637  0.2692E+00  0.4415E+00
      1.682  0.2545E+00  0.4531E+00
      1.728  0.2704E+00  0.4653E+00
      1.773  0.3252E+00  0.4801E+00
      1.818  0.4171E+00  0.4990E+00
      1.864  0.5353E+00  0.5232E+00
      1.909  0.6638E+00  0.5533E+00
      1.954  0.7868E+00  0.5890E+00
      2.000  0.8931E+00  0.6295E+00
      2.045  0.9758E+00  0.6737E+00
      2.090  0.1030E+01  0.7204E+00
      2.136  0.1055E+01  0.7683E+00
      2.181  0.1053E+01  0.8160E+00
      2.226  0.1034E+01  0.8629E+00
      2.272  0.1015E+01  0.9089E+00
      2.317  0.1011E+01  0.9547E+00
      2.362  0.1028E+01  0.1001E+01
      2.408  0.1064E+01  0.1050E+01
      2.453  0.1105E+01  0.1100E+01
      2.498  0.1139E+01  0.1151E+01
      2.544  0.1163E+01  0.1204E+01
      2.589  0.1186E+01  0.1258E+01
      2.634  0.1219E+01  0.1313E+01
      2.680  0.1270E+01  0.1371E+01
      2.725  0.1334E+01  0.1431E+01
      2.770  0.1399E+01  0.1494E+01
      2.816  0.1455E+01  0.1560E+01
      2.861  0.1502E+01  0.1628E+01
      2.906  0.1549E+01  0.1699E+01
      2.952  0.1601E+01  0.1771E+01
      2.997  0.1656E+01  0.1846E+01
      3.042  0.1698E+01  0.1923E+01
      3.088  0.1715E+01  0.2001E+01
      3.133  0.1701E+01  0.2078E+01
      3.178  0.1666E+01  0.2154E+01
      3.224  0.1623E+01  0.2227E+01
      3.269  0.1582E+01  0.2299E+01
      3.314  0.1547E+01  0.2369E+01
      3.360  0.1518E+01  0.2438E+01
      3.405  0.1498E+01  0.2506E+01
      3.450  0.1493E+01  0.2573E+01
      3.496  0.1500E+01  0.2641E+01
      3.541  0.1512E+01  0.2710E+01
      3.586  0.1514E+01  0.2779E+01
      3.632  0.1495E+01  0.2846E+01
      3.677  0.1454E+01  0.2912E+01
      3.722  0.1402E+01  0.2976E+01
      3.768  0.1356E+01  0.3037E+01
      3.813  0.1331E+01  0.3098E+01
      3.858  0.1327E+01  0.3158E+01
      3.904  0.1334E+01  0.3218E+01
      3.949  0.1333E+01  0.3279E+01
      3.994  0.1313E+01  0.3338E+01
      4.040  0.1280E+01  0.3396E+01
      4.085  0.1254E+01  0.3453E+01
      4.130  0.1256E+01  0.3510E+01
      4.176  0.1295E+01  0.3569E+01
      4.221  0.1362E+01  0.3630E+01
      4.266  0.1441E+01  0.3696E+01
      4.312  0.1523E+01  0.3765E+01
      4.357  0.1609E+01  0.3838E+01
      4.402  0.1702E+01  0.3915E+01
      4.448  0.1795E+01  0.3996E+01
      4.493  0.1866E+01  0.4081E+01
      4.538  0.1892E+01  0.4167E+01
      4.584  0.1866E+01  0.4251E+01
      4.629  0.1802E+01  0.4333E+01
      4.674  0.1733E+01  0.4411E+01
      4.720  0.1698E+01  0.4488E+01
      4.765  0.1727E+01  0.4567E+01
      4.810  0.1825E+01  0.4649E+01
      4.856  0.1973E+01  0.4739E+01
      4.901  0.2131E+01  0.4835E+01
      4.946  0.2258E+01  0.4938E+01
      4.992  0.2329E+01  0.5043E+01
      5.037  0.2340E+01  0.5149E+01
      5.082  0.2310E+01  0.5254E+01
      5.128  0.2267E+01  0.5357E+01
      5.173  0.2235E+01  0.5458E+01
      5.218  0.2234E+01  0.5560E+01
      5.264  0.2277E+01  0.5663E+01
      5.309  0.2365E+01  0.5770E+01
      5.354  0.2487E+01  0.5883E+01
      5.400  0.2609E+01  0.6001E+01
      5.445  0.2687E+01  0.6123E+01
      5.490  0.2676E+01  0.6244E+01
      5.536  0.2562E+01  0.6360E+01
      5.581  0.2367E+01  0.6467E+01
      5.626  0.2142E+01  0.6565E+01
      5.672  0.1939E+01  0.6652E+01
      5.717  0.1788E+01  0.6733E+01
      5.762  0.1684E+01  0.6810E+01
      5.808  0.1606E+01  0.6883E+01
      5.853  0.1533E+01  0.6952E+01
      5.898  0.1464E+01  0.7018E+01
      5.944  0.1412E+01  0.7082E+01
      5.989  0.1398E+01  0.7146E+01
      6.034  0.1431E+01  0.7211E+01
      6.079  0.1506E+01  0.7279E+01
      6.125  0.1602E+01  0.7352E+01
      6.170  0.1697E+01  0.7429E+01
      6.215  0.1777E+01  0.7509E+01
      6.261  0.1840E+01  0.7592E+01
      6.306  0.1897E+01  0.7678E+01
      6.351  0.1960E+01  0.7767E+01
      6.397  0.2031E+01  0.7859E+01
      6.442  0.2094E+01  0.7954E+01
      6.487  0.2129E+01  0.8051E+01
      6.533  0.2126E+01  0.8147E+01
      6.578  0.2095E+01  0.8242E+01
      6.623  0.2060E+01  0.8336E+01
      6.669  0.2038E+01  0.8428E+01
      6.714  0.2023E+01  0.8520E+01
      6.759  0.1992E+01  0.8610E+01
      6.805  0.1926E+01  0.8697E+01
      6.850  0.1827E+01  0.8780E+01
      6.895  0.1726E+01  0.8858E+01
      6.941  0.1661E+01  0.8934E+01
      6.986  0.1652E+01  0.9008E+01
      7.031  0.1693E+01  0.9085E+01
      7.077  0.1754E+01  0.9165E+01
      7.122  0.1806E+01  0.9247E+01
      7.167  0.1837E+01  0.9330E+01
      7.213  0.1851E+01  0.9414E+01
      7.258  0.1864E+01  0.9498E+01
      7.303  0.1893E+01  0.9584E+01
      7.349  0.1946E+01  0.9672E+01
      7.394  0.2023E+01  0.9764E+01
      7.439  0.2109E+01  0.9860E+01
      7.485  0.2170E+01  0.9958E+01
      7.530  0.2158E+01  0.1006E+02
      7.575  0.2030E+01  0.1015E+02
      7.621  0.1767E+01  0.1023E+02
      7.666  0.1392E+01  0.1029E+02
      7.711  0.9642E+00  0.1033E+02
      7.757  0.5607E+00  0.1036E+02
      7.802  0.2440E+00  0.1037E+02
      7.847  0.4190E-01  0.1037E+02
      7.893 -0.5512E-01  0.1037E+02
      7.938 -0.7933E-01  0.1037E+02
      7.983 -0.6668E-01  0.1036E+02
      8.029 -0.4373E-01  0.1036E+02
      8.074 -0.2406E-01  0.1036E+02
      8.119 -0.1144E-01  0.1036E+02
      8.165 -0.4765E-02  0.1036E+02
      8.210 -0.1755E-02  0.1036E+02
      8.255 -0.5746E-03  0.1036E+02
      8.301 -0.1677E-03  0.1036E+02
      8.346 -0.4376E-04  0.1036E+02
      8.391 -0.1023E-04  0.1036E+02
      8.437 -0.2142E-05  0.1036E+02
      8.482 -0.4029E-06  0.1036E+02
      8.527 -0.6807E-07  0.1036E+02
      8.573 -0.1034E-07  0.1036E+02
      8.618 -0.1412E-08  0.1036E+02
      8.663 -0.1735E-09  0.1036E+02
      8.709 -0.1920E-10  0.1036E+02
      8.754 -0.1913E-11  0.1036E+02
      8.799 -0.1715E-12  0.1036E+02
      8.845 -0.1389E-13  0.1036E+02
      8.890 -0.1090E-14  0.1036E+02
      8.935  0.0000E+00  0.1036E+02
      8.981  0.0000E+00  0.1036E+02
      9.026  0.0000E+00  0.1036E+02
      9.071  0.0000E+00  0.1036E+02
      9.117  0.0000E+00  0.1036E+02
      9.162  0.0000E+00  0.1036E+02
      9.207  0.0000E+00  0.1036E+02
      9.253  0.0000E+00  0.1036E+02
      9.298  0.0000E+00  0.1036E+02
      9.343  0.0000E+00  0.1036E+02
      9.389  0.0000E+00  0.1036E+02
      9.434  0.0000E+00  0.1036E+02
      9.479  0.0000E+00  0.1036E+02
      9.525  0.0000E+00  0.1036E+02
      9.570  0.0000E+00  0.1036E+02
      9.615  0.0000E+00  0.1036E+02
      9.661  0.0000E+00  0.1036E+02
