  108  108  100    1
  0.1022088E+02  0.1033485E-08  0.1033485E-08  0.1033485E-08  0.5000000E-15
  1.000000000000000E-004
  CAR 
 Opt                                     
    864      4    518
 
  0.1250000E+00  0.1250000E+00  0.1250000E+00  0.1250000E+00
    1       -1.938457   1.000000
    2       -0.807864   1.000000
    3       -0.807864   1.000000
    4       -0.807864   1.000000
    5       -0.125312   1.000000
    6       -0.125312   1.000000
    7       -0.125312   1.000000
    8        0.206812   1.000000
    9        0.206812   1.000000
   10        0.206812   1.000000
   11        0.812961   1.000000
   12        0.812961   1.000000
   13        0.812961   1.000000
   14        0.812961   1.000000
   15        0.812961   1.000000
   16        0.812961   1.000000
   17        0.919822   1.000000
   18        1.315440   1.000000
   19        1.315440   1.000000
   20        1.315440   1.000000
   21        1.361864   1.000000
   22        1.361864   1.000000
   23        1.361864   1.000000
   24        1.583732   1.000000
   25        1.583732   1.000000
   26        1.583732   1.000000
   27        1.717405   1.000000
   28        1.788962   1.000000
   29        1.788962   1.000000
   30        1.788962   1.000000
   31        1.890352   1.000000
   32        1.890354   1.000000
   33        1.890354   1.000000
   34        1.985184   1.000000
   35        1.985184   1.000000
   36        1.985184   1.000000
   37        2.342027   1.000000
   38        2.342029   1.000000
   39        2.342029   1.000000
   40        2.464249   1.000000
   41        2.464250   1.000000
   42        2.464250   1.000000
   43        2.464251   1.000000
   44        2.464251   1.000000
   45        2.464251   1.000000
   46        2.478899   1.000000
   47        2.478899   1.000000
   48        2.478899   1.000000
   49        2.524264   1.000000
   50        2.524264   1.000000
   51        2.524265   1.000000
   52        2.524266   1.000000
   53        2.524267   1.000000
   54        2.524267   1.000000
   55        2.547613   1.000000
   56        2.547613   1.000000
   57        2.547613   1.000000
   58        2.547614   1.000000
   59        2.547614   1.000000
   60        2.547614   1.000000
   61        2.624480   1.000000
   62        2.624480   1.000000
   63        2.624480   1.000000
   64        2.626928   1.000000
   65        2.626928   1.000000
   66        2.626928   1.000000
   67        2.718782   1.000000
   68        2.718782   1.000000
   69        2.718782   1.000000
   70        2.718782   1.000000
   71        2.718782   1.000000
   72        2.718782   1.000000
   73        2.758108   1.000000
   74        2.758109   1.000000
   75        2.758109   1.000000
   76        2.758110   1.000000
   77        2.758110   1.000000
   78        2.758111   1.000000
   79        2.761043   1.000000
   80        2.761046   1.000000
   81        2.761046   1.000000
   82        2.816210   1.000000
   83        2.816210   1.000000
   84        2.816210   1.000000
   85        2.816213   1.000000
   86        2.816213   1.000000
   87        2.816213   1.000000
   88        2.926473   1.000000
   89        2.926473   1.000000
   90        2.926473   1.000000
   91        2.926474   1.000000
   92        2.926474   1.000000
   93        2.926474   1.000000
   94        3.041379   1.000000
   95        3.041379   1.000000
   96        3.041379   1.000000
   97        3.059003   1.000000
   98        3.059003   1.000000
   99        3.059003   1.000000
  100        3.090733   1.000000
  101        3.090733   1.000000
  102        3.090733   1.000000
  103        3.090733   1.000000
  104        3.090733   1.000000
  105        3.090733   1.000000
  106        3.152552   1.000000
  107        3.152552   1.000000
  108        3.152552   1.000000
  109        3.152552   1.000000
  110        3.152552   1.000000
  111        3.152552   1.000000
  112        3.316624   1.000000
  113        3.316624   1.000000
  114        3.316624   1.000000
  115        3.316628   1.000000
  116        3.316628   1.000000
  117        3.316628   1.000000
  118        3.325331   1.000000
  119        3.325331   1.000000
  120        3.325331   1.000000
  121        3.428524   1.000000
  122        3.428525   1.000000
  123        3.428525   1.000000
  124        3.431493   1.000000
  125        3.431493   1.000000
  126        3.431494   1.000000
  127        3.476684   1.000000
  128        3.476684   1.000000
  129        3.476684   1.000000
  130        3.476686   1.000000
  131        3.476686   1.000000
  132        3.476686   1.000000
  133        3.501176   1.000000
  134        3.501176   1.000000
  135        3.501176   1.000000
  136        3.501177   1.000000
  137        3.501177   1.000000
  138        3.501177   1.000000
  139        3.554821   1.000000
  140        3.554821   1.000000
  141        3.554821   1.000000
  142        3.554823   1.000000
  143        3.554823   1.000000
  144        3.554823   1.000000
  145        3.673528   1.000000
  146        3.673528   1.000000
  147        3.673528   1.000000
  148        3.673528   1.000000
  149        3.673528   1.000000
  150        3.673528   1.000000
  151        3.712024   1.000000
  152        3.712024   1.000000
  153        3.712025   1.000000
  154        3.735729   1.000000
  155        3.735729   1.000000
  156        3.735729   1.000000
  157        3.735729   1.000000
  158        3.735729   1.000000
  159        3.735729   1.000000
  160        3.888660   1.000000
  161        3.888660   1.000000
  162        3.888660   1.000000
  163        3.888664   1.000000
  164        3.888664   1.000000
  165        3.888664   1.000000
  166        3.905534   1.000000
  167        3.905537   1.000000
  168        3.905537   1.000000
  169        4.096350   1.000000
  170        4.096350   1.000000
  171        4.096350   1.000000
  172        4.096352   1.000000
  173        4.096352   1.000000
  174        4.096352   1.000000
  175        4.236033   1.000000
  176        4.236033   1.000000
  177        4.236033   1.000000
  178        4.254428   1.000000
  179        4.254428   1.000000
  180        4.254428   1.000000
  181        4.287509   1.000000
  182        4.287509   1.000000
  183        4.287509   1.000000
  184        4.302121   1.000000
  185        4.302121   1.000000
  186        4.302121   1.000000
  187        4.302122   1.000000
  188        4.302122   1.000000
  189        4.302122   1.000000
  190        4.310459   1.000000
  191        4.310459   1.000000
  192        4.310459   1.000000
  193        4.434792   1.000000
  194        4.434792   1.000000
  195        4.434793   1.000000
  196        4.434793   1.000000
  197        4.434794   1.000000
  198        4.434794   1.000000
  199        4.455260   1.000000
  200        4.455260   1.000000
  201        4.455260   1.000000
  202        4.461693   1.000000
  203        4.461693   1.000000
  204        4.461693   1.000000
  205        4.461700   1.000000
  206        4.461700   1.000000
  207        4.461700   1.000000
  208        4.473980   1.000000
  209        4.473980   1.000000
  210        4.473980   1.000000
  211        4.473981   1.000000
  212        4.473981   1.000000
  213        4.473981   1.000000
  214        4.592001   1.000000
  215        4.592001   1.000000
  216        4.592001   1.000000
  217        4.616785   1.000000
  218        4.616785   1.000000
  219        4.616786   1.000000
  220        4.630908   1.000000
  221        4.630908   1.000000
  222        4.630908   1.000000
  223        4.721584   1.000000
  224        4.802846   1.000000
  225        4.802846   1.000000
  226        4.802846   1.000000
  227        4.802847   1.000000
  228        4.802847   1.000000
  229        4.802847   1.000000
  230        4.810806   1.000000
  231        4.810806   1.000000
  232        4.810807   1.000000
  233        4.810808   1.000000
  234        4.810809   1.000000
  235        4.810809   1.000000
  236        4.816919   1.000000
  237        4.816919   1.000000
  238        4.816920   1.000000
  239        4.952962   1.000000
  240        4.952962   1.000000
  241        4.952962   1.000000
  242        4.952970   1.000000
  243        4.952970   1.000000
  244        4.952970   1.000000
  245        5.047689   1.000000
  246        5.047689   1.000000
  247        5.047689   1.000000
  248        5.052818   1.000000
  249        5.052818   1.000000
  250        5.052827   1.000000
  251        5.057064   1.000000
  252        5.057064   1.000000
  253        5.057064   1.000000
  254        5.057064   1.000000
  255        5.057065   1.000000
  256        5.057065   1.000000
  257        5.083218   1.000000
  258        5.083218   1.000000
  259        5.083219   1.000000
  260        5.110406   1.000000
  261        5.110406   1.000000
  262        5.110406   1.000000
  263        5.110412   1.000000
  264        5.110412   1.000000
  265        5.110413   1.000000
  266        5.125163   1.000000
  267        5.153617   1.000000
  268        5.153617   1.000000
  269        5.153617   1.000000
  270        5.154059   1.000000
  271        5.154059   1.000000
  272        5.154059   1.000000
  273        5.175292   1.000000
  274        5.175292   1.000000
  275        5.193367   1.000000
  276        5.193367   1.000000
  277        5.210498   1.000000
  278        5.210498   1.000000
  279        5.210498   1.000000
  280        5.210501   1.000000
  281        5.210501   1.000000
  282        5.210502   1.000000
  283        5.226333   1.000000
  284        5.226336   1.000000
  285        5.226336   1.000000
  286        5.272242   1.000000
  287        5.272242   1.000000
  288        5.272269   1.000000
  289        5.274208   1.000000
  290        5.274234   1.000000
  291        5.274234   1.000000
  292        5.291639   1.000000
  293        5.291639   1.000000
  294        5.291639   1.000000
  295        5.291639   1.000000
  296        5.291639   1.000000
  297        5.291639   1.000000
  298        5.319744   1.000000
  299        5.319744   1.000000
  300        5.319744   1.000000
  301        5.350448   1.000000
  302        5.350448   1.000000
  303        5.350449   1.000000
  304        5.363174   1.000000
  305        5.363174   1.000000
  306        5.403761   1.000000
  307        5.403769   1.000000
  308        5.403769   1.000000
  309        5.405862   1.000000
  310        5.405862   1.000000
  311        5.405862   1.000000
  312        5.541932   1.000000
  313        5.557998   1.000000
  314        5.557998   1.000000
  315        5.558003   1.000000
  316        5.573798   1.000000
  317        5.573798   1.000000
  318        5.573798   1.000000
  319        5.581268   1.000000
  320        5.581269   1.000000
  321        5.581269   1.000000
  322        5.581272   1.000000
  323        5.581272   1.000000
  324        5.581273   1.000000
  325        5.583255   1.000000
  326        5.583255   1.000000
  327        5.583255   1.000000
  328        5.607758   1.000000
  329        5.607758   1.000000
  330        5.607758   1.000000
  331        5.723074   1.000000
  332        5.723074   1.000000
  333        5.723074   1.000000
  334        5.726044   1.000000
  335        5.726044   1.000000
  336        5.726044   1.000000
  337        5.732498   1.000000
  338        5.732498   1.000000
  339        5.732498   1.000000
  340        5.732499   1.000000
  341        5.732499   1.000000
  342        5.732499   1.000000
  343        5.750087   1.000000
  344        5.750087   1.000000
  345        5.750087   1.000000
  346        5.799761   1.000000
  347        5.799762   1.000000
  348        5.799762   1.000000
  349        5.799768   1.000000
  350        5.799768   1.000000
  351        5.799769   1.000000
  352        5.844096   1.000000
  353        5.844096   1.000000
  354        5.844096   1.000000
  355        5.881514   1.000000
  356        5.881514   1.000000
  357        5.881514   1.000000
  358        5.881516   1.000000
  359        5.881516   1.000000
  360        5.881516   1.000000
  361        5.913774   1.000000
  362        5.913774   1.000000
  363        5.913774   1.000000
  364        5.959878   1.000000
  365        5.959886   1.000000
  366        5.959886   1.000000
  367        6.061913   1.000003
  368        6.061913   1.000003
  369        6.061914   1.000003
  370        6.088815   1.000007
  371        6.088815   1.000007
  372        6.088815   1.000007
  373        6.222844   1.000335
  374        6.222844   1.000335
  375        6.222844   1.000335
  376        6.222967   1.000336
  377        6.222967   1.000336
  378        6.222967   1.000336
  379        6.224389   1.000349
  380        6.224389   1.000349
  381        6.224389   1.000349
  382        6.227708   1.000379
  383        6.227708   1.000379
  384        6.227708   1.000379
  385        6.229369   1.000395
  386        6.229369   1.000395
  387        6.229369   1.000395
  388        6.306621   1.002286
  389        6.306622   1.002286
  390        6.306622   1.002286
  391        6.409515   1.013426
  392        6.409515   1.013426
  393        6.409515   1.013426
  394        6.409515   1.013427
  395        6.409516   1.013427
  396        6.409516   1.013427
  397        6.477276   1.028188
  398        6.477276   1.028188
  399        6.477276   1.028188
  400        6.477277   1.028188
  401        6.477277   1.028188
  402        6.477277   1.028188
  403        6.601639   1.005074
  404        6.601639   1.005074
  405        6.601639   1.005074
  406        6.601639   1.005074
  407        6.601639   1.005074
  408        6.601639   1.005074
  409        6.621621   0.980877
  410        6.621621   0.980877
  411        6.621621   0.980877
  412        6.621622   0.980876
  413        6.621622   0.980876
  414        6.621622   0.980876
  415        6.667628   0.889293
  416        6.667628   0.889293
  417        6.667643   0.889255
  418        6.677965   0.861435
  419        6.677979   0.861396
  420        6.677979   0.861396
  421        6.696567   0.804799
  422        6.696567   0.804799
  423        6.782062   0.469520
  424        6.782062   0.469520
  425        6.782062   0.469520
  426        6.782070   0.469488
  427        6.782070   0.469488
  428        6.782070   0.469488
  429        6.854404   0.191100
  430        6.854405   0.191098
  431        6.854405   0.191098
  432        6.854407   0.191093
  433        6.854407   0.191093
  434        6.854407   0.191091
  435        6.863901   0.161448
  436        6.863901   0.161445
  437        6.863901   0.161445
  438        6.900336   0.068065
  439        6.900336   0.068065
  440        6.900336   0.068065
  441        7.011853  -0.035201
  442        7.011853  -0.035201
  443        7.011853  -0.035201
  444        7.011859  -0.035201
  445        7.011859  -0.035201
  446        7.011859  -0.035201
  447        7.022455  -0.035431
  448        7.022455  -0.035431
  449        7.022455  -0.035431
  450        7.026546  -0.035291
  451        7.026546  -0.035291
  452        7.050727  -0.032500
  453        7.050727  -0.032500
  454        7.050727  -0.032500
  455        7.050727  -0.032500
  456        7.050727  -0.032500
  457        7.050727  -0.032500
  458        7.076390  -0.027308
  459        7.076390  -0.027308
  460        7.076390  -0.027308
  461        7.076397  -0.027306
  462        7.076397  -0.027306
  463        7.076397  -0.027306
  464        7.114405  -0.018645
  465        7.114405  -0.018645
  466        7.114406  -0.018645
  467        7.126603  -0.016066
  468        7.126603  -0.016066
  469        7.126604  -0.016066
  470        7.189086  -0.006310
  471        7.189088  -0.006309
  472        7.189088  -0.006309
  473        7.208663  -0.004459
  474        7.208664  -0.004459
  475        7.208664  -0.004459
  476        7.236753  -0.002599
  477        7.236753  -0.002599
  478        7.236753  -0.002599
  479        7.241779  -0.002348
  480        7.241779  -0.002348
  481        7.241779  -0.002348
  482        7.299506  -0.000656
  483        7.299506  -0.000656
  484        7.299507  -0.000656
  485        7.338213  -0.000251
  486        7.338213  -0.000251
  487        7.338213  -0.000251
  488        7.338213  -0.000251
  489        7.338213  -0.000251
  490        7.338213  -0.000251
  491        7.370438  -0.000106
  492        7.370438  -0.000106
  493        7.370438  -0.000106
  494        7.370441  -0.000106
  495        7.370441  -0.000106
  496        7.370441  -0.000106
  497        7.432821  -0.000017
  498        7.432821  -0.000017
  499        7.432821  -0.000017
  500        7.432822  -0.000017
  501        7.432823  -0.000017
  502        7.432823  -0.000017
  503        7.450300  -0.000010
  504        7.450300  -0.000010
  505        7.452786  -0.000009
  506        7.452787  -0.000009
  507        7.452787  -0.000009
  508        7.542123  -0.000000
  509        7.542131  -0.000000
  510        7.542595  -0.000000
  511        7.545318  -0.000000
  512        7.545332  -0.000000
  513        7.545398  -0.000000
  514        7.545652  -0.000000
  515        7.545652  -0.000000
  516        7.545653  -0.000000
  517        7.545687  -0.000000
  518        7.545776  -0.000000
 
  0.3750000E+00  0.1250000E+00  0.1250000E+00  0.3750000E+00
    1       -1.742478   1.000000
    2       -1.359118   1.000000
    3       -0.630903   1.000000
    4       -0.630903   1.000000
    5       -0.286059   1.000000
    6       -0.286059   1.000000
    7        0.039901   1.000000
    8        0.039901   1.000000
    9        0.335991   1.000000
   10        0.360030   1.000000
   11        0.360030   1.000000
   12        0.581853   1.000000
   13        0.621023   1.000000
   14        0.907072   1.000000
   15        0.907072   1.000000
   16        1.082027   1.000000
   17        1.082027   1.000000
   18        1.311603   1.000000
   19        1.403004   1.000000
   20        1.474766   1.000000
   21        1.474766   1.000000
   22        1.478954   1.000000
   23        1.729892   1.000000
   24        1.869881   1.000000
   25        1.869884   1.000000
   26        1.885279   1.000000
   27        1.929427   1.000000
   28        1.929427   1.000000
   29        1.935282   1.000000
   30        1.951828   1.000000
   31        1.951828   1.000000
   32        1.992473   1.000000
   33        2.010352   1.000000
   34        2.010354   1.000000
   35        2.092986   1.000000
   36        2.098529   1.000000
   37        2.098529   1.000000
   38        2.120688   1.000000
   39        2.120688   1.000000
   40        2.127337   1.000000
   41        2.165180   1.000000
   42        2.165182   1.000000
   43        2.194301   1.000000
   44        2.194301   1.000000
   45        2.233887   1.000000
   46        2.233889   1.000000
   47        2.277441   1.000000
   48        2.277442   1.000000
   49        2.376406   1.000000
   50        2.376406   1.000000
   51        2.478753   1.000000
   52        2.478753   1.000000
   53        2.507397   1.000000
   54        2.507397   1.000000
   55        2.507704   1.000000
   56        2.507704   1.000000
   57        2.531981   1.000000
   58        2.531981   1.000000
   59        2.534036   1.000000
   60        2.534036   1.000000
   61        2.588906   1.000000
   62        2.588906   1.000000
   63        2.622028   1.000000
   64        2.622028   1.000000
   65        2.628045   1.000000
   66        2.628046   1.000000
   67        2.683478   1.000000
   68        2.683478   1.000000
   69        2.699780   1.000000
   70        2.712810   1.000000
   71        2.712810   1.000000
   72        2.738076   1.000000
   73        2.738077   1.000000
   74        2.754917   1.000000
   75        2.754919   1.000000
   76        2.756073   1.000000
   77        2.756074   1.000000
   78        2.801888   1.000000
   79        2.801888   1.000000
   80        2.802756   1.000000
   81        2.802756   1.000000
   82        2.846939   1.000000
   83        2.889170   1.000000
   84        2.889170   1.000000
   85        2.896958   1.000000
   86        2.896958   1.000000
   87        2.906665   1.000000
   88        2.906665   1.000000
   89        2.917350   1.000000
   90        2.917350   1.000000
   91        2.932302   1.000000
   92        2.952588   1.000000
   93        3.010020   1.000000
   94        3.010023   1.000000
   95        3.023475   1.000000
   96        3.023475   1.000000
   97        3.027676   1.000000
   98        3.027676   1.000000
   99        3.031977   1.000000
  100        3.031977   1.000000
  101        3.037034   1.000000
  102        3.101657   1.000000
  103        3.101657   1.000000
  104        3.129718   1.000000
  105        3.129718   1.000000
  106        3.199788   1.000000
  107        3.199788   1.000000
  108        3.208474   1.000000
  109        3.208474   1.000000
  110        3.225226   1.000000
  111        3.233946   1.000000
  112        3.233954   1.000000
  113        3.240507   1.000000
  114        3.240507   1.000000
  115        3.270110   1.000000
  116        3.270110   1.000000
  117        3.294901   1.000000
  118        3.294901   1.000000
  119        3.318059   1.000000
  120        3.318059   1.000000
  121        3.384790   1.000000
  122        3.384790   1.000000
  123        3.408312   1.000000
  124        3.408312   1.000000
  125        3.409390   1.000000
  126        3.409390   1.000000
  127        3.478819   1.000000
  128        3.500766   1.000000
  129        3.500766   1.000000
  130        3.502160   1.000000
  131        3.502160   1.000000
  132        3.509476   1.000000
  133        3.509476   1.000000
  134        3.540803   1.000000
  135        3.540803   1.000000
  136        3.547718   1.000000
  137        3.547720   1.000000
  138        3.573815   1.000000
  139        3.573815   1.000000
  140        3.615018   1.000000
  141        3.615018   1.000000
  142        3.618270   1.000000
  143        3.618270   1.000000
  144        3.623955   1.000000
  145        3.623956   1.000000
  146        3.631505   1.000000
  147        3.637751   1.000000
  148        3.698539   1.000000
  149        3.698540   1.000000
  150        3.759396   1.000000
  151        3.759396   1.000000
  152        3.780804   1.000000
  153        3.780804   1.000000
  154        3.808285   1.000000
  155        3.808285   1.000000
  156        3.821914   1.000000
  157        3.887887   1.000000
  158        3.887887   1.000000
  159        3.889700   1.000000
  160        3.889700   1.000000
  161        3.903371   1.000000
  162        3.903372   1.000000
  163        3.926800   1.000000
  164        3.926800   1.000000
  165        3.933565   1.000000
  166        3.933566   1.000000
  167        3.959387   1.000000
  168        3.984863   1.000000
  169        3.984863   1.000000
  170        4.011901   1.000000
  171        4.011903   1.000000
  172        4.030700   1.000000
  173        4.038066   1.000000
  174        4.038066   1.000000
  175        4.078899   1.000000
  176        4.078900   1.000000
  177        4.105947   1.000000
  178        4.105947   1.000000
  179        4.163414   1.000000
  180        4.163414   1.000000
  181        4.198769   1.000000
  182        4.198770   1.000000
  183        4.198808   1.000000
  184        4.198811   1.000000
  185        4.213157   1.000000
  186        4.213157   1.000000
  187        4.244550   1.000000
  188        4.244551   1.000000
  189        4.299302   1.000000
  190        4.299302   1.000000
  191        4.310952   1.000000
  192        4.310952   1.000000
  193        4.387609   1.000000
  194        4.387615   1.000000
  195        4.392238   1.000000
  196        4.415316   1.000000
  197        4.415316   1.000000
  198        4.456901   1.000000
  199        4.456902   1.000000
  200        4.459962   1.000000
  201        4.459962   1.000000
  202        4.460299   1.000000
  203        4.460299   1.000000
  204        4.505069   1.000000
  205        4.507691   1.000000
  206        4.507691   1.000000
  207        4.547934   1.000000
  208        4.547934   1.000000
  209        4.562749   1.000000
  210        4.562749   1.000000
  211        4.568309   1.000000
  212        4.584739   1.000000
  213        4.584739   1.000000
  214        4.600491   1.000000
  215        4.617890   1.000000
  216        4.617896   1.000000
  217        4.636887   1.000000
  218        4.636887   1.000000
  219        4.661946   1.000000
  220        4.661946   1.000000
  221        4.672935   1.000000
  222        4.675671   1.000000
  223        4.675671   1.000000
  224        4.717738   1.000000
  225        4.717739   1.000000
  226        4.771727   1.000000
  227        4.771728   1.000000
  228        4.795066   1.000000
  229        4.813947   1.000000
  230        4.848285   1.000000
  231        4.849499   1.000000
  232        4.849499   1.000000
  233        4.869543   1.000000
  234        4.869543   1.000000
  235        4.878895   1.000000
  236        4.878895   1.000000
  237        4.881784   1.000000
  238        4.881788   1.000000
  239        4.883260   1.000000
  240        4.883261   1.000000
  241        4.892342   1.000000
  242        4.908600   1.000000
  243        4.908600   1.000000
  244        4.932150   1.000000
  245        4.932150   1.000000
  246        4.934032   1.000000
  247        4.934032   1.000000
  248        4.941045   1.000000
  249        4.941045   1.000000
  250        4.977297   1.000000
  251        4.977305   1.000000
  252        4.993898   1.000000
  253        4.993898   1.000000
  254        5.013447   1.000000
  255        5.013454   1.000000
  256        5.020615   1.000000
  257        5.020615   1.000000
  258        5.033296   1.000000
  259        5.045254   1.000000
  260        5.045256   1.000000
  261        5.064527   1.000000
  262        5.067615   1.000000
  263        5.081929   1.000000
  264        5.088099   1.000000
  265        5.088099   1.000000
  266        5.088797   1.000000
  267        5.123514   1.000000
  268        5.137825   1.000000
  269        5.177566   1.000000
  270        5.183111   1.000000
  271        5.183116   1.000000
  272        5.188943   1.000000
  273        5.210005   1.000000
  274        5.213227   1.000000
  275        5.213227   1.000000
  276        5.240328   1.000000
  277        5.244497   1.000000
  278        5.251182   1.000000
  279        5.251182   1.000000
  280        5.252493   1.000000
  281        5.252494   1.000000
  282        5.260705   1.000000
  283        5.269408   1.000000
  284        5.269409   1.000000
  285        5.296156   1.000000
  286        5.296157   1.000000
  287        5.297219   1.000000
  288        5.297220   1.000000
  289        5.310574   1.000000
  290        5.310574   1.000000
  291        5.311568   1.000000
  292        5.311575   1.000000
  293        5.378367   1.000000
  294        5.379987   1.000000
  295        5.379987   1.000000
  296        5.381532   1.000000
  297        5.397189   1.000000
  298        5.405407   1.000000
  299        5.408371   1.000000
  300        5.416148   1.000000
  301        5.416148   1.000000
  302        5.417357   1.000000
  303        5.417357   1.000000
  304        5.427451   1.000000
  305        5.441093   1.000000
  306        5.441102   1.000000
  307        5.441743   1.000000
  308        5.441743   1.000000
  309        5.443089   1.000000
  310        5.465081   1.000000
  311        5.465081   1.000000
  312        5.469684   1.000000
  313        5.469685   1.000000
  314        5.502752   1.000000
  315        5.502752   1.000000
  316        5.504293   1.000000
  317        5.504293   1.000000
  318        5.512035   1.000000
  319        5.512035   1.000000
  320        5.523776   1.000000
  321        5.523776   1.000000
  322        5.534954   1.000000
  323        5.547929   1.000000
  324        5.547929   1.000000
  325        5.575032   1.000000
  326        5.575032   1.000000
  327        5.578174   1.000000
  328        5.587920   1.000000
  329        5.587920   1.000000
  330        5.626651   1.000000
  331        5.626651   1.000000
  332        5.636962   1.000000
  333        5.636962   1.000000
  334        5.645011   1.000000
  335        5.652003   1.000000
  336        5.652011   1.000000
  337        5.665061   1.000000
  338        5.665061   1.000000
  339        5.705455   1.000000
  340        5.708039   1.000000
  341        5.708047   1.000000
  342        5.731860   1.000000
  343        5.754830   1.000000
  344        5.807075   1.000000
  345        5.807885   1.000000
  346        5.807889   1.000000
  347        5.826904   1.000000
  348        5.826907   1.000000
  349        5.835233   1.000000
  350        5.835233   1.000000
  351        5.847192   1.000000
  352        5.847192   1.000000
  353        5.854645   1.000000
  354        5.948431   1.000000
  355        5.948431   1.000000
  356        5.987479   1.000000
  357        5.987479   1.000000
  358        6.051129   1.000002
  359        6.051129   1.000002
  360        6.063271   1.000003
  361        6.063271   1.000003
  362        6.074398   1.000004
  363        6.074398   1.000004
  364        6.105818   1.000012
  365        6.105819   1.000012
  366        6.111731   1.000014
  367        6.122269   1.000020
  368        6.122270   1.000020
  369        6.155008   1.000053
  370        6.170066   1.000082
  371        6.170066   1.000082
  372        6.200309   1.000187
  373        6.200310   1.000187
  374        6.202362   1.000197
  375        6.202366   1.000197
  376        6.224751   1.000352
  377        6.241031   1.000526
  378        6.241031   1.000526
  379        6.250376   1.000659
  380        6.250376   1.000659
  381        6.251349   1.000674