 running on    8 total cores
 distrk:  each k-point on    8 cores,    1 groups
 distr:  one band on    4 cores,    2 groups
 using from now: INCAR     
 vasp.5.4.4.18Apr17-6-g9f103f2a35 (build Aug 17 2017 06:00:38) complex          
  
 POSCAR found type information on POSCAR  Fe
 POSCAR found :  1 types and     108 ions
 scaLAPACK will be used
 LDA part: xc-table for Pade appr. of Perdew
 POSCAR, INCAR and KPOINTS ok, starting setup
 FFT: planning ...
 WAVECAR not read
 entering main loop
       N       E                     dE             d eps       ncg     rms          rms(c)
DAV:   1     0.975286481271E+04    0.97529E+04   -0.41761E+05  4144   0.279E+03
DAV:   2     0.374266058944E+03   -0.93786E+04   -0.92334E+04  4144   0.568E+02
DAV:   3    -0.810340873856E+03   -0.11846E+04   -0.10153E+04  4144   0.258E+02
DAV:   4    -0.102581027021E+04   -0.21547E+03   -0.20253E+03  7520   0.696E+01
DAV:   5    -0.104513832024E+04   -0.19328E+02   -0.18323E+02  6704   0.261E+01    0.935E+01
RMM:   6    -0.877055759216E+03    0.16808E+03   -0.13537E+03  4144   0.112E+02    0.881E+00
RMM:   7    -0.880217270120E+03   -0.31615E+01   -0.11217E+02  4555   0.241E+01    0.346E+00
RMM:   8    -0.879264472393E+03    0.95280E+00   -0.13479E+01  4427   0.107E+01    0.313E+00
RMM:   9    -0.879602867187E+03   -0.33839E+00   -0.64058E+00  5669   0.258E+00    0.549E+00
RMM:  10    -0.879536150036E+03    0.66717E-01   -0.77711E-01  5071   0.136E+00    0.157E+00
RMM:  11    -0.879519646241E+03    0.16504E-01   -0.25411E-01  4966   0.895E-01    0.827E-01
RMM:  12    -0.879513434301E+03    0.62119E-02   -0.10439E-01  4582   0.716E-01    0.862E-02
RMM:  13    -0.879517927699E+03   -0.44934E-02   -0.50526E-02  5759   0.147E-01    0.158E-01
RMM:  14    -0.879518039583E+03   -0.11188E-03   -0.23224E-03  5526   0.721E-02    0.131E-01
RMM:  15    -0.879517962477E+03    0.77106E-04   -0.17423E-03  4421   0.129E-01    0.574E-02
RMM:  16    -0.879517905604E+03    0.56873E-04   -0.86501E-05  6041   0.234E-02    0.721E-02
RMM:  17    -0.879517812270E+03    0.93334E-04    0.16244E-04  4466   0.314E-02    0.146E-02
RMM:  18    -0.879517788504E+03    0.23766E-04    0.10321E-04  5502   0.120E-02    0.107E-02
RMM:  19    -0.879517775975E+03    0.12529E-04    0.13956E-04  3732   0.475E-03    0.452E-03
RMM:  20    -0.879517759172E+03    0.16803E-04    0.17537E-04  2718   0.259E-03    0.875E-04
RMM:  21    -0.879517735753E+03    0.23419E-04    0.20644E-04  2595   0.217E-03    0.851E-04
RMM:  22    -0.879517724463E+03    0.11290E-04    0.98915E-05  2517   0.172E-03    0.688E-04
RMM:  23    -0.879517716113E+03    0.83508E-05    0.78546E-05  2475   0.183E-03    0.633E-04
RMM:  24    -0.879517709129E+03    0.69836E-05    0.67617E-05  2412   0.117E-03    0.252E-04
RMM:  25    -0.879517702725E+03    0.64043E-05    0.62873E-05  2363   0.104E-03    0.332E-04
RMM:  26    -0.879517696880E+03    0.58444E-05    0.56800E-05  2071   0.761E-04    0.114E-04
RMM:  27    -0.879517691377E+03    0.55038E-05    0.53751E-05  1913   0.693E-04    0.224E-04
RMM:  28    -0.879517682896E+03    0.84803E-05    0.78106E-05  1523   0.542E-04    0.465E-05
RMM:  29    -0.879517677464E+03    0.54321E-05    0.49286E-05  1534   0.539E-04    0.136E-04
RMM:  30    -0.879517673263E+03    0.42007E-05    0.40417E-05  1300   0.461E-04    0.514E-05
RMM:  31    -0.879517669457E+03    0.38067E-05    0.37058E-05  1117   0.451E-04    0.151E-04
RMM:  32    -0.879517665999E+03    0.34573E-05    0.33760E-05  1047   0.404E-04    0.722E-05
RMM:  33    -0.879517662769E+03    0.32302E-05    0.31573E-05  1001   0.403E-04    0.137E-04
RMM:  34    -0.879517659804E+03    0.29650E-05    0.28991E-05   962   0.374E-04    0.791E-05
RMM:  35    -0.879517657042E+03    0.27620E-05    0.27065E-05   944   0.370E-04    0.128E-04
RMM:  36    -0.879517654505E+03    0.25376E-05    0.24876E-05   877   0.349E-04    0.879E-05
RMM:  37    -0.879517652146E+03    0.23589E-05    0.23157E-05   854   0.345E-04    0.128E-04
RMM:  38    -0.879517649979E+03    0.21666E-05    0.21283E-05   824   0.331E-04    0.970E-05
RMM:  39    -0.879517647972E+03    0.20073E-05    0.19757E-05   803   0.327E-04    0.121E-04
RMM:  40    -0.879517646126E+03    0.18464E-05    0.18149E-05   734   0.318E-04    0.103E-04
RMM:  41    -0.879517644418E+03    0.17075E-05    0.16806E-05   753   0.316E-04    0.111E-04
RMM:  42    -0.879517642851E+03    0.15670E-05    0.15426E-05   680   0.307E-04    0.104E-04
RMM:  43    -0.879517641405E+03    0.14456E-05    0.14254E-05   725   0.305E-04    0.104E-04
RMM:  44    -0.879517640076E+03    0.13293E-05    0.13073E-05   639   0.298E-04    0.990E-05
RMM:  45    -0.879517638854E+03    0.12223E-05    0.12056E-05   613   0.295E-04    0.110E-04
RMM:  46    -0.879517637733E+03    0.11205E-05    0.11048E-05   586   0.293E-04    0.106E-04
RMM:  47    -0.879517636702E+03    0.10315E-05    0.10170E-05   574   0.292E-04    0.115E-04
RMM:  48    -0.879517635759E+03    0.94320E-06    0.93115E-06   562   0.292E-04
   1 F= -.87951764E+03 E0= -.87949374E+03  d E =-.879518E+03
 curvature:   0.00 expect dE= 0.000E+00 dE for cont linesearch  0.000E+00
 trial: gam= 0.00000 g(F)=  0.324E-37 g(S)=  0.457E-01 ort = 0.000E+00 (trialstep = 0.100E+01)
 search vector abs. value=  0.457E-01
 bond charge predicted
       N       E                     dE             d eps       ncg     rms          rms(c)
DAV:   1    -0.879983949746E+03   -0.46631E+00   -0.12756E+01  4728   0.113E+01    0.534E+00
RMM:   2    -0.879501640282E+03    0.48231E+00   -0.42117E+00  4152   0.566E+00    0.658E-01
RMM:   3    -0.879499291014E+03    0.23493E-02   -0.33946E-01  4612   0.106E+00    0.533E-01
RMM:   4    -0.879492319764E+03    0.69712E-02   -0.13970E-01  4144   0.123E+00    0.579E-01
RMM:   5    -0.879495722093E+03   -0.34023E-02   -0.20970E-02  4230   0.342E-01    0.108E+00
RMM:   6    -0.879488316301E+03    0.74058E-02   -0.29337E-02  4155   0.477E-01    0.855E-02
RMM:   7    -0.879488486284E+03   -0.16998E-03   -0.38530E-03  5299   0.706E-02    0.108E-01
RMM:   8    -0.879488381919E+03    0.10437E-03   -0.36459E-04  4191   0.539E-02    0.617E-02
RMM:   9    -0.879488381804E+03    0.11444E-06   -0.42675E-04  4183   0.508E-02    0.101E-02
RMM:  10    -0.879488387734E+03   -0.59298E-05   -0.76354E-05  4990   0.796E-03    0.678E-03
RMM:  11    -0.879488385831E+03    0.19034E-05   -0.22602E-06  2599   0.403E-03    0.545E-03
RMM:  12    -0.879488383565E+03    0.22661E-05   -0.43089E-06  3244   0.605E-03    0.399E-03
RMM:  13    -0.879488385669E+03   -0.21042E-05   -0.55643E-07  2228   0.386E-03    0.858E-04
RMM:  14    -0.879488386151E+03   -0.48186E-06    0.28970E-08  2017   0.652E-04
   2 F= -.87948839E+03 E0= -.87946626E+03  d E =0.292496E-01
 trial-energy change:    0.029250  1 .order    0.023777   -0.045709    0.093263
 step:   0.2812(harm=  0.3289)  dis= 0.00000  next Energy=  -879.523940 (dE=-0.630E-02)
 bond charge predicted
       N       E                     dE             d eps       ncg     rms          rms(c)
DAV:   1    -0.879778654189E+03   -0.29027E+00   -0.65357E+00  4568   0.808E+00    0.380E+00
RMM:   2    -0.879531406348E+03    0.24725E+00   -0.21151E+00  4153   0.403E+00    0.474E-01
RMM:   3    -0.879531742120E+03   -0.33577E-03   -0.17707E-01  4625   0.748E-01    0.376E-01
RMM:   4    -0.879528125968E+03    0.36162E-02   -0.69824E-02  4144   0.875E-01    0.365E-01
RMM:   5    -0.879530059843E+03   -0.19339E-02   -0.14403E-02  4168   0.320E-01    0.859E-01
RMM:   6    -0.879526396278E+03    0.36636E-02   -0.84288E-03  4168   0.253E-01    0.772E-02
RMM:   7    -0.879526333982E+03    0.62297E-04   -0.12944E-03  5354   0.446E-02    0.730E-02
RMM:   8    -0.879526240411E+03    0.93570E-04   -0.14192E-04  4193   0.328E-02    0.426E-02
RMM:   9    -0.879526179618E+03    0.60793E-04   -0.23783E-04  4189   0.381E-02    0.545E-03
RMM:  10    -0.879526182875E+03   -0.32566E-05   -0.37124E-05  4370   0.562E-03    0.559E-03
RMM:  11    -0.879526185735E+03   -0.28599E-05   -0.18331E-06  2294   0.422E-03    0.411E-03
RMM:  12    -0.879526185745E+03   -0.98808E-08   -0.77343E-07  2238   0.208E-03
   3 F= -.87952619E+03 E0= -.87950283E+03  d E =-.854999E-02
 curvature:  -0.16 expect dE=-0.792E-03 dE for cont linesearch -0.792E-03
 ZBRENT: interpolating
 opt :   0.3801  next Energy=  -879.526921 (dE=-0.929E-02)
 bond charge predicted
       N       E                     dE             d eps       ncg     rms          rms(c)
DAV:   1    -0.879529981490E+03   -0.37958E-02   -0.12385E-01  4680   0.112E+00    0.528E-01
RMM:   2    -0.879525162729E+03    0.48188E-02   -0.40918E-02  4153   0.560E-01    0.655E-02
RMM:   3    -0.879525131463E+03    0.31265E-04   -0.33949E-03  4594   0.106E-01    0.659E-02
RMM:   4    -0.879525141900E+03   -0.10437E-04   -0.40910E-04  4174   0.551E-02    0.124E-01
RMM:   5    -0.879525064349E+03    0.77551E-04   -0.86206E-04  4145   0.919E-02    0.466E-02
RMM:   6    -0.879525023562E+03    0.40787E-04   -0.24879E-04  4131   0.491E-02    0.764E-03
RMM:   7    -0.879525027785E+03   -0.42237E-05   -0.21558E-05  3989   0.576E-03    0.897E-03
RMM:   8    -0.879525031843E+03   -0.40580E-05   -0.49849E-06  3213   0.700E-03    0.283E-03
RMM:   9    -0.879525034563E+03   -0.27195E-05   -0.84660E-07  2234   0.176E-03    0.519E-04
RMM:  10    -0.879525034996E+03   -0.43282E-06   -0.31560E-07  2200   0.112E-03
   4 F= -.87952503E+03 E0= -.87950185E+03  d E =-.739924E-02
 curvature:  -0.15 expect dE=-0.224E-02 dE for cont linesearch -0.224E-02
 ZBRENT: interpolating
 opt :   0.3172  next Energy=  -879.526454 (dE=-0.882E-02)
 bond charge predicted
       N       E                     dE             d eps       ncg     rms          rms(c)
DAV:   1    -0.879528279608E+03   -0.32450E-02   -0.49682E-02  4600   0.708E-01    0.334E-01
RMM:   2    -0.879526448117E+03    0.18315E-02   -0.16339E-02  4153   0.354E-01    0.417E-02
RMM:   3    -0.879526469278E+03   -0.21161E-04   -0.13675E-03  4595   0.670E-02    0.471E-02
RMM:   4    -0.879526466515E+03    0.27624E-05   -0.13921E-04  4221   0.304E-02    0.679E-02
RMM:   5    -0.879526430025E+03    0.36490E-04   -0.39572E-04  4144   0.627E-02    0.293E-02
RMM:   6    -0.879526417485E+03    0.12540E-04   -0.94334E-05  4095   0.309E-02    0.458E-03
RMM:   7    -0.879526415844E+03    0.16414E-05   -0.56454E-06  2816   0.348E-03    0.416E-03
RMM:   8    -0.879526412388E+03    0.34557E-05   -0.65628E-07  2230   0.189E-03    0.213E-03
RMM:   9    -0.879526410578E+03    0.18106E-05   -0.91908E-07  2230   0.267E-03    0.546E-04
RMM:  10    -0.879526410674E+03   -0.96836E-07   -0.23692E-07  2224   0.159E-03
   5 F= -.87952641E+03 E0= -.87950312E+03  d E =-.877492E-02
 curvature:  -0.02 expect dE=-0.111E-03 dE for cont linesearch -0.111E-03
 ZBRENT: interpolating
 opt :   0.2981  next Energy=  -879.526312 (dE=-0.868E-02)
 bond charge predicted
       N       E                     dE             d eps       ncg     rms          rms(c)
DAV:   1    -0.879526582397E+03   -0.17182E-03   -0.46544E-03  4632   0.217E-01    0.102E-01
RMM:   2    -0.879526423739E+03    0.15866E-03   -0.15319E-03  4153   0.108E-01    0.127E-02
RMM:   3    -0.879526430196E+03   -0.64576E-05   -0.12931E-04  4533   0.207E-02    0.173E-02
RMM:   4    -0.879526429034E+03    0.11618E-05   -0.11465E-05  3884   0.849E-03    0.170E-02
RMM:   5    -0.879526424608E+03    0.44261E-05   -0.39766E-05  4144   0.199E-02    0.879E-03
RMM:   6    -0.879526423969E+03    0.63881E-06   -0.78571E-06  3803   0.904E-03
   6 F= -.87952642E+03 E0= -.87950309E+03  d E =-.878821E-02
 curvature:  -0.02 expect dE=-0.702E-04 dE for cont linesearch -0.702E-04
 ZBRENT: bisectioning
 opt :   0.3077  next Energy=  -879.526536 (dE=-0.890E-02)
 bond charge predicted
       N       E                     dE             d eps       ncg     rms          rms(c)
DAV:   1    -0.879526551008E+03   -0.12640E-03   -0.11573E-03  4698   0.107E-01    0.520E-02
RMM:   2    -0.879526495245E+03    0.55762E-04   -0.39909E-04  4153   0.552E-02    0.658E-03
RMM:   3    -0.879526493075E+03    0.21708E-05   -0.35770E-05  4476   0.111E-02    0.154E-02
RMM:   4    -0.879526491917E+03    0.11573E-05   -0.29653E-06  2479   0.479E-03    0.576E-03
RMM:   5    -0.879526491957E+03   -0.40185E-07   -0.96455E-06  4057   0.982E-03
   7 F= -.87952649E+03 E0= -.87950317E+03  d E =-.885620E-02
 curvature:  -0.03 expect dE=-0.553E-06 dE for cont linesearch -0.553E-06
 trial: gam=-0.01877 g(F)=  0.316E-37 g(S)=  0.167E-04 ort = 0.874E-03 (trialstep = 0.862E+00)
 search vector abs. value=  0.622E-08
 reached required accuracy - stopping structural energy minimisation
