 vasp.5.4.4.18Apr17-6-g9f103f2a35 (build Aug 17 2017 06:00:38) complex          
  
 executed on             LinuxIFC date 2019.07.12  15:10:52
 running on    8 total cores
 distrk:  each k-point on    8 cores,    1 groups
 distr:  one band on NCORES_PER_BAND=   4 cores,    2 groups


--------------------------------------------------------------------------------------------------------


 INCAR:
 POTCAR:   PAW_PBE Fe 06Sep2000                   
 POTCAR:   PAW_PBE Fe 06Sep2000                   
   VRHFIN =Fe:  d7 s1                                                           
   LEXCH  = PE                                                                  
   EATOM  =   594.4687 eV,   43.6922 Ry                                         
                                                                                
   TITEL  = PAW_PBE Fe 06Sep2000                                                
   LULTRA =        F    use ultrasoft PP ?                                      
   IUNSCR =        1    unscreen: 0-lin 1-nonlin 2-no                           
   RPACOR =    2.000    partial core radius                                     
   POMASS =   55.847; ZVAL   =    8.000    mass and valenz                      
   RCORE  =    2.300    outmost cutoff radius                                   
   RWIGS  =    2.460; RWIGS  =    1.302    wigner-seitz radius (au A)           
   ENMAX  =  267.883; ENMIN  =  200.912 eV                                      
   RCLOC  =    1.701    cutoff for local pot                                    
   LCOR   =        T    correct aug charges                                     
   LPAW   =        T    paw PP                                                  
   EAUG   =  511.368                                                            
   DEXC   =    -.022                                                            
   RMAX   =    2.817    core radius for proj-oper                               
   RAUG   =    1.300    factor for augmentation sphere                          
   RDEP   =    2.442    radius for radial grids                                 
   QCUT   =   -4.437; QGAM   =    8.874    optimization parameters              
                                                                                
   Description                                                                  
     l     E      TYP  RCUT    TYP  RCUT                                        
     2   .000     23  2.300                                                     
     2   .000     23  2.300                                                     
     0   .000     23  2.300                                                     
     0   .000     23  2.300                                                     
     1  -.200     23  2.300                                                     
     1   .000     23  2.300                                                     
     3   .000      7   .000                                                     
  local pseudopotential read in
  partial core-charges read in
  atomic valenz-charges read in
  non local Contribution for L=           2  read in
    real space projection operators read in
  non local Contribution for L=           2  read in
    real space projection operators read in
  non local Contribution for L=           0  read in
    real space projection operators read in
  non local Contribution for L=           0  read in
    real space projection operators read in
  non local Contribution for L=           1  read in
    real space projection operators read in
  non local Contribution for L=           1  read in
    real space projection operators read in
    PAW grid and wavefunctions read in
 
   number of l-projection  operators is LMAX  =           6
   number of lm-projection operators is LMMAX =          18
 
 Optimization of the real space projectors (new method)

 maximal supplied QI-value         = 16.25
 optimisation between [QCUT,QGAM] = [ 13.49, 26.98] = [ 50.95,203.80] Ry 
 Optimized for a Real-space Cutoff    1.32 Angstroem

   l    n(q)    QCUT    max X(q) W(low)/X(q) W(high)/X(q)  e(spline) 
   2     10    13.489     4.378    0.17E-04    0.44E-04    0.44E-07
   2     10    13.489    23.237    0.41E-03    0.56E-03    0.31E-06
   0     11    13.489    17.641    0.14E-04    0.42E-05    0.68E-07
   0     11    13.489    50.908    0.74E-04    0.59E-05    0.59E-06
   1     10    13.489     6.148    0.34E-04    0.25E-04    0.33E-07
   1     10    13.489     8.345    0.94E-04    0.12E-03    0.18E-06
 PAW_PBE Fe 06Sep2000                   :
 energy of atom  1       EATOM= -594.4687
 kinetic energy error for atom=    0.0006 (will be added to EATOM!!)
 
 
 POSCAR: fcc_Fe_CON_333                          
  positions in direct lattice
  velocities in cartesian coordinates
 exchange correlation table for  LEXCH =        8
   RHO(1)=    0.500       N(1)  =     2000
   RHO(2)=  100.500       N(2)  =     4000
 


--------------------------------------------------------------------------------------------------------


 ion  position               nearest neighbor table
   1  0.000  0.000  0.000-   2 2.44   3 2.44   4 2.44  11 2.44  12 2.44  26 2.44  28 2.44  74 2.44
                            75 2.44  36 2.44  83 2.44  98 2.44
   2  0.000  0.167  0.167-  49 2.44  37 2.44  13 2.44  40 2.44  15 2.44  48 2.44  23 2.44   3 2.44
                             4 2.44   1 2.44  12 2.44  11 2.44
   3  0.167  0.000  0.167-  41 2.44  37 2.44   5 2.44  40 2.44   6 2.44  30 2.44  64 2.44   2 2.44
                             4 2.44   1 2.44  28 2.44  26 2.44
   4  0.167  0.167  0.000-  17 2.44  13 2.44   5 2.44  15 2.44   6 2.44  78 2.44  87 2.44   2 2.44
                             3 2.44   1 2.44  74 2.44  75 2.44
   5  0.333  0.000  0.000-   3 2.44   4 2.44  28 2.44  75 2.44   6 2.44   7 2.44   8 2.44  30 2.44
                            78 2.44  32 2.44  79 2.44 102 2.44
   6  0.333  0.167  0.167-  15 2.44  40 2.44  53 2.44  17 2.44  19 2.44   4 2.44  41 2.44  44 2.44
                             3 2.44   7 2.44   8 2.44   5 2.44
   7  0.500  0.000  0.167-  41 2.44  44 2.44  45 2.44  68 2.44   6 2.44   5 2.44   8 2.44  10 2.44
                            30 2.44   9 2.44  32 2.44  34 2.44
   8  0.500  0.167  0.000-  17 2.44  19 2.44  21 2.44  91 2.44   6 2.44   5 2.44   7 2.44  78 2.44
                            10 2.44  79 2.44   9 2.44  82 2.44
   9  0.667  0.000  0.000-  11 2.44  12 2.44  36 2.44  83 2.44  10 2.44  82 2.44  34 2.44   8 2.44
                             7 2.44 106 2.44  79 2.44  32 2.44
  10  0.667  0.167  0.167-  23 2.44  48 2.44  57 2.44  12 2.44  11 2.44  21 2.44  45 2.44  44 2.44
                            19 2.44   9 2.44   7 2.44   8 2.44
  11  0.833  0.000  0.167-  45 2.44   9 2.44  10 2.44  34 2.44  48 2.44  37 2.44  72 2.44  12 2.44
                             2 2.44  36 2.44   1 2.44  26 2.44
  12  0.833  0.167  0.000-  21 2.44   9 2.44  10 2.44  82 2.44  23 2.44  13 2.44  95 2.44  11 2.44
                             1 2.44  83 2.44   2 2.44  74 2.44
  13  0.000  0.333  0.000-   2 2.44   4 2.44  12 2.44  74 2.44  15 2.44  16 2.44  14 2.44  23 2.44
                            87 2.44  86 2.44  24 2.44  95 2.44
  14  0.000  0.500  0.167-  49 2.44  52 2.44  60 2.44  61 2.44  15 2.44  13 2.44  16 2.44  23 2.44
                            27 2.44  25 2.44  24 2.44  35 2.44
  15  0.167  0.333  0.167-   6 2.44  40 2.44  53 2.44  17 2.44  18 2.44   4 2.44  49 2.44  52 2.44
                             2 2.44  13 2.44  14 2.44  16 2.44
  16  0.167  0.500  0.000-  17 2.44  18 2.44  29 2.44  90 2.44  15 2.44  14 2.44  13 2.44  87 2.44
                            27 2.44  25 2.44  86 2.44  99 2.44
  17  0.333  0.333  0.000-   4 2.44   8 2.44  16 2.44  15 2.44   6 2.44  78 2.44  87 2.44  20 2.44
                            18 2.44  19 2.44  90 2.44  91 2.44
  18  0.333  0.500  0.167-  52 2.44  16 2.44  56 2.44  53 2.44  15 2.44  27 2.44  65 2.44  20 2.44
                            17 2.44  19 2.44  29 2.44  31 2.44
  19  0.500  0.333  0.167-  44 2.44   8 2.44  56 2.44  53 2.44   6 2.44  10 2.44  57 2.44  18 2.44
                            20 2.44  17 2.44  21 2.44  22 2.44
  20  0.500  0.500  0.000-  17 2.44  18 2.44  19 2.44  21 2.44  22 2.44  29 2.44  31 2.44  90 2.44
                            91 2.44  33 2.44  94 2.44 103 2.44
  21  0.667  0.333  0.000-  12 2.44  24 2.44  23 2.44  95 2.44  10 2.44   8 2.44  82 2.44  22 2.44
                            20 2.44  94 2.44  19 2.44  91 2.44
  22  0.667  0.500  0.167-  60 2.44  24 2.44  23 2.44  35 2.44  57 2.44  56 2.44  69 2.44  21 2.44
                            33 2.44  20 2.44  19 2.44  31 2.44
  23  0.833  0.333  0.167-  10 2.44  57 2.44  48 2.44  21 2.44  22 2.44  12 2.44  60 2.44   2 2.44
                            49 2.44  24 2.44  14 2.44  13 2.44
  24  0.833  0.500  0.000-  21 2.44  22 2.44  33 2.44  94 2.44  23 2.44  35 2.44  95 2.44  14 2.44
                            13 2.44 107 2.44  86 2.44  25 2.44
  25  0.000  0.667  0.000-  26 2.44  28 2.44  36 2.44  98 2.44  27 2.44  35 2.44  99 2.44  16 2.44
                            14 2.44 107 2.44  86 2.44  24 2.44
  26  0.000  0.833  0.167-  61 2.44  25 2.44  27 2.44  35 2.44  64 2.44  37 2.44  72 2.44  28 2.44
                             3 2.44  36 2.44   1 2.44  11 2.44
  27  0.167  0.667  0.167-  30 2.44  64 2.44  65 2.44  28 2.44  26 2.44  29 2.44  61 2.44  52 2.44
                            18 2.44  25 2.44  14 2.44  16 2.44
  28  0.167  0.833  0.000-  29 2.44  25 2.44  27 2.44  99 2.44  30 2.44   5 2.44 102 2.44  26 2.44
                            98 2.44   1 2.44   3 2.44  75 2.44
  29  0.333  0.667  0.000-  28 2.44  32 2.44  30 2.44 102 2.44  27 2.44  16 2.44  99 2.44  31 2.44
                            20 2.44  18 2.44 103 2.44  90 2.44
  30  0.333  0.833  0.167-  27 2.44  65 2.44  64 2.44  29 2.44  31 2.44  28 2.44  68 2.44  41 2.44
                             3 2.44  32 2.44   7 2.44   5 2.44
  31  0.500  0.667  0.167-  68 2.44  32 2.44  30 2.44  34 2.44  65 2.44  56 2.44  69 2.44  29 2.44
                            33 2.44  20 2.44  18 2.44  22 2.44
  32  0.500  0.833  0.000-  29 2.44  31 2.44  33 2.44 103 2.44  30 2.44 102 2.44  34 2.44   7 2.44
                             5 2.44 106 2.44  79 2.44   9 2.44
  33  0.667  0.667  0.000-  36 2.44  35 2.44  34 2.44  32 2.44  24 2.44 106 2.44 107 2.44  22 2.44
                            31 2.44 103 2.44  20 2.44  94 2.44
  34  0.667  0.833  0.167-  35 2.44  69 2.44  72 2.44  33 2.44  36 2.44  31 2.44  11 2.44  45 2.44
                            68 2.44  32 2.44   9 2.44   7 2.44
  35  0.833  0.667  0.167-  34 2.44  69 2.44  72 2.44  33 2.44  36 2.44  26 2.44  22 2.44  60 2.44
                            61 2.44  24 2.44  25 2.44  14 2.44
  36  0.833  0.833  0.000-  33 2.44  34 2.44  35 2.44  25 2.44   9 2.44 106 2.44 107 2.44  26 2.44
                            11 2.44  98 2.44   1 2.44  83 2.44
  37  0.000  0.000  0.333-   2 2.44   3 2.44  11 2.44  26 2.44  40 2.44  39 2.44  38 2.44  48 2.44
                            64 2.44  62 2.44  47 2.44  72 2.44
  38  0.000  0.167  0.500-  49 2.44  51 2.44  59 2.44  85 2.44  40 2.44  39 2.44  37 2.44  76 2.44
                            48 2.44  47 2.44  73 2.44  84 2.44
  39  0.167  0.000  0.500-  41 2.44  42 2.44  66 2.44  77 2.44  40 2.44  38 2.44  37 2.44  76 2.44
                            64 2.44  62 2.44  73 2.44 100 2.44
  40  0.167  0.167  0.333-   6 2.44  15 2.44  53 2.44   3 2.44  41 2.44  42 2.44  49 2.44  51 2.44
                             2 2.44  39 2.44  37 2.44  38 2.44
  41  0.333  0.000  0.333-   3 2.44   7 2.44  39 2.44   6 2.44  40 2.44  30 2.44  64 2.44  43 2.44
                            44 2.44  42 2.44  66 2.44  68 2.44
  42  0.333  0.167  0.500-  51 2.44  39 2.44  55 2.44  53 2.44  40 2.44  76 2.44  89 2.44  44 2.44
                            41 2.44  43 2.44  80 2.44  77 2.44
  43  0.500  0.000  0.500-  41 2.44  42 2.44  44 2.44  45 2.44  46 2.44  66 2.44  68 2.44  77 2.44
                            80 2.44  70 2.44  81 2.44 104 2.44
  44  0.500  0.167  0.333-  19 2.44   7 2.44  55 2.44  53 2.44   6 2.44  10 2.44  57 2.44  41 2.44
                            42 2.44  43 2.44  46 2.44  45 2.44
  45  0.667  0.000  0.333-  11 2.44  47 2.44  48 2.44  72 2.44  10 2.44   7 2.44  34 2.44  46 2.44
                            43 2.44  70 2.44  44 2.44  68 2.44
  46  0.667  0.167  0.500-  59 2.44  47 2.44  48 2.44  84 2.44  57 2.44  55 2.44  93 2.44  45 2.44
                            81 2.44  43 2.44  44 2.44  80 2.44
  47  0.833  0.000  0.500-  45 2.44  46 2.44  70 2.44  81 2.44  48 2.44  72 2.44  84 2.44  38 2.44
                            37 2.44 108 2.44  73 2.44  62 2.44
  48  0.833  0.167  0.333-  10 2.44  57 2.44  23 2.44  46 2.44  45 2.44  11 2.44  59 2.44   2 2.44
                            49 2.44  47 2.44  37 2.44  38 2.44
  49  0.000  0.333  0.333-   2 2.44  14 2.44  38 2.44  15 2.44  40 2.44  23 2.44  48 2.44  50 2.44
                            51 2.44  52 2.44  59 2.44  60 2.44
  50  0.000  0.500  0.500-  49 2.44  51 2.44  52 2.44  59 2.44  60 2.44  61 2.44  63 2.44  85 2.44
                            88 2.44  71 2.44  96 2.44  97 2.44
  51  0.167  0.333  0.500-  42 2.44  38 2.44  54 2.44  53 2.44  40 2.44  76 2.44  89 2.44  50 2.44
                            52 2.44  49 2.44  88 2.44  85 2.44
  52  0.167  0.500  0.333-  18 2.44  14 2.44  54 2.44  53 2.44  15 2.44  27 2.44  65 2.44  49 2.44
                            50 2.44  51 2.44  63 2.44  61 2.44
  53  0.333  0.333  0.333-   6 2.44  15 2.44  40 2.44  19 2.44  18 2.44  42 2.44  44 2.44  51 2.44
                            52 2.44  54 2.44  55 2.44  56 2.44
  54  0.333  0.500  0.500-  51 2.44  52 2.44  63 2.44  88 2.44  53 2.44  55 2.44  56 2.44  65 2.44
                            89 2.44  67 2.44  92 2.44 101 2.44
  55  0.500  0.333  0.500-  42 2.44  44 2.44  46 2.44  80 2.44  53 2.44  56 2.44  54 2.44  57 2.44
                            89 2.44  58 2.44  92 2.44  93 2.44
  56  0.500  0.500  0.333-  18 2.44  19 2.44  22 2.44  31 2.44  53 2.44  54 2.44  55 2.44  57 2.44
                            65 2.44  58 2.44  67 2.44  69 2.44
  57  0.667  0.333  0.333-  23 2.44  48 2.44  10 2.44  59 2.44  60 2.44  46 2.44  22 2.44  19 2.44
                            44 2.44  58 2.44  56 2.44  55 2.44
  58  0.667  0.500  0.500-  59 2.44  60 2.44  71 2.44  96 2.44  57 2.44  93 2.44  69 2.44  56 2.44
                            55 2.44 105 2.44  92 2.44  67 2.44
  59  0.833  0.333  0.500-  46 2.44  58 2.44  57 2.44  93 2.44  48 2.44  38 2.44  84 2.44  60 2.44
                            50 2.44  49 2.44  96 2.44  85 2.44
  60  0.833  0.500  0.333-  22 2.44  58 2.44  57 2.44  69 2.44  23 2.44  14 2.44  35 2.44  59 2.44
                            49 2.44  50 2.44  71 2.44  61 2.44
  61  0.000  0.667  0.333-  26 2.44  62 2.44  64 2.44  72 2.44  27 2.44  14 2.44  35 2.44  63 2.44
                            50 2.44  71 2.44  52 2.44  60 2.44
  62  0.000  0.833  0.500-  61 2.44  63 2.44  71 2.44  97 2.44  64 2.44  72 2.44 100 2.44  39 2.44
                            37 2.44 108 2.44  73 2.44  47 2.44
  63  0.167  0.667  0.500-  66 2.44  62 2.44  64 2.44 100 2.44  65 2.44  54 2.44 101 2.44  61 2.44
                            97 2.44  50 2.44  52 2.44  88 2.44
  64  0.167  0.833  0.333-  27 2.44  65 2.44  30 2.44  63 2.44  61 2.44  26 2.44  66 2.44   3 2.44
                            41 2.44  62 2.44  37 2.44  39 2.44
  65  0.333  0.667  0.333-  30 2.44  64 2.44  27 2.44  66 2.44  68 2.44  63 2.44  31 2.44  18 2.44
                            52 2.44  67 2.44  56 2.44  54 2.44
  66  0.333  0.833  0.500-  63 2.44  67 2.44  65 2.44 101 2.44  64 2.44  39 2.44 100 2.44  68 2.44
                            43 2.44  41 2.44 104 2.44  77 2.44
  67  0.500  0.667  0.500-  66 2.44  68 2.44  70 2.44 104 2.44  65 2.44 101 2.44  69 2.44  56 2.44
                            54 2.44 105 2.44  92 2.44  58 2.44
  68  0.500  0.833  0.333-  31 2.44  67 2.44  65 2.44  69 2.44  30 2.44   7 2.44  34 2.44  66 2.44
                            41 2.44  43 2.44  70 2.44  45 2.44
  69  0.667  0.667  0.333-  72 2.44  35 2.44  34 2.44  71 2.44  70 2.44  68 2.44  60 2.44  31 2.44
                            22 2.44  58 2.44  67 2.44  56 2.44
  70  0.667  0.833  0.500-  71 2.44  69 2.44  72 2.44  67 2.44  47 2.44 105 2.44 108 2.44  68 2.44
                            45 2.44 104 2.44  43 2.44  81 2.44
  71  0.833  0.667  0.500-  70 2.44  69 2.44  72 2.44  62 2.44  58 2.44 105 2.44 108 2.44  60 2.44
                            61 2.44  97 2.44  50 2.44  96 2.44
  72  0.833  0.833  0.333-  69 2.44  35 2.44  34 2.44  70 2.44  71 2.44  61 2.44  45 2.44  26 2.44
                            11 2.44  62 2.44  47 2.44  37 2.44
  73  0.000  0.000  0.667-  74 2.44  75 2.44  83 2.44  98 2.44  76 2.44  84 2.44 100 2.44  39 2.44
                            38 2.44 108 2.44  47 2.44  62 2.44
  74  0.000  0.167  0.833-  85 2.44  73 2.44  76 2.44  84 2.44  87 2.44  13 2.44  95 2.44  75 2.44
                             4 2.44  83 2.44   1 2.44  12 2.44
  75  0.167  0.000  0.833-  77 2.44  73 2.44  76 2.44 100 2.44  78 2.44   5 2.44 102 2.44  74 2.44
                            98 2.44   1 2.44   4 2.44  28 2.44
  76  0.167  0.167  0.667-  78 2.44  87 2.44  89 2.44  75 2.44  74 2.44  77 2.44  85 2.44  51 2.44
                            42 2.44  73 2.44  38 2.44  39 2.44
  77  0.333  0.000  0.667-  75 2.44  79 2.44  78 2.44 102 2.44  76 2.44  39 2.44 100 2.44  80 2.44
                            43 2.44  42 2.44 104 2.44  66 2.44
  78  0.333  0.167  0.833-  76 2.44  89 2.44  87 2.44  77 2.44  80 2.44  75 2.44  91 2.44  17 2.44
                             4 2.44  79 2.44   8 2.44   5 2.44
  79  0.500  0.000  0.833-  77 2.44  80 2.44  81 2.44 104 2.44  78 2.44 102 2.44  82 2.44   8 2.44
                             5 2.44 106 2.44   9 2.44  32 2.44
  80  0.500  0.167  0.667-  91 2.44  79 2.44  78 2.44  82 2.44  89 2.44  55 2.44  93 2.44  77 2.44
                            43 2.44  81 2.44  42 2.44  46 2.44
  81  0.667  0.000  0.667-  83 2.44  82 2.44  84 2.44  79 2.44  47 2.44 106 2.44 108 2.44  80 2.44
                            46 2.44 104 2.44  70 2.44  43 2.44
  82  0.667  0.167  0.833-  84 2.44  93 2.44  95 2.44  83 2.44  81 2.44  80 2.44  12 2.44  21 2.44
                            91 2.44  79 2.44   9 2.44   8 2.44
  83  0.833  0.000  0.833-  81 2.44  82 2.44  84 2.44  73 2.44   9 2.44 106 2.44 108 2.44  74 2.44
                            12 2.44  98 2.44  36 2.44   1 2.44
  84  0.833  0.167  0.667-  82 2.44  93 2.44  95 2.44  81 2.44  83 2.44  74 2.44  46 2.44  59 2.44
                            85 2.44  73 2.44  47 2.44  38 2.44
  85  0.000  0.333  0.667-  74 2.44  86 2.44  87 2.44  95 2.44  76 2.44  38 2.44  84 2.44  88 2.44
                            51 2.44  50 2.44  96 2.44  59 2.44
  86  0.000  0.500  0.833-  85 2.44  88 2.44  96 2.44  97 2.44  87 2.44  95 2.44  99 2.44  16 2.44
                            13 2.44 107 2.44  24 2.44  25 2.44
  87  0.167  0.333  0.833-  76 2.44  89 2.44  78 2.44  88 2.44  85 2.44  74 2.44  90 2.44  17 2.44
                             4 2.44  86 2.44  16 2.44  13 2.44
  88  0.167  0.500  0.667-  90 2.44  86 2.44  87 2.44  99 2.44  89 2.44  54 2.44 101 2.44  85 2.44
                            97 2.44  50 2.44  51 2.44  63 2.44
  89  0.333  0.333  0.667-  78 2.44  87 2.44  76 2.44  90 2.44  91 2.44  80 2.44  88 2.44  51 2.44
                            42 2.44  92 2.44  54 2.44  55 2.44
  90  0.333  0.500  0.833-  88 2.44  92 2.44  89 2.44 101 2.44  87 2.44  16 2.44  99 2.44  91 2.44
                            20 2.44  17 2.44 103 2.44  29 2.44
  91  0.500  0.333  0.833-  80 2.44  92 2.44  89 2.44  93 2.44  78 2.44   8 2.44  82 2.44  90 2.44
                            20 2.44  17 2.44  94 2.44  21 2.44
  92  0.500  0.500  0.667-  90 2.44  91 2.44  94 2.44 103 2.44  89 2.44 101 2.44  93 2.44  55 2.44
                            54 2.44 105 2.44  58 2.44  67 2.44
  93  0.667  0.333  0.667-  95 2.44  84 2.44  82 2.44  94 2.44  96 2.44  91 2.44  59 2.44  46 2.44
                            80 2.44  92 2.44  58 2.44  55 2.44
  94  0.667  0.500  0.833-  96 2.44  95 2.44  93 2.44  92 2.44  24 2.44 105 2.44 107 2.44  21 2.44
                            91 2.44 103 2.44  33 2.44  20 2.44
  95  0.833  0.333  0.833-  93 2.44  84 2.44  82 2.44  94 2.44  96 2.44  85 2.44  21 2.44  12 2.44
                            74 2.44  86 2.44  24 2.44  13 2.44
  96  0.833  0.500  0.667-  94 2.44  93 2.44  95 2.44  86 2.44  58 2.44 105 2.44 107 2.44  59 2.44
                            85 2.44  97 2.44  71 2.44  50 2.44
  97  0.000  0.667  0.667-  98 2.44  99 2.44 100 2.44  86 2.44  62 2.44 107 2.44 108 2.44  88 2.44
                            63 2.44  96 2.44  50 2.44  71 2.44
  98  0.000  0.833  0.833-  97 2.44  99 2.44 100 2.44  73 2.44  25 2.44 107 2.44 108 2.44  75 2.44
                            28 2.44  83 2.44   1 2.44  36 2.44
  99  0.167  0.667  0.833- 100 2.44 101 2.44 102 2.44  98 2.44  97 2.44  88 2.44  28 2.44  90 2.44
                            29 2.44  86 2.44  25 2.44  16 2.44
 100  0.167  0.833  0.667-  99 2.44 101 2.44 102 2.44  98 2.44  97 2.44  75 2.44  63 2.44  77 2.44
                            66 2.44  73 2.44  62 2.44  39 2.44
 101  0.333  0.667  0.667- 102 2.44 100 2.44  99 2.44 103 2.44 104 2.44  90 2.44  66 2.44  63 2.44
                            88 2.44  92 2.44  67 2.44  54 2.44
 102  0.333  0.833  0.833- 101 2.44 100 2.44  99 2.44 103 2.44 104 2.44  77 2.44  29 2.44  28 2.44
                            75 2.44  79 2.44  32 2.44   5 2.44
 103  0.500  0.667  0.833- 104 2.44 102 2.44 101 2.44  92 2.44  32 2.44 105 2.44 106 2.44  29 2.44
                            90 2.44  94 2.44  20 2.44  33 2.44
 104  0.500  0.833  0.667- 103 2.44 102 2.44 101 2.44  79 2.44  67 2.44 105 2.44 106 2.44  66 2.44
                            77 2.44  81 2.44  43 2.44  70 2.44
 105  0.667  0.667  0.667- 106 2.44 107 2.44 108 2.44  96 2.44 103 2.44 104 2.44  70 2.44  71 2.44
                            94 2.44  67 2.44  92 2.44  58 2.44
 106  0.667  0.833  0.833- 105 2.44 107 2.44 108 2.44  83 2.44 103 2.44 104 2.44  33 2.44  36 2.44
                            81 2.44  32 2.44  79 2.44   9 2.44
 107  0.833  0.667  0.833- 105 2.44 106 2.44 108 2.44  96 2.44  97 2.44  98 2.44  33 2.44  36 2.44
                            94 2.44  25 2.44  86 2.44  24 2.44
 108  0.833  0.833  0.667- 105 2.44 106 2.44 107 2.44  83 2.44  97 2.44  98 2.44  70 2.44  71 2.44
                            81 2.44  62 2.44  73 2.44  47 2.44
 
  LATTYP: Found a simple cubic cell.
 ALAT       =    10.3348470474
  
  Lattice vectors:
  
 A1 = (  10.3348470474,   0.0000000000,   0.0000000000)
 A2 = (   0.0000000000,  10.3348470474,   0.0000000000)
 A3 = (   0.0000000000,   0.0000000000,  10.3348470474)


Analysis of symmetry for initial positions (statically):
=====================================================================
 Subroutine PRICEL returns following result:
 
  LATTYP: Found a simple cubic cell.
 ALAT       =     3.4449252899
  
  Lattice vectors:
  
 A1 = (   3.4449252899,   0.0000000000,   0.0000000000)
 A2 = (   0.0000000000,   3.4449252899,   0.0000000000)
 A3 = (   0.0000000000,   0.0000000000,   3.4449252443)
 
  27 primitive cells build up your supercell.
 

 Routine SETGRP: Setting up the symmetry group for a 
 simple cubic supercell.


 Subroutine GETGRP returns: Found 48 space group operations
 (whereof 48 operations were pure point group operations)
 out of a pool of 48 trial point group operations.


The static configuration has the point symmetry O_h .


Analysis of symmetry for dynamics (positions and initial velocities):
=====================================================================
 Subroutine PRICEL returns following result:
 
  LATTYP: Found a simple cubic cell.
 ALAT       =     3.4449252899
  
  Lattice vectors:
  
 A1 = (   3.4449252899,   0.0000000000,   0.0000000000)
 A2 = (   0.0000000000,   3.4449252899,   0.0000000000)
 A3 = (   0.0000000000,   0.0000000000,   3.4449252443)
 
  27 primitive cells build up your supercell.
 

 Routine SETGRP: Setting up the symmetry group for a 
 simple cubic supercell.


 Subroutine GETGRP returns: Found 48 space group operations
 (whereof 48 operations were pure point group operations)
 out of a pool of 48 trial point group operations.


The dynamic configuration has the point symmetry O_h .


 Subroutine INISYM returns: Found 48 space group operations
 (whereof 48 operations are pure point group operations),
 and found    27 'primitive' translations

 
 
 KPOINTS: pymatgen generated KPOINTS with grid den

Automatic generation of k-mesh.
Space group operators:
 irot       det(A)        alpha          n_x          n_y          n_z        tau_x        tau_y        tau_z
    1     1.000000     0.000000     1.000000     0.000000     0.000000     0.000000     0.000000     0.000000
    2    -1.000000     0.000000     1.000000     0.000000     0.000000     0.000000     0.000000     0.000000
    3     1.000000   120.000000    -0.577350    -0.577350    -0.577350     0.000000     0.000000     0.000000
    4    -1.000000   120.000000    -0.577350    -0.577350    -0.577350     0.000000     0.000000     0.000000
    5     1.000000   120.000000     0.577350     0.577350     0.577350     0.000000     0.000000     0.000000
    6    -1.000000   120.000000     0.577350     0.577350     0.577350     0.000000     0.000000     0.000000
    7     1.000000    90.000000     0.000000     0.000000    -1.000000     0.000000     0.000000     0.000000
    8    -1.000000    90.000000     0.000000     0.000000    -1.000000     0.000000     0.000000     0.000000
    9     1.000000   180.000000     0.000000     0.707107     0.707107     0.000000     0.000000     0.000000
   10    -1.000000   180.000000     0.000000     0.707107     0.707107     0.000000     0.000000     0.000000
   11     1.000000    90.000000     0.000000     1.000000     0.000000     0.000000     0.000000     0.000000
   12    -1.000000    90.000000     0.000000     1.000000     0.000000     0.000000     0.000000     0.000000
   13     1.000000   180.000000     0.000000     0.000000     1.000000     0.000000     0.000000     0.000000
   14    -1.000000   180.000000     0.000000     0.000000     1.000000     0.000000     0.000000     0.000000
   15     1.000000   120.000000    -0.577350     0.577350     0.577350     0.000000     0.000000     0.000000
   16    -1.000000   120.000000    -0.577350     0.577350     0.577350     0.000000     0.000000     0.000000
   17     1.000000   120.000000    -0.577350     0.577350    -0.577350     0.000000     0.000000     0.000000
   18    -1.000000   120.000000    -0.577350     0.577350    -0.577350     0.000000     0.000000     0.000000
   19     1.000000    90.000000     0.000000     0.000000     1.000000     0.000000     0.000000     0.000000
   20    -1.000000    90.000000     0.000000     0.000000     1.000000     0.000000     0.000000     0.000000
   21     1.000000    90.000000    -1.000000     0.000000     0.000000     0.000000     0.000000     0.000000
   22    -1.000000    90.000000    -1.000000     0.000000     0.000000     0.000000     0.000000     0.000000
   23     1.000000   180.000000     0.707107     0.000000     0.707107     0.000000     0.000000     0.000000
   24    -1.000000   180.000000     0.707107     0.000000     0.707107     0.000000     0.000000     0.000000
   25     1.000000   120.000000     0.577350    -0.577350     0.577350     0.000000     0.000000     0.000000
   26    -1.000000   120.000000     0.577350    -0.577350     0.577350     0.000000     0.000000     0.000000
   27     1.000000   120.000000    -0.577350    -0.577350     0.577350     0.000000     0.000000     0.000000
   28    -1.000000   120.000000    -0.577350    -0.577350     0.577350     0.000000     0.000000     0.000000
   29     1.000000   180.000000     1.000000     0.000000     0.000000     0.000000     0.000000     0.000000
   30    -1.000000   180.000000     1.000000     0.000000     0.000000     0.000000     0.000000     0.000000
   31     1.000000    90.000000     0.000000    -1.000000     0.000000     0.000000     0.000000     0.000000
   32    -1.000000    90.000000     0.000000    -1.000000     0.000000     0.000000     0.000000     0.000000
   33     1.000000   180.000000     0.707107     0.707107     0.000000     0.000000     0.000000     0.000000
   34    -1.000000   180.000000     0.707107     0.707107     0.000000     0.000000     0.000000     0.000000
   35     1.000000    90.000000     1.000000     0.000000     0.000000     0.000000     0.000000     0.000000
   36    -1.000000    90.000000     1.000000     0.000000     0.000000     0.000000     0.000000     0.000000
   37     1.000000   120.000000     0.577350    -0.577350    -0.577350     0.000000     0.000000     0.000000
   38    -1.000000   120.000000     0.577350    -0.577350    -0.577350     0.000000     0.000000     0.000000
   39     1.000000   180.000000     0.000000     1.000000     0.000000     0.000000     0.000000     0.000000
   40    -1.000000   180.000000     0.000000     1.000000     0.000000     0.000000     0.000000     0.000000
   41     1.000000   120.000000     0.577350     0.577350    -0.577350     0.000000     0.000000     0.000000
   42    -1.000000   120.000000     0.577350     0.577350    -0.577350     0.000000     0.000000     0.000000
   43     1.000000   180.000000     0.000000    -0.707107     0.707107     0.000000     0.000000     0.000000
   44    -1.000000   180.000000     0.000000    -0.707107     0.707107     0.000000     0.000000     0.000000
   45     1.000000   180.000000     0.707107    -0.707107     0.000000     0.000000     0.000000     0.000000
   46    -1.000000   180.000000     0.707107    -0.707107     0.000000     0.000000     0.000000     0.000000
   47     1.000000   180.000000     0.707107     0.000000    -0.707107     0.000000     0.000000     0.000000
   48    -1.000000   180.000000     0.707107     0.000000    -0.707107     0.000000     0.000000     0.000000
 
 Subroutine IBZKPT returns following result:
 ===========================================
 
 Found      4 irreducible k-points:
 
 Following reciprocal coordinates:
            Coordinates               Weight
  0.125000  0.125000  0.125000      8.000000
  0.375000  0.125000  0.125000     24.000000
  0.375000  0.375000  0.125000     24.000000
  0.375000  0.375000  0.375000      8.000000
 
 Following cartesian coordinates:
            Coordinates               Weight
  0.012095  0.012095  0.012095      8.000000
  0.036285  0.012095  0.012095     24.000000
  0.036285  0.036285  0.012095     24.000000
  0.036285  0.036285  0.036285      8.000000
 


--------------------------------------------------------------------------------------------------------




 Dimension of arrays:
   k-points           NKPTS =      4   k-points in BZ     NKDIM =      4   number of bands    NBANDS=    518
   number of dos      NEDOS =    301   number of ions     NIONS =    108
   non local maximal  LDIM  =      6   non local SUM 2l+1 LMDIM =     18
   total plane-waves  NPLWV = 373248
   max r-space proj   IRMAX =   3322   max aug-charges    IRDMAX=  12243
   dimension x,y,z NGX =    72 NGY =   72 NGZ =   72
   dimension x,y,z NGXF=   144 NGYF=  144 NGZF=  144
   support grid    NGXF=   144 NGYF=  144 NGZF=  144
   ions per type =             108
   NGX,Y,Z   is equivalent  to a cutoff of  11.58, 11.58, 11.58 a.u.
   NGXF,Y,Z  is equivalent  to a cutoff of  23.16, 23.16, 23.16 a.u.

 Based on PREC, I would recommend the following setting:
   dimension x,y,z NGX =    70 NGY =   70 NGZ =   70

 SYSTEM =  Opt                                     
 POSCAR =  fcc_Fe_CON_333                          

 Startparameter for this run:
   NWRITE =      2    write-flag & timer
   PREC   = normal    normal or accurate (medium, high low for compatibility)
   ISTART =      0    job   : 0-new  1-cont  2-samecut
   ICHARG =      2    charge: 1-file 2-atom 10-const
   ISPIN  =      1    spin polarized calculation?
   LNONCOLLINEAR =      F non collinear calculations
   LSORBIT =      F    spin-orbit coupling
   INIWAV =      1    electr: 0-lowe 1-rand  2-diag
   LASPH  =      F    aspherical Exc in radial PAW
   METAGGA=      F    non-selfconsistent MetaGGA calc.

 Electronic Relaxation 1
   ENCUT  =  700.0 eV  51.45 Ry    7.17 a.u.  22.30 22.30 22.30*2*pi/ulx,y,z
   ENINI  =  700.0     initial cutoff
   ENAUG  =  511.4 eV  augmentation charge cutoff
   NELM   =    400;   NELMIN=  2; NELMDL= -5     # of ELM steps 
   EDIFF  = 0.1E-05   stopping-criterion for ELM
   LREAL  =      T    real-space projection
   NLSPLINE    = F    spline interpolate recip. space projectors
   LCOMPAT=      F    compatible to vasp.4.4
   GGA_COMPAT  = T    GGA compatible to vasp.4.4-vasp.4.6
   LMAXPAW     = -100 max onsite density
   LMAXMIX     =    2 max onsite mixed and CHGCAR
   VOSKOWN=      0    Vosko Wilk Nusair interpolation
   ROPT   =   -0.00050
 Ionic relaxation
   EDIFFG = -.1E-01   stopping-criterion for IOM
   NSW    =    100    number of steps for IOM
   NBLOCK =      1;   KBLOCK =    100    inner block; outer block 
   IBRION =      2    ionic relax: 0-MD 1-quasi-New 2-CG
   NFREE  =      1    steps in history (QN), initial steepest desc. (CG)
   ISIF   =      3    stress and relaxation
   IWAVPR =     11    prediction:  0-non 1-charg 2-wave 3-comb
   ISYM   =      2    0-nonsym 1-usesym 2-fastsym
   LCORR  =      T    Harris-Foulkes like correction to forces

   POTIM  = 0.5000    time-step for ionic-motion
   TEIN   =    0.0    initial temperature
   TEBEG  =    0.0;   TEEND  =   0.0 temperature during run
   SMASS  =  -3.00    Nose mass-parameter (am)
   estimated Nose-frequenzy (Omega)   =  0.10E-29 period in steps =****** mass=  -0.244E-26a.u.
   SCALEE = 1.0000    scale energy and forces
   NPACO  =    256;   APACO  = 16.0  distance and # of slots for P.C.
   PSTRESS=    0.0 pullay stress

  Mass of Ions in am
   POMASS =  55.85
  Ionic Valenz
   ZVAL   =   8.00
  Atomic Wigner-Seitz radii
   RWIGS  =  -1.00
  virtual crystal weights 
   VCA    =   1.00
   NELECT =     864.0000    total number of electrons
   NUPDOWN=      -1.0000    fix difference up-down

 DOS related values:
   EMIN   =  10.00;   EMAX   =-10.00  energy-range for DOS
   EFERMI =   0.00
   ISMEAR =     1;   SIGMA  =   0.20  broadening in eV -4-tet -1-fermi 0-gaus

 Electronic relaxation 2 (details)
   IALGO  =     68    algorithm
   LDIAG  =      T    sub-space diagonalisation (order eigenvalues)
   LSUBROT=      F    optimize rotation matrix (better conditioning)
   TURBO    =      0    0=normal 1=particle mesh
   IRESTART =      0    0=no restart 2=restart with 2 vectors
   NREBOOT  =      0    no. of reboots
   NMIN     =      0    reboot dimension
   EREF     =   0.00    reference energy to select bands
   IMIX   =      4    mixing-type and parameters
     AMIX     =   0.40;   BMIX     =  1.00
     AMIX_MAG =   1.60;   BMIX_MAG =  1.00
     AMIN     =   0.10
     WC   =   100.;   INIMIX=   1;  MIXPRE=   1;  MAXMIX= -45

 Intra band minimization:
   WEIMIN = 0.0010     energy-eigenvalue tresh-hold
   EBREAK =  0.48E-09  absolut break condition
   DEPER  =   0.30     relativ break condition  

   TIME   =   0.40     timestep for ELM

  volume/ion in A,a.u.               =      10.22        68.97
  Fermi-wavevector in a.u.,A,eV,Ry     =   1.508720  2.851068 30.970078  2.276236
  Thomas-Fermi vector in A             =   2.619137
 
 Write flags
   LWAVE        =      F    write WAVECAR
   LDOWNSAMPLE  =      F    k-point downsampling of WAVECAR
   LCHARG       =      F    write CHGCAR
   LVTOT        =      F    write LOCPOT, total local potential
   LVHAR        =      F    write LOCPOT, Hartree potential only
   LELF         =      F    write electronic localiz. function (ELF)
   LORBIT       =      0    0 simple, 1 ext, 2 COOP (PROOUT), +10 PAW based schemes


 Dipole corrections
   LMONO  =      F    monopole corrections only (constant potential shift)
   LDIPOL =      F    correct potential (dipole corrections)
   IDIPOL =      0    1-x, 2-y, 3-z, 4-all directions 
   EPSILON=  1.0000000 bulk dielectric constant

 Exchange correlation treatment:
   GGA     =    --    GGA type
   LEXCH   =     8    internal setting for exchange type
   VOSKOWN=      0    Vosko Wilk Nusair interpolation
   LHFCALC =     F    Hartree Fock is set to
   LHFONE  =     F    Hartree Fock one center treatment
   AEXX    =    0.0000 exact exchange contribution

 Linear response parameters
   LEPSILON=     F    determine dielectric tensor
   LRPA    =     F    only Hartree local field effects (RPA)
   LNABLA  =     F    use nabla operator in PAW spheres
   LVEL    =     F    velocity operator in full k-point grid
   LINTERFAST=   F  fast interpolation
   KINTER  =     0    interpolate to denser k-point grid
   CSHIFT  =0.1000    complex shift for real part using Kramers Kronig
   OMEGAMAX=  -1.0    maximum frequency
   DEG_THRESHOLD= 0.2000000E-02 threshold for treating states as degnerate
   RTIME   =   -0.100 relaxation time in fs
  (WPLASMAI=    0.000 imaginary part of plasma frequency in eV, 0.658/RTIME)
   DFIELD  = 0.0000000 0.0000000 0.0000000 field for delta impulse in time
 
 Orbital magnetization related:
   ORBITALMAG=     F  switch on orbital magnetization
   LCHIMAG   =     F  perturbation theory with respect to B field
   DQ        =  0.001000  dq finite difference perturbation B field
   LLRAUG    =     F  two centre corrections for induced B field



--------------------------------------------------------------------------------------------------------


 conjugate gradient relaxation of ions
 charge density and potential will be updated during run
 non-spin polarized calculation
 RMM-DIIS sequential band-by-band and
  variant of blocked Davidson during initial phase
 perform sub-space diagonalisation
    before iterative eigenvector-optimisation
 modified Broyden-mixing scheme, WC =      100.0
 initial mixing is a Kerker type mixing with AMIX =  0.4000 and BMIX =      1.0000
 Hartree-type preconditioning will be used
 using additional bands           86
 real space projection scheme for non local part
 use partial core corrections
 calculate Harris-corrections to forces 
   (improved forces if not selfconsistent)
 use gradient corrections 
 use of overlap-Matrix (Vanderbilt PP)
 Methfessel and Paxton  Order N= 1 SIGMA  =   0.20


--------------------------------------------------------------------------------------------------------


  energy-cutoff  :      700.00
  volume of cell :     1103.86
      direct lattice vectors                 reciprocal lattice vectors
    10.334847047  0.000000000  0.000000000     0.096760019  0.000000000  0.000000000
     0.000000000 10.334847047  0.000000000     0.000000000  0.096760019  0.000000000
     0.000000000  0.000000000 10.334847047     0.000000000  0.000000000  0.096760019

  length of vectors
    10.334847047 10.334847047 10.334847047     0.096760019  0.096760019  0.096760019


 
 k-points in units of 2pi/SCALE and weight: pymatgen generated KPOINTS with grid den
   0.01209500  0.01209500  0.01209500       0.125
   0.03628501  0.01209500  0.01209500       0.375
   0.03628501  0.03628501  0.01209500       0.375
   0.03628501  0.03628501  0.03628501       0.125
 
 k-points in reciprocal lattice and weights: pymatgen generated KPOINTS with grid den
   0.12500000  0.12500000  0.12500000       0.125
   0.37500000  0.12500000  0.12500000       0.375
   0.37500000  0.37500000  0.12500000       0.375
   0.37500000  0.37500000  0.37500000       0.125
 
 position of ions in fractional coordinates (direct lattice) 
   0.00000000  0.00000000  0.00000000
   0.00000000  0.16666893  0.16666893
   0.16666893  0.00000000  0.16666893
   0.16666893  0.16666893  0.00000000
   0.33333106  0.00000000  0.00000000
   0.33333107  0.16666893  0.16666893
   0.50000000  0.00000000  0.16666894
   0.50000000  0.16666894  0.00000000
   0.66666897  0.00000000  0.00000000
   0.66666896  0.16666893  0.16666893
   0.83333104  0.00000000  0.16666893
   0.83333104  0.16666893  0.00000000
   0.00000000  0.33333106  0.00000000
   0.00000000  0.50000000  0.16666894
   0.16666893  0.33333107  0.16666893
   0.16666894  0.50000000  0.00000000
   0.33333107  0.33333107  0.00000000
   0.33333107  0.50000000  0.16666893
   0.50000000  0.33333107  0.16666893
   0.50000000  0.50000000  0.00000000
   0.66666896  0.33333107  0.00000000
   0.66666896  0.50000000  0.16666893
   0.83333104  0.33333107  0.16666893
   0.83333103  0.50000000  0.00000000
   0.00000000  0.66666897  0.00000000
   0.00000000  0.83333104  0.16666893
   0.16666893  0.66666896  0.16666893
   0.16666893  0.83333104  0.00000000
   0.33333107  0.66666896  0.00000000
   0.33333107  0.83333104  0.16666893
   0.50000000  0.66666896  0.16666893
   0.50000000  0.83333103  0.00000000
   0.66666896  0.66666896  0.00000000
   0.66666896  0.83333104  0.16666893
   0.83333104  0.66666896  0.16666893
   0.83333104  0.83333104  0.00000000
   0.00000000  0.00000000  0.33333106
   0.00000000  0.16666894  0.50000000
   0.16666894  0.00000000  0.50000000
   0.16666893  0.16666893  0.33333107
   0.33333107  0.00000000  0.33333107
   0.33333107  0.16666893  0.50000000
   0.50000000  0.00000000  0.50000000
   0.50000000  0.16666893  0.33333107
   0.66666896  0.00000000  0.33333107
   0.66666896  0.16666893  0.50000000
   0.83333103  0.00000000  0.50000000
   0.83333104  0.16666893  0.33333107
   0.00000000  0.33333107  0.33333107
   0.00000000  0.50000000  0.50000000
   0.16666893  0.33333107  0.50000000
   0.16666893  0.50000000  0.33333107
   0.33333107  0.33333107  0.33333107
   0.33333106  0.50000000  0.50000000
   0.50000000  0.33333106  0.50000000
   0.50000000  0.50000000  0.33333106
   0.66666896  0.33333107  0.33333107
   0.66666897  0.50000000  0.50000000
   0.83333104  0.33333107  0.50000000
   0.83333104  0.50000000  0.33333107
   0.00000000  0.66666896  0.33333107
   0.00000000  0.83333103  0.50000000
   0.16666893  0.66666896  0.50000000
   0.16666893  0.83333104  0.33333107
   0.33333107  0.66666896  0.33333107
   0.33333107  0.83333104  0.50000000
   0.50000000  0.66666897  0.50000000
   0.50000000  0.83333104  0.33333107
   0.66666896  0.66666896  0.33333107
   0.66666896  0.83333104  0.50000000
   0.83333104  0.66666896  0.50000000
   0.83333104  0.83333104  0.33333107
   0.00000000  0.00000000  0.66666897
   0.00000000  0.16666893  0.83333104
   0.16666893  0.00000000  0.83333104
   0.16666893  0.16666893  0.66666896
   0.33333107  0.00000000  0.66666896
   0.33333107  0.16666893  0.83333104
   0.50000000  0.00000000  0.83333103
   0.50000000  0.16666893  0.66666896
   0.66666896  0.00000000  0.66666896
   0.66666896  0.16666893  0.83333104
   0.83333104  0.00000000  0.83333104
   0.83333104  0.16666893  0.66666896
   0.00000000  0.33333107  0.66666896
   0.00000000  0.50000000  0.83333103
   0.16666893  0.33333107  0.83333104
   0.16666893  0.50000000  0.66666896
   0.33333107  0.33333107  0.66666896
   0.33333107  0.50000000  0.83333104
   0.50000000  0.33333107  0.83333104
   0.50000000  0.50000000  0.66666897
   0.66666896  0.33333107  0.66666896
   0.66666896  0.50000000  0.83333104
   0.83333104  0.33333107  0.83333104
   0.83333104  0.50000000  0.66666896
   0.00000000  0.66666896  0.66666896
   0.00000000  0.83333104  0.83333104
   0.16666893  0.66666896  0.83333104
   0.16666893  0.83333104  0.66666896
   0.33333107  0.66666896  0.66666896
   0.33333107  0.83333104  0.83333104
   0.50000000  0.66666896  0.83333104
   0.50000000  0.83333104  0.66666896
   0.66666896  0.66666896  0.66666896
   0.66666896  0.83333104  0.83333104
   0.83333104  0.66666896  0.83333104
   0.83333104  0.83333104  0.66666896
 
 position of ions in cartesian coordinates  (Angst):
   0.00000000  0.00000000  0.00000000
   0.00000000  1.72249793  1.72249793
   1.72249793  0.00000000  1.72249793
   1.72249793  1.72249793  0.00000000
   3.44492554  0.00000000  0.00000000
   3.44492559  1.72249794  1.72249794
   5.16742352  0.00000000  1.72249798
   5.16742352  1.72249798  0.00000000
   6.88992180  0.00000000  0.00000000
   6.88992176  1.72249794  1.72249794
   8.61234881  0.00000000  1.72249793
   8.61234881  1.72249793  0.00000000
   0.00000000  3.44492554  0.00000000
   0.00000000  5.16742352  1.72249798
   1.72249794  3.44492559  1.72249794
   1.72249798  5.16742352  0.00000000
   3.44492559  3.44492559  0.00000000
   3.44492559  5.16742352  1.72249793
   5.16742352  3.44492559  1.72249793
   5.16742352  5.16742352  0.00000000
   6.88992176  3.44492559  0.00000000
   6.88992176  5.16742352  1.72249793
   8.61234881  3.44492559  1.72249794
   8.61234877  5.16742352  0.00000000
   0.00000000  6.88992180  0.00000000
   0.00000000  8.61234881  1.72249793
   1.72249794  6.88992176  1.72249794
   1.72249793  8.61234881  0.00000000
   3.44492559  6.88992176  0.00000000
   3.44492559  8.61234881  1.72249794
   5.16742352  6.88992176  1.72249793
   5.16742352  8.61234877  0.00000000
   6.88992176  6.88992176  0.00000000
   6.88992176  8.61234881  1.72249794
   8.61234881  6.88992176  1.72249794
   8.61234881  8.61234881  0.00000000
   0.00000000  0.00000000  3.44492554
   0.00000000  1.72249798  5.16742352
   1.72249798  0.00000000  5.16742352
   1.72249794  1.72249794  3.44492559
   3.44492559  0.00000000  3.44492559
   3.44492559  1.72249793  5.16742352
   5.16742352  0.00000000  5.16742352
   5.16742352  1.72249793  3.44492559
   6.88992176  0.00000000  3.44492559
   6.88992176  1.72249793  5.16742352
   8.61234877  0.00000000  5.16742352
   8.61234881  1.72249794  3.44492559
   0.00000000  3.44492559  3.44492559
   0.00000000  5.16742352  5.16742352
   1.72249793  3.44492559  5.16742352
   1.72249793  5.16742352  3.44492559
   3.44492559  3.44492559  3.44492559
   3.44492554  5.16742352  5.16742352
   5.16742352  3.44492554  5.16742352
   5.16742352  5.16742352  3.44492554
   6.88992176  3.44492559  3.44492559
   6.88992180  5.16742352  5.16742352
   8.61234881  3.44492559  5.16742352
   8.61234881  5.16742352  3.44492559
   0.00000000  6.88992176  3.44492559
   0.00000000  8.61234877  5.16742352
   1.72249793  6.88992176  5.16742352
   1.72249794  8.61234881  3.44492559
   3.44492559  6.88992176  3.44492559
   3.44492559  8.61234881  5.16742352
   5.16742352  6.88992180  5.16742352
   5.16742352  8.61234881  3.44492559
   6.88992176  6.88992176  3.44492559
   6.88992176  8.61234881  5.16742352
   8.61234881  6.88992176  5.16742352
   8.61234881  8.61234881  3.44492559
   0.00000000  0.00000000  6.88992180
   0.00000000  1.72249793  8.61234881
   1.72249793  0.00000000  8.61234881
   1.72249794  1.72249794  6.88992176
   3.44492559  0.00000000  6.88992176
   3.44492559  1.72249794  8.61234881
   5.16742352  0.00000000  8.61234877
   5.16742352  1.72249793  6.88992176
   6.88992176  0.00000000  6.88992176
   6.88992176  1.72249794  8.61234881
   8.61234881  0.00000000  8.61234881
   8.61234881  1.72249794  6.88992176
   0.00000000  3.44492559  6.88992176
   0.00000000  5.16742352  8.61234877
   1.72249794  3.44492559  8.61234881
   1.72249793  5.16742352  6.88992176
   3.44492559  3.44492559  6.88992176
   3.44492559  5.16742352  8.61234881
   5.16742352  3.44492559  8.61234881
   5.16742352  5.16742352  6.88992180
   6.88992176  3.44492559  6.88992176
   6.88992176  5.16742352  8.61234881
   8.61234881  3.44492559  8.61234881
   8.61234881  5.16742352  6.88992176
   0.00000000  6.88992176  6.88992176
   0.00000000  8.61234881  8.61234881
   1.72249794  6.88992176  8.61234881
   1.72249794  8.61234881  6.88992176
   3.44492559  6.88992176  6.88992176
   3.44492559  8.61234881  8.61234881
   5.16742352  6.88992176  8.61234881
   5.16742352  8.61234881  6.88992176
   6.88992176  6.88992176  6.88992176
   6.88992176  8.61234881  8.61234881
   8.61234881  6.88992176  8.61234881
   8.61234881  8.61234881  6.88992176
 


--------------------------------------------------------------------------------------------------------


 k-point  1 :   0.1250 0.1250 0.1250  plane waves:   46483
 k-point  2 :   0.3750 0.1250 0.1250  plane waves:   46403
 k-point  3 :   0.3750 0.3750 0.1250  plane waves:   46446
 k-point  4 :   0.3750 0.3750 0.3750  plane waves:   46403

 maximum and minimum number of plane-waves per node :     11641    11564

 maximum number of plane-waves:     46483
 maximum index in each direction: 
   IXMAX=   22   IYMAX=   22   IZMAX=   22
   IXMIN=  -22   IYMIN=  -22   IZMIN=  -22


 real space projection operators:
  total allocation   :      48463.31 KBytes
  max/ min on nodes  :      12286.69      11724.75


 parallel 3D FFT for wavefunctions:
    minimum data exchange during FFTs selected (reduces bandwidth)
 parallel 3D FFT for charge:
    minimum data exchange during FFTs selected (reduces bandwidth)


 total amount of memory used by VASP MPI-rank0   289978. kBytes
=======================================================================

   base      :      30000. kBytes
   nonlr-proj:      21162. kBytes
   fftplans  :      15529. kBytes
   grid      :      21835. kBytes
   one-center:        419. kBytes
   wavefun   :     201033. kBytes
 
     INWAV:  cpu time    0.0000: real time    0.0001
 Broyden mixing: mesh for mixing (old mesh)
   NGX = 45   NGY = 45   NGZ = 45
  (NGX  =144   NGY  =144   NGZ  =144)
  gives a total of  91125 points

 initial charge density was supplied:
 charge density of overlapping atoms calculated
 number of electron     864.0000000 magnetization 
 keeping initial charge density in first step


--------------------------------------------------------------------------------------------------------


 Maximum index for non-local projection operator          809
 Maximum index for augmentation-charges         1463 (set IRDMAX)


--------------------------------------------------------------------------------------------------------


 First call to EWALD:  gamma=   0.172
 Maximum number of real-space cells 3x 3x 3
 Maximum number of reciprocal cells 3x 3x 3

    FEWALD:  cpu time    0.0125: real time    0.0126


--------------------------------------- Iteration      1(   1)  ---------------------------------------


    POTLOK:  cpu time    0.2994: real time    0.3010
    SETDIJ:  cpu time    0.0553: real time    0.0553
     EDDAV:  cpu time   53.6466: real time   53.7188
       DOS:  cpu time    0.0039: real time    0.0039
    --------------------------------------------
      LOOP:  cpu time   54.0053: real time   54.0791

 eigenvalue-minimisations  :  4144
 total energy-change (2. order) : 0.9752865E+04  (-0.4176098E+05)
 number of electron     864.0000000 magnetization 
 augmentation part      864.0000000 magnetization 

 Free energy of the ion-electron system (eV)
  ---------------------------------------------------
  alpha Z        PSCENC =      7300.31925852
  Ewald energy   TEWEN  =    -66232.83996889
  -Hartree energ DENC   =    -11197.02572337
  -exchange      EXHF   =         0.00000000
  -V(xc)+E(xc)   XCENC  =       446.63038354
  PAW double counting   =     51723.88885462   -52548.28121372
  entropy T*S    EENTRO =        -0.00905936
  eigenvalues    EBANDS =     16057.62503990
  atomic energy  EATOM  =     64202.55724146
  Solvation  Ediel_sol  =         0.00000000
  ---------------------------------------------------
  free energy    TOTEN  =      9752.86481271 eV

  energy without entropy =     9752.87387207  energy(sigma->0) =     9752.86783249


--------------------------------------------------------------------------------------------------------




--------------------------------------- Iteration      1(   2)  ---------------------------------------


     EDDAV:  cpu time   55.9879: real time   55.9941
       DOS:  cpu time    0.0059: real time    0.0059
    --------------------------------------------
      LOOP:  cpu time   55.9938: real time   56.0000

 eigenvalue-minimisations  :  4144
 total energy-change (2. order) :-0.9378599E+04  (-0.9233441E+04)
 number of electron     864.0000000 magnetization 
 augmentation part      864.0000000 magnetization 

 Free energy of the ion-electron system (eV)
  ---------------------------------------------------
  alpha Z        PSCENC =      7300.31925852
  Ewald energy   TEWEN  =    -66232.83996889
  -Hartree energ DENC   =    -11197.02572337
  -exchange      EXHF   =         0.00000000
  -V(xc)+E(xc)   XCENC  =       446.63038354
  PAW double counting   =     51723.88885462   -52548.28121372
  entropy T*S    EENTRO =        -0.02896111
  eigenvalues    EBANDS =      6679.04618790
  atomic energy  EATOM  =     64202.55724146
  Solvation  Ediel_sol  =         0.00000000
  ---------------------------------------------------
  free energy    TOTEN  =       374.26605894 eV

  energy without entropy =      374.29502006  energy(sigma->0) =      374.27571265


--------------------------------------------------------------------------------------------------------




--------------------------------------- Iteration      1(   3)  ---------------------------------------


     EDDAV:  cpu time   56.7373: real time   56.7445
       DOS:  cpu time    0.0076: real time    0.0076
    --------------------------------------------
      LOOP:  cpu time   56.7449: real time   56.7521

 eigenvalue-minimisations  :  4144
 total energy-change (2. order) :-0.1184607E+04  (-0.1015300E+04)
 number of electron     864.0000000 magnetization 
 augmentation part      864.0000000 magnetization 

 Free energy of the ion-electron system (eV)
  ---------------------------------------------------
  alpha Z        PSCENC =      7300.31925852
  Ewald energy   TEWEN  =    -66232.83996889
  -Hartree energ DENC   =    -11197.02572337
  -exchange      EXHF   =         0.00000000
  -V(xc)+E(xc)   XCENC  =       446.63038354
  PAW double counting   =     51723.88885462   -52548.28121372
  entropy T*S    EENTRO =         0.00945423
  eigenvalues    EBANDS =      5494.40083976
  atomic energy  EATOM  =     64202.55724146
  Solvation  Ediel_sol  =         0.00000000
  ---------------------------------------------------
  free energy    TOTEN  =      -810.34087386 eV

  energy without entropy =     -810.35032808  energy(sigma->0) =     -810.34402526


--------------------------------------------------------------------------------------------------------




--------------------------------------- Iteration      1(   4)  ---------------------------------------


     EDDAV:  cpu time   92.0673: real time   92.0822
       DOS:  cpu time    0.0080: real time    0.0080
    --------------------------------------------
      LOOP:  cpu time   92.0752: real time   92.0901

 eigenvalue-minimisations  :  7520
 total energy-change (2. order) :-0.2154694E+03  (-0.2025301E+03)
 number of electron     864.0000000 magnetization 
 augmentation part      864.0000000 magnetization 

 Free energy of the ion-electron system (eV)
  ---------------------------------------------------
  alpha Z        PSCENC =      7300.31925852
  Ewald energy   TEWEN  =    -66232.83996889
  -Hartree energ DENC   =    -11197.02572337
  -exchange      EXHF   =         0.00000000
  -V(xc)+E(xc)   XCENC  =       446.63038354
  PAW double counting   =     51723.88885462   -52548.28121372
  entropy T*S    EENTRO =        -0.03672392
  eigenvalues    EBANDS =      5278.97762155
  atomic energy  EATOM  =     64202.55724146
  Solvation  Ediel_sol  =         0.00000000
  ---------------------------------------------------
  free energy    TOTEN  =     -1025.81027021 eV

  energy without entropy =    -1025.77354629  energy(sigma->0) =    -1025.79802890


--------------------------------------------------------------------------------------------------------




--------------------------------------- Iteration      1(   5)  ---------------------------------------


     EDDAV:  cpu time   84.1223: real time   84.1336
       DOS:  cpu time    0.0080: real time    0.0080
    CHARGE:  cpu time    2.3405: real time    2.3407
    MIXING:  cpu time    0.0101: real time    0.0101
    --------------------------------------------
      LOOP:  cpu time   86.4809: real time   86.4925

 eigenvalue-minimisations  :  6704
 total energy-change (2. order) :-0.1932805E+02  (-0.1832297E+02)
 number of electron     864.0000691 magnetization 
 augmentation part      382.7833305 magnetization 

 Broyden mixing:
  rms(total) = 0.93457E+01    rms(broyden)= 0.93457E+01
  rms(prec ) = 0.11651E+02
  weight for this iteration     100.00

 Free energy of the ion-electron system (eV)
  ---------------------------------------------------
  alpha Z        PSCENC =      7300.31925852
  Ewald energy   TEWEN  =    -66232.83996889
  -Hartree energ DENC   =    -11197.02572337
  -exchange      EXHF   =         0.00000000
  -V(xc)+E(xc)   XCENC  =       446.63038354
  PAW double counting   =     51723.88885462   -52548.28121372
  entropy T*S    EENTRO =        -0.10196409
  eigenvalues    EBANDS =      5259.71481169
  atomic energy  EATOM  =     64202.55724146
  Solvation  Ediel_sol  =         0.00000000
  ---------------------------------------------------
  free energy    TOTEN  =     -1045.13832024 eV

  energy without entropy =    -1045.03635615  energy(sigma->0) =    -1045.10433221


--------------------------------------------------------------------------------------------------------




--------------------------------------- Iteration      1(   6)  ---------------------------------------


    POTLOK:  cpu time    0.2831: real time    0.2841
    SETDIJ:  cpu time    0.0532: real time    0.0532
    EDDIAG:  cpu time    7.2652: real time    7.2659
  RMM-DIIS:  cpu time   25.6031: real time   25.6067
    ORTHCH:  cpu time    2.0755: real time    2.0757
       DOS:  cpu time    0.0092: real time    0.0092
    CHARGE:  cpu time    2.5735: real time    2.5737
    MIXING:  cpu time    0.0108: real time    0.0108
    --------------------------------------------
      LOOP:  cpu time   37.8738: real time   37.8794

 eigenvalue-minimisations  :  4144
 total energy-change (2. order) : 0.1680826E+03  (-0.1353702E+03)
 number of electron     864.0000778 magnetization 
 augmentation part      447.5411949 magnetization 

 Broyden mixing:
  rms(total) = 0.88149E+00    rms(broyden)= 0.88144E+00
  rms(prec ) = 0.95249E+00
  weight for this iteration     100.00

 eigenvalues of (default mixing * dielectric matrix)
  average eigenvalue GAMMA=   0.9511
  0.9511

 Free energy of the ion-electron system (eV)
  ---------------------------------------------------
  alpha Z        PSCENC =      7300.31925852
  Ewald energy   TEWEN  =    -66232.83996889
  -Hartree energ DENC   =     -9342.73211187
  -exchange      EXHF   =         0.00000000
  -V(xc)+E(xc)   XCENC  =       355.79839843
  PAW double counting   =     52458.78762636   -53038.81731402
  entropy T*S    EENTRO =        -0.05787285
  eigenvalues    EBANDS =      3419.92898364
  atomic energy  EATOM  =     64202.55724146
  Solvation  Ediel_sol  =         0.00000000
  ---------------------------------------------------
  free energy    TOTEN  =      -877.05575922 eV

  energy without entropy =     -876.99788636  energy(sigma->0) =     -877.03646827


--------------------------------------------------------------------------------------------------------




--------------------------------------- Iteration      1(   7)  ---------------------------------------


    POTLOK:  cpu time    0.2921: real time    0.2926
    SETDIJ:  cpu time    0.0547: real time    0.0547
    EDDIAG:  cpu time    7.8020: real time    7.8028
  RMM-DIIS:  cpu time   27.8863: real time   27.8889
    ORTHCH:  cpu time    2.1631: real time    2.1633
       DOS:  cpu time    0.0092: real time    0.0092
    CHARGE:  cpu time    2.7240: real time    2.7242
    MIXING:  cpu time    0.0118: real time    0.0118
    --------------------------------------------
      LOOP:  cpu time   40.9432: real time   40.9474

 eigenvalue-minimisations  :  4555
 total energy-change (2. order) :-0.3161511E+01  (-0.1121679E+02)
 number of electron     864.0000753 magnetization 
 augmentation part      447.1074402 magnetization 

 Broyden mixing:
  rms(total) = 0.34605E+00    rms(broyden)= 0.34605E+00
  rms(prec ) = 0.38661E+00
  weight for this iteration     100.00

 eigenvalues of (default mixing * dielectric matrix)
  average eigenvalue GAMMA=   1.0985
  1.0985  1.0985

 Free energy of the ion-electron system (eV)
  ---------------------------------------------------
  alpha Z        PSCENC =      7300.31925852
  Ewald energy   TEWEN  =    -66232.83996889
  -Hartree energ DENC   =     -9378.93513861
  -exchange      EXHF   =         0.00000000
  -V(xc)+E(xc)   XCENC  =       359.95322169
  PAW double counting   =     54337.98993410   -55114.08949516
  entropy T*S    EENTRO =        -0.14792128
  eigenvalues    EBANDS =      3644.97559805
  atomic energy  EATOM  =     64202.55724146
  Solvation  Ediel_sol  =         0.00000000
  ---------------------------------------------------
  free energy    TOTEN  =      -880.21727012 eV

  energy without entropy =     -880.06934884  energy(sigma->0) =     -880.16796303


--------------------------------------------------------------------------------------------------------




--------------------------------------- Iteration      1(   8)  ---------------------------------------


    POTLOK:  cpu time    0.3088: real time    0.3094
    SETDIJ:  cpu time    0.0566: real time    0.0566
    EDDIAG:  cpu time    7.2982: real time    7.2999
  RMM-DIIS:  cpu time   25.8943: real time   25.9001
    ORTHCH:  cpu time    2.1210: real time    2.1212
       DOS:  cpu time    0.0091: real time    0.0091
    CHARGE:  cpu time    2.5503: real time    2.5505
    MIXING:  cpu time    0.0108: real time    0.0108
    --------------------------------------------
      LOOP:  cpu time   38.2493: real time   38.2577

 eigenvalue-minimisations  :  4427
 total energy-change (2. order) : 0.9527977E+00  (-0.1347854E+01)
 number of electron     864.0000748 magnetization 
 augmentation part      442.9549401 magnetization 

 Broyden mixing:
  rms(total) = 0.31310E+00    rms(broyden)= 0.31310E+00
  rms(prec ) = 0.38592E+00
  weight for this iteration     100.00

 eigenvalues of (default mixing * dielectric matrix)
  average eigenvalue GAMMA=   1.4215
  2.2639  1.0003  1.0003

 Free energy of the ion-electron system (eV)
  ---------------------------------------------------
  alpha Z        PSCENC =      7300.31925852
  Ewald energy   TEWEN  =    -66232.83996889
  -Hartree energ DENC   =     -9419.44817580
  -exchange      EXHF   =         0.00000000
  -V(xc)+E(xc)   XCENC  =       363.01076036
  PAW double counting   =     56153.16430351   -57038.71500191
  entropy T*S    EENTRO =        -0.06965500
  eigenvalues    EBANDS =      3792.75676536
  atomic energy  EATOM  =     64202.55724146
  Solvation  Ediel_sol  =         0.00000000
  ---------------------------------------------------
  free energy    TOTEN  =      -879.26447239 eV

  energy without entropy =     -879.19481739  energy(sigma->0) =     -879.24125406


--------------------------------------------------------------------------------------------------------




--------------------------------------- Iteration      1(   9)  ---------------------------------------


    POTLOK:  cpu time    0.2887: real time    0.2897
    SETDIJ:  cpu time    0.0548: real time    0.0548
    EDDIAG:  cpu time    7.4250: real time    7.4262
  RMM-DIIS:  cpu time   33.6549: real time   33.6588
    ORTHCH:  cpu time    2.0230: real time    2.0232
       DOS:  cpu time    0.0090: real time    0.0090
    CHARGE:  cpu time    2.4437: real time    2.4439
    MIXING:  cpu time    0.0094: real time    0.0094
    --------------------------------------------
      LOOP:  cpu time   45.9084: real time   45.9150

 eigenvalue-minimisations  :  5669
 total energy-change (2. order) :-0.3383948E+00  (-0.6405768E+00)
 number of electron     864.0000753 magnetization 
 augmentation part      445.1604782 magnetization 

 Broyden mixing:
  rms(total) = 0.54911E+00    rms(broyden)= 0.54911E+00
  rms(prec ) = 0.76874E+00
  weight for this iteration     100.00

 eigenvalues of (default mixing * dielectric matrix)
  average eigenvalue GAMMA=   1.1567
  2.4942  1.0153  1.0153  0.1019

 Free energy of the ion-electron system (eV)
  ---------------------------------------------------
  alpha Z        PSCENC =      7300.31925852
  Ewald energy   TEWEN  =    -66232.83996889
  -Hartree energ DENC   =     -9332.98109178
  -exchange      EXHF   =         0.00000000
  -V(xc)+E(xc)   XCENC  =       359.45664809
  PAW double counting   =     57537.57736539   -58469.73791017
  entropy T*S    EENTRO =        -0.09247422
  eigenvalues    EBANDS =      3756.13806442
  atomic energy  EATOM  =     64202.55724146
  Solvation  Ediel_sol  =         0.00000000
  ---------------------------------------------------
  free energy    TOTEN  =      -879.60286719 eV

  energy without entropy =     -879.51039297  energy(sigma->0) =     -879.57204245


--------------------------------------------------------------------------------------------------------




--------------------------------------- Iteration      1(  10)  ---------------------------------------


    POTLOK:  cpu time    0.2773: real time    0.2777
    SETDIJ:  cpu time    0.0541: real time    0.0541
    EDDIAG:  cpu time    7.4705: real time    7.4711
  RMM-DIIS:  cpu time   32.9438: real time   32.9481
    ORTHCH:  cpu time    2.2054: real time    2.2057
       DOS:  cpu time    0.0092: real time    0.0092
    CHARGE:  cpu time    2.4325: real time    2.4327
    MIXING:  cpu time    0.0092: real time    0.0092
    --------------------------------------------
      LOOP:  cpu time   45.4020: real time   45.4078

 eigenvalue-minimisations  :  5071
 total energy-change (2. order) : 0.6671715E-01  (-0.7771072E-01)
 number of electron     864.0000753 magnetization 
 augmentation part      445.5343206 magnetization 

 Broyden mixing:
  rms(total) = 0.15704E+00    rms(broyden)= 0.15704E+00
  rms(prec ) = 0.19824E+00
  weight for this iteration     100.00

 eigenvalues of (default mixing * dielectric matrix)
  average eigenvalue GAMMA=   1.1142
  2.5631  1.0603  1.0603  0.7802  0.1070

 Free energy of the ion-electron system (eV)
  ---------------------------------------------------
  alpha Z        PSCENC =      7300.31925852
  Ewald energy   TEWEN  =    -66232.83996889
  -Hartree energ DENC   =     -9314.81321580
  -exchange      EXHF   =         0.00000000
  -V(xc)+E(xc)   XCENC  =       358.72325609
  PAW double counting   =     57877.73952383   -58820.63378848
  entropy T*S    EENTRO =        -0.08636239
  eigenvalues    EBANDS =      3749.49790561
  atomic energy  EATOM  =     64202.55724146
  Solvation  Ediel_sol  =         0.00000000
  ---------------------------------------------------
  free energy    TOTEN  =      -879.53615004 eV

  energy without entropy =     -879.44978765  energy(sigma->0) =     -879.50736257


--------------------------------------------------------------------------------------------------------




--------------------------------------- Iteration      1(  11)  ---------------------------------------


    POTLOK:  cpu time    0.2640: real time    0.2649
    SETDIJ:  cpu time    0.0517: real time    0.0518
    EDDIAG:  cpu time    7.1031: real time    7.1037
  RMM-DIIS:  cpu time   32.5721: real time   32.5786
    ORTHCH:  cpu time    2.1288: real time    2.1290
       DOS:  cpu time    0.0089: real time    0.0089
    CHARGE:  cpu time    2.7025: real time    2.7027
    MIXING:  cpu time    0.0171: real time    0.0171
    --------------------------------------------
      LOOP:  cpu time   44.8482: real time   44.8568

 eigenvalue-minimisations  :  4966
 total energy-change (2. order) : 0.1650379E-01  (-0.2541129E-01)
 number of electron     864.0000752 magnetization 
 augmentation part      445.0939706 magnetization 

 Broyden mixing:
  rms(total) = 0.82735E-01    rms(broyden)= 0.82735E-01
  rms(prec ) = 0.10445E+00
  weight for this iteration     100.00

 eigenvalues of (default mixing * dielectric matrix)
  average eigenvalue GAMMA=   1.2811
  2.8163  2.1804  0.9469  0.9469  0.6887  0.1074

 Free energy of the ion-electron system (eV)
  ---------------------------------------------------
  alpha Z        PSCENC =      7300.31925852
  Ewald energy   TEWEN  =    -66232.83996889
  -Hartree energ DENC   =     -9331.14411346
  -exchange      EXHF   =         0.00000000
  -V(xc)+E(xc)   XCENC  =       359.47926578
  PAW double counting   =     57995.15024110   -58936.98637385
  entropy T*S    EENTRO =        -0.08080583
  eigenvalues    EBANDS =      3764.02560893
  atomic energy  EATOM  =     64202.55724146
  Solvation  Ediel_sol  =         0.00000000
  ---------------------------------------------------
  free energy    TOTEN  =      -879.51964624 eV

  energy without entropy =     -879.43884041  energy(sigma->0) =     -879.49271096


--------------------------------------------------------------------------------------------------------




--------------------------------------- Iteration      1(  12)  ---------------------------------------


    POTLOK:  cpu time    0.3139: real time    0.3142
    SETDIJ:  cpu time    0.0556: real time    0.0556
    EDDIAG:  cpu time    7.2224: real time    7.2232
  RMM-DIIS:  cpu time   29.1256: real time   29.1280
    ORTHCH:  cpu time    2.1441: real time    2.1443
       DOS:  cpu time    0.0091: real time    0.0091
    CHARGE:  cpu time    2.6775: real time    2.6777
    MIXING:  cpu time    0.0126: real time    0.0126
    --------------------------------------------
      LOOP:  cpu time   41.5608: real time   41.5647

 eigenvalue-minimisations  :  4582
 total energy-change (2. order) : 0.6211940E-02  (-0.1043875E-01)
 number of electron     864.0000752 magnetization 
 augmentation part      444.6367896 magnetization 

 Broyden mixing:
  rms(total) = 0.86246E-02    rms(broyden)= 0.86241E-02
  rms(prec ) = 0.11412E-01
  weight for this iteration     100.00

 eigenvalues of (default mixing * dielectric matrix)
  average eigenvalue GAMMA=   1.2616
  2.5999  2.4347  0.9589  0.9589  0.8858  0.8858  0.1074

 Free energy of the ion-electron system (eV)
  ---------------------------------------------------
  alpha Z        PSCENC =      7300.31925852
  Ewald energy   TEWEN  =    -66232.83996889
  -Hartree energ DENC   =     -9348.58456824
  -exchange      EXHF   =         0.00000000
  -V(xc)+E(xc)   XCENC  =       360.25370494
  PAW double counting   =     58060.99916962   -58998.25036397
  entropy T*S    EENTRO =        -0.07635344
  eigenvalues    EBANDS =      3776.10844570
  atomic energy  EATOM  =     64202.55724146
  Solvation  Ediel_sol  =         0.00000000
  ---------------------------------------------------
  free energy    TOTEN  =      -879.51343430 eV

  energy without entropy =     -879.43708086  energy(sigma->0) =     -879.48798315


--------------------------------------------------------------------------------------------------------




--------------------------------------- Iteration      1(  13)  ---------------------------------------


    POTLOK:  cpu time    0.3085: real time    0.3089
    SETDIJ:  cpu time    0.0573: real time    0.0573
    EDDIAG:  cpu time    8.2358: real time    8.2369
  RMM-DIIS:  cpu time   33.8343: real time   33.8371
    ORTHCH:  cpu time    2.1948: real time    2.1950
       DOS:  cpu time    0.0092: real time    0.0092
    CHARGE:  cpu time    2.9618: real time    2.9620
    MIXING:  cpu time    0.0147: real time    0.0147
    --------------------------------------------
      LOOP:  cpu time   47.6164: real time   47.6210

 eigenvalue-minimisations  :  5759
 total energy-change (2. order) :-0.4493398E-02  (-0.5052642E-02)
 number of electron     864.0000752 magnetization 
 augmentation part      444.5279812 magnetization 

 Broyden mixing:
  rms(total) = 0.15775E-01    rms(broyden)= 0.15775E-01
  rms(prec ) = 0.21472E-01
  weight for this iteration     100.00

 eigenvalues of (default mixing * dielectric matrix)
  average eigenvalue GAMMA=   1.1178
  2.6140  2.4127  0.9716  0.9716  0.8773  0.8773  0.1074  0.1103

 Free energy of the ion-electron system (eV)
  ---------------------------------------------------
  alpha Z        PSCENC =      7300.31925852
  Ewald energy   TEWEN  =    -66232.83996889
  -Hartree energ DENC   =     -9351.50851925
  -exchange      EXHF   =         0.00000000
  -V(xc)+E(xc)   XCENC  =       360.37224476
  PAW double counting   =     58053.51428425   -58988.42375797
  entropy T*S    EENTRO =        -0.07536314
  eigenvalues    EBANDS =      3776.56665256
  atomic energy  EATOM  =     64202.55724146
  Solvation  Ediel_sol  =         0.00000000
  ---------------------------------------------------
  free energy    TOTEN  =      -879.51792770 eV

  energy without entropy =     -879.44256456  energy(sigma->0) =     -879.49280665


--------------------------------------------------------------------------------------------------------




--------------------------------------- Iteration      1(  14)  ---------------------------------------


    POTLOK:  cpu time    0.3264: real time    0.3269
    SETDIJ:  cpu time    0.0619: real time    0.0619
    EDDIAG:  cpu time    8.5656: real time    8.5671
  RMM-DIIS:  cpu time   32.8660: real time   32.8699
    ORTHCH:  cpu time    2.1533: real time    2.1535
       DOS:  cpu time    0.0089: real time    0.0089
    CHARGE:  cpu time    2.7326: real time    2.7328
    MIXING:  cpu time    0.0164: real time    0.0164
    --------------------------------------------
      LOOP:  cpu time   46.7311: real time   46.7376

 eigenvalue-minimisations  :  5526
 total energy-change (2. order) :-0.1118839E-03  (-0.2322396E-03)
 number of electron     864.0000752 magnetization 
 augmentation part      444.5443127 magnetization 

 Broyden mixing:
  rms(total) = 0.13111E-01    rms(broyden)= 0.13111E-01
  rms(prec ) = 0.18063E-01
  weight for this iteration     100.00

 eigenvalues of (default mixing * dielectric matrix)
  average eigenvalue GAMMA=   1.3029
  2.6271  2.0872  2.0872  1.0753  1.0753  0.9335  0.9335  0.7997  0.1074

 Free energy of the ion-electron system (eV)
  ---------------------------------------------------
  alpha Z        PSCENC =      7300.31925852
  Ewald energy   TEWEN  =    -66232.83996889
  -Hartree energ DENC   =     -9350.74576736
  -exchange      EXHF   =         0.00000000
  -V(xc)+E(xc)   XCENC  =       360.33963645
  PAW double counting   =     58051.94236953   -58986.97640601
  entropy T*S    EENTRO =        -0.07504399
  eigenvalues    EBANDS =      3775.96064072
  atomic energy  EATOM  =     64202.55724146
  Solvation  Ediel_sol  =         0.00000000
  ---------------------------------------------------
  free energy    TOTEN  =      -879.51803958 eV

  energy without entropy =     -879.44299559  energy(sigma->0) =     -879.49302492


--------------------------------------------------------------------------------------------------------




--------------------------------------- Iteration      1(  15)  ---------------------------------------


    POTLOK:  cpu time    0.3121: real time    0.3125
    SETDIJ:  cpu time    0.0560: real time    0.0560
    EDDIAG:  cpu time    8.4921: real time    8.4928
  RMM-DIIS:  cpu time   28.6887: real time   28.6910
    ORTHCH:  cpu time    2.2497: real time    2.2499
       DOS:  cpu time    0.0090: real time    0.0090
    CHARGE:  cpu time    2.4010: real time    2.4012
    MIXING:  cpu time    0.0127: real time    0.0127
    --------------------------------------------
      LOOP:  cpu time   42.2213: real time   42.2251

 eigenvalue-minimisations  :  4421
 total energy-change (2. order) : 0.7710580E-04  (-0.1742319E-03)
 number of electron     864.0000752 magnetization 
 augmentation part      444.6175810 magnetization 

 Broyden mixing:
  rms(total) = 0.57429E-02    rms(broyden)= 0.57428E-02
  rms(prec ) = 0.75787E-02
  weight for this iteration     100.00

 eigenvalues of (default mixing * dielectric matrix)
  average eigenvalue GAMMA=   1.3608
  3.0442  2.5159  2.5159  1.1201  0.9222  0.9222  0.9005  0.7796  0.7796  0.1074

 Free energy of the ion-electron system (eV)
  ---------------------------------------------------
  alpha Z        PSCENC =      7300.31925852
  Ewald energy   TEWEN  =    -66232.83996889
  -Hartree energ DENC   =     -9348.32604315
  -exchange      EXHF   =         0.00000000
  -V(xc)+E(xc)   XCENC  =       360.23463017
  PAW double counting   =     58044.20747735   -58979.35143749
  entropy T*S    EENTRO =        -0.07523276
  eigenvalues    EBANDS =      3773.75611231
  atomic energy  EATOM  =     64202.55724146
  Solvation  Ediel_sol  =         0.00000000
  ---------------------------------------------------
  free energy    TOTEN  =      -879.51796248 eV

  energy without entropy =     -879.44272972  energy(sigma->0) =     -879.49288489


--------------------------------------------------------------------------------------------------------




--------------------------------------- Iteration      1(  16)  ---------------------------------------


    POTLOK:  cpu time    0.2769: real time    0.2773
    SETDIJ:  cpu time    0.0532: real time    0.0532
    EDDIAG:  cpu time    7.0021: real time    7.0029
  RMM-DIIS:  cpu time   37.2822: real time   37.2909
    ORTHCH:  cpu time    2.2835: real time    2.2837
       DOS:  cpu time    0.0093: real time    0.0093
    CHARGE:  cpu time    2.9758: real time    2.9761
    MIXING:  cpu time    0.0191: real time    0.0191
    --------------------------------------------
      LOOP:  cpu time   49.9022: real time   49.9124

 eigenvalue-minimisations  :  6041
 total energy-change (2. order) : 0.5687286E-04  (-0.8650143E-05)
 number of electron     864.0000752 magnetization 
 augmentation part      444.6215796 magnetization 

 Broyden mixing:
  rms(total) = 0.72082E-02    rms(broyden)= 0.72082E-02
  rms(prec ) = 0.99873E-02
  weight for this iteration     100.00

 eigenvalues of (default mixing * dielectric matrix)
  average eigenvalue GAMMA=   1.3223
  2.6176  2.2987  1.7494  1.7494  1.5019  0.9196  0.9196  0.9520  0.9520  0.7782
  0.1074

 Free energy of the ion-electron system (eV)
  ---------------------------------------------------
  alpha Z        PSCENC =      7300.31925852
  Ewald energy   TEWEN  =    -66232.83996889
  -Hartree energ DENC   =     -9348.79399270
  -exchange      EXHF   =         0.00000000
  -V(xc)+E(xc)   XCENC  =       360.25834075
  PAW double counting   =     58041.40886725   -58976.40442963
  entropy T*S    EENTRO =        -0.07460283
  eigenvalues    EBANDS =      3774.05138046
  atomic energy  EATOM  =     64202.55724146
  Solvation  Ediel_sol  =         0.00000000
  ---------------------------------------------------
  free energy    TOTEN  =      -879.51790560 eV

  energy without entropy =     -879.44330277  energy(sigma->0) =     -879.49303799


--------------------------------------------------------------------------------------------------------




--------------------------------------- Iteration      1(  17)  ---------------------------------------


    POTLOK:  cpu time    0.3300: real time    0.3304
    SETDIJ:  cpu time    0.0586: real time    0.0586
    EDDIAG:  cpu time    7.3559: real time    7.3566
  RMM-DIIS:  cpu time   26.3177: real time   26.3214
    ORTHCH:  cpu time    2.2870: real time    2.2872
       DOS:  cpu time    0.0092: real time    0.0092
    CHARGE:  cpu time    2.9869: real time    2.9871
    MIXING:  cpu time    0.0204: real time    0.0204
    --------------------------------------------
      LOOP:  cpu time   39.3657: real time   39.3709

 eigenvalue-minimisations  :  4466
[...]
   0.104E-01 0.103E-01 0.143E-04   -.205E-01 -.202E-01 -.277E-04   -.763E-20 0.193E-19 0.932E-19   0.604E-08 0.476E-08 -.303E-09
   -.105E-01 -.143E-04 0.142E-04   0.205E-01 0.277E-04 -.277E-04   0.390E-19 0.440E-19 0.779E-19   -.467E-08 0.278E-09 -.303E-09
   -.105E-01 0.103E-01 -.103E-01   0.205E-01 -.202E-01 0.202E-01   -.932E-20 -.143E-19 0.559E-19   -.465E-08 0.474E-08 -.619E-08
   -.143E-04 -.103E-01 -.103E-01   0.277E-04 0.202E-01 0.202E-01   -.424E-20 0.169E-19 -.906E-19   0.274E-09 -.289E-08 -.289E-08
   -.143E-04 0.143E-04 0.143E-04   0.277E-04 -.277E-04 -.277E-04   0.508E-20 0.169E-20 0.000E+00   0.278E-09 -.303E-09 -.303E-09
   0.103E-01 -.103E-01 0.143E-04   -.202E-01 0.202E-01 -.277E-04   0.557E-20 -.220E-19 -.508E-20   0.476E-08 -.620E-08 -.303E-09
   0.103E-01 0.143E-04 -.103E-01   -.202E-01 -.277E-04 0.202E-01   -.148E-19 0.491E-19 -.525E-19   0.476E-08 -.303E-09 -.620E-08
   -.103E-01 -.103E-01 -.103E-01   0.202E-01 0.202E-01 0.202E-01   -.254E-20 -.102E-19 -.593E-20   -.287E-08 -.287E-08 -.287E-08
   -.103E-01 0.143E-04 0.142E-04   0.202E-01 -.277E-04 -.277E-04   0.339E-19 0.432E-19 0.203E-19   -.619E-08 -.303E-09 -.303E-09
   0.143E-04 -.103E-01 0.142E-04   -.277E-04 0.202E-01 -.277E-04   -.169E-20 -.407E-19 0.390E-19   -.303E-09 -.619E-08 -.303E-09
   0.143E-04 0.143E-04 -.103E-01   -.277E-04 -.277E-04 0.202E-01   0.424E-20 -.161E-19 -.126E-18   -.303E-09 -.303E-09 -.619E-08
   0.105E-01 -.103E-01 -.103E-01   -.205E-01 0.202E-01 0.202E-01   -.707E-20 -.203E-19 0.305E-19   0.267E-08 -.287E-08 -.287E-08
   0.105E-01 0.143E-04 0.143E-04   -.205E-01 -.277E-04 -.277E-04   -.157E-19 0.474E-19 0.237E-19   0.604E-08 -.303E-09 -.303E-09
   -.104E-01 -.103E-01 0.142E-04   0.205E-01 0.202E-01 -.277E-04   0.195E-19 0.593E-20 0.119E-19   -.466E-08 -.620E-08 -.303E-09
   -.104E-01 0.143E-04 -.103E-01   0.205E-01 -.277E-04 0.202E-01   0.178E-19 0.424E-19 -.130E-18   -.466E-08 -.303E-09 -.620E-08
   -.143E-04 0.104E-01 -.103E-01   0.277E-04 -.205E-01 0.202E-01   -.424E-20 -.781E-20 -.678E-20   0.274E-09 0.269E-08 -.289E-08
   -.143E-04 -.105E-01 0.142E-04   0.277E-04 0.205E-01 -.277E-04   0.110E-19 -.847E-21 0.254E-19   0.278E-09 -.467E-08 -.303E-09
   0.103E-01 0.104E-01 0.143E-04   -.202E-01 -.205E-01 -.277E-04   0.111E-19 0.317E-19 -.644E-19   0.476E-08 0.604E-08 -.303E-09
   0.103E-01 -.105E-01 -.103E-01   -.202E-01 0.205E-01 0.202E-01   -.104E-19 -.618E-19 0.678E-19   0.474E-08 -.465E-08 -.619E-08
   -.103E-01 0.105E-01 -.103E-01   0.202E-01 -.205E-01 0.202E-01   0.847E-20 -.188E-20 0.949E-19   -.287E-08 0.267E-08 -.287E-08
   -.103E-01 -.104E-01 0.142E-04   0.202E-01 0.205E-01 -.277E-04   0.229E-19 -.440E-19 0.872E-19   -.620E-08 -.466E-08 -.303E-09
   0.143E-04 0.105E-01 0.143E-04   -.277E-04 -.205E-01 -.277E-04   -.847E-20 -.225E-19 0.695E-19   -.303E-09 0.604E-08 -.303E-09
   0.143E-04 -.104E-01 -.103E-01   -.277E-04 0.205E-01 0.202E-01   -.254E-20 0.424E-19 0.500E-19   -.303E-09 -.466E-08 -.620E-08
   0.105E-01 0.105E-01 -.103E-01   -.205E-01 -.205E-01 0.202E-01   0.860E-20 -.442E-20 0.576E-19   0.267E-08 0.267E-08 -.287E-08
   0.104E-01 -.104E-01 0.143E-04   -.205E-01 0.205E-01 -.277E-04   -.149E-20 0.254E-20 0.813E-19   0.604E-08 -.466E-08 -.303E-09
   -.104E-01 0.104E-01 0.143E-04   0.205E-01 -.205E-01 -.277E-04   0.102E-19 -.807E-20 0.966E-19   -.466E-08 0.604E-08 -.303E-09
   -.105E-01 -.105E-01 -.103E-01   0.205E-01 0.205E-01 0.202E-01   0.847E-21 0.762E-20 0.932E-20   -.465E-08 -.465E-08 -.619E-08
   -.143E-04 -.143E-04 0.105E-01   0.277E-04 0.277E-04 -.205E-01   -.508E-20 0.356E-19 0.729E-19   0.274E-09 0.274E-09 0.268E-08
   -.143E-04 0.103E-01 -.104E-01   0.277E-04 -.202E-01 0.205E-01   0.847E-20 -.190E-19 -.440E-19   0.278E-09 0.475E-08 -.466E-08
   0.103E-01 -.143E-04 -.104E-01   -.202E-01 0.277E-04 0.205E-01   0.462E-21 -.339E-20 -.134E-18   0.475E-08 0.278E-09 -.466E-08
   0.103E-01 0.103E-01 0.105E-01   -.202E-01 -.202E-01 -.205E-01   -.132E-19 0.441E-19 0.135E-19   0.474E-08 0.474E-08 0.603E-08
   -.103E-01 -.143E-04 0.104E-01   0.202E-01 0.277E-04 -.205E-01   0.169E-19 -.169E-20 0.100E-18   -.289E-08 0.274E-09 0.269E-08
   -.103E-01 0.103E-01 -.105E-01   0.202E-01 -.202E-01 0.205E-01   -.136E-19 0.644E-20 -.754E-19   -.619E-08 0.474E-08 -.465E-08
   0.143E-04 -.143E-04 -.105E-01   -.277E-04 0.277E-04 0.205E-01   0.339E-20 0.440E-19 -.864E-19   -.303E-09 0.278E-09 -.467E-08
   0.143E-04 0.103E-01 0.104E-01   -.277E-04 -.202E-01 -.205E-01   0.678E-20 -.504E-20 -.424E-19   -.303E-09 0.476E-08 0.604E-08
   0.104E-01 -.143E-04 0.104E-01   -.205E-01 0.277E-04 -.205E-01   0.173E-19 0.305E-19 -.321E-19   0.269E-08 0.274E-09 0.269E-08
   0.105E-01 0.103E-01 -.105E-01   -.205E-01 -.202E-01 0.205E-01   0.192E-19 0.420E-19 -.322E-19   0.603E-08 0.474E-08 -.465E-08
   -.104E-01 -.143E-04 -.104E-01   0.205E-01 0.277E-04 0.205E-01   0.508E-20 -.305E-19 -.491E-19   -.466E-08 0.278E-09 -.466E-08
   -.105E-01 0.103E-01 0.105E-01   0.205E-01 -.202E-01 -.205E-01   0.203E-19 -.220E-19 -.644E-19   -.465E-08 0.474E-08 0.603E-08
   -.143E-04 -.103E-01 0.104E-01   0.277E-04 0.202E-01 -.205E-01   0.847E-20 -.644E-19 0.280E-19   0.274E-09 -.289E-08 0.269E-08
   -.143E-04 0.143E-04 -.105E-01   0.277E-04 -.277E-04 0.205E-01   -.932E-20 -.390E-19 -.407E-19   0.278E-09 -.303E-09 -.467E-08
   0.103E-01 -.103E-01 -.105E-01   -.202E-01 0.202E-01 0.205E-01   0.470E-20 -.136E-19 -.356E-19   0.474E-08 -.619E-08 -.465E-08
   0.103E-01 0.143E-04 0.104E-01   -.202E-01 -.277E-04 -.205E-01   -.239E-19 0.610E-19 -.844E-22   0.476E-08 -.303E-09 0.604E-08
   -.103E-01 -.103E-01 0.105E-01   0.202E-01 0.202E-01 -.205E-01   0.339E-20 -.237E-19 -.491E-19   -.287E-08 -.287E-08 0.267E-08
   -.103E-01 0.143E-04 -.104E-01   0.202E-01 -.277E-04 0.205E-01   0.296E-19 0.356E-19 -.957E-19   -.620E-08 -.303E-09 -.466E-08
   0.143E-04 -.103E-01 -.104E-01   -.277E-04 0.202E-01 0.205E-01   0.110E-19 0.119E-19 -.288E-19   -.303E-09 -.620E-08 -.466E-08
   0.143E-04 0.143E-04 0.105E-01   -.277E-04 -.277E-04 -.205E-01   0.847E-20 0.508E-20 0.163E-18   -.303E-09 -.303E-09 0.604E-08
   0.105E-01 -.103E-01 0.105E-01   -.205E-01 0.202E-01 -.205E-01   0.375E-20 -.474E-19 -.262E-19   0.267E-08 -.287E-08 0.267E-08
   0.104E-01 0.143E-04 -.104E-01   -.205E-01 -.277E-04 0.205E-01   -.809E-20 0.491E-19 -.584E-19   0.604E-08 -.303E-09 -.466E-08
   -.105E-01 -.103E-01 -.105E-01   0.205E-01 0.202E-01 0.205E-01   0.424E-20 -.152E-19 -.830E-19   -.465E-08 -.619E-08 -.465E-08
   -.104E-01 0.143E-04 0.104E-01   0.205E-01 -.277E-04 -.205E-01   0.102E-19 0.169E-20 0.677E-19   -.466E-08 -.303E-09 0.604E-08
   -.143E-04 0.104E-01 0.104E-01   0.277E-04 -.205E-01 -.205E-01   -.169E-20 0.267E-19 0.356E-19   0.274E-09 0.269E-08 0.269E-08
   -.143E-04 -.104E-01 -.104E-01   0.277E-04 0.205E-01 0.205E-01   0.169E-20 0.847E-21 -.296E-19   0.278E-09 -.466E-08 -.466E-08
   0.103E-01 0.105E-01 -.105E-01   -.202E-01 -.205E-01 0.205E-01   -.803E-20 0.263E-20 0.474E-19   0.474E-08 0.603E-08 -.465E-08
   0.103E-01 -.105E-01 0.105E-01   -.202E-01 0.205E-01 -.205E-01   -.297E-20 -.373E-19 -.424E-19   0.474E-08 -.465E-08 0.603E-08
   -.103E-01 0.105E-01 0.105E-01   0.202E-01 -.205E-01 -.205E-01   0.254E-19 -.140E-19 0.768E-20   -.287E-08 0.267E-08 0.267E-08
   -.103E-01 -.105E-01 -.105E-01   0.202E-01 0.205E-01 0.205E-01   0.847E-20 0.169E-20 -.305E-19   -.619E-08 -.465E-08 -.465E-08
   0.143E-04 0.104E-01 -.104E-01   -.277E-04 -.205E-01 0.205E-01   0.678E-20 -.109E-19 -.288E-19   -.303E-09 0.604E-08 -.466E-08
   0.143E-04 -.104E-01 0.104E-01   -.277E-04 0.205E-01 -.205E-01   0.339E-20 0.373E-19 0.804E-19   -.303E-09 -.466E-08 0.604E-08
   0.105E-01 0.105E-01 0.105E-01   -.205E-01 -.205E-01 -.205E-01   0.148E-19 -.214E-20 0.496E-22   0.267E-08 0.267E-08 0.267E-08
   0.105E-01 -.105E-01 -.105E-01   -.205E-01 0.205E-01 0.205E-01   0.113E-19 -.102E-19 -.813E-19   0.603E-08 -.465E-08 -.465E-08
   -.105E-01 0.105E-01 -.105E-01   0.205E-01 -.205E-01 0.205E-01   -.339E-20 0.297E-19 0.169E-19   -.465E-08 0.603E-08 -.465E-08
   -.105E-01 -.105E-01 0.105E-01   0.205E-01 0.205E-01 -.205E-01   0.254E-19 -.508E-20 0.118E-19   -.465E-08 -.465E-08 0.603E-08
 -----------------------------------------------------------------------------------------------
   0.197E-08 0.201E-08 0.192E-08   -.388E-12 -.207E-11 -.539E-11   0.329E-18 0.347E-18 0.116E-17   -.198E-08 -.198E-08 -.198E-08
 
 
 POSITION                                       TOTAL-FORCE (eV/Angst)
 -----------------------------------------------------------------------------------
      0.00000      0.00000      0.00000        -0.000000     -0.000000     -0.000000
      0.00000      1.72388      1.72388        -0.000000     -0.000000     -0.000000
      1.72388      0.00000      1.72388        -0.000000      0.000000     -0.000000
      1.72388      1.72388      0.00000         0.000000      0.000000      0.000000
      3.44769      0.00000      0.00000         0.000000     -0.000000     -0.000000
      3.44769      1.72388      1.72388         0.000000      0.000000     -0.000000
      5.17157      0.00000      1.72388        -0.000000     -0.000000     -0.000000
      5.17157      1.72388      0.00000         0.000000     -0.000000      0.000000
      6.89545      0.00000      0.00000         0.000000      0.000000     -0.000000
      6.89545      1.72388      1.72388         0.000000     -0.000000     -0.000000
      8.61926      0.00000      1.72388         0.000000      0.000000      0.000000
      8.61926      1.72388      0.00000         0.000000     -0.000000     -0.000000
      0.00000      3.44769      0.00000        -0.000000      0.000000      0.000000
      0.00000      5.17157      1.72388        -0.000000      0.000000      0.000000
      1.72388      3.44769      1.72388         0.000000     -0.000000     -0.000000
      1.72388      5.17157      0.00000        -0.000000      0.000000     -0.000000
      3.44769      3.44769      0.00000         0.000000     -0.000000     -0.000000
      3.44769      5.17157      1.72388        -0.000000      0.000000      0.000000
      5.17157      3.44769      1.72388        -0.000000      0.000000      0.000000
      5.17157      5.17157      0.00000         0.000000      0.000000     -0.000000
      6.89545      3.44769      0.00000         0.000000     -0.000000     -0.000000
      6.89545      5.17157      1.72388         0.000000     -0.000000      0.000000
      8.61926      3.44769      1.72388        -0.000000      0.000000     -0.000000
      8.61926      5.17157      0.00000         0.000000      0.000000      0.000000
      0.00000      6.89545      0.00000        -0.000000     -0.000000      0.000000
      0.00000      8.61926      1.72388        -0.000000     -0.000000      0.000000
      1.72388      6.89545      1.72388         0.000000      0.000000      0.000000
      1.72388      8.61926      0.00000        -0.000000     -0.000000      0.000000
      3.44769      6.89545      0.00000         0.000000     -0.000000      0.000000
      3.44769      8.61926      1.72388        -0.000000     -0.000000      0.000000
      5.17157      6.89545      1.72388        -0.000000      0.000000     -0.000000
      5.17157      8.61926      0.00000         0.000000      0.000000      0.000000
      6.89545      6.89545      0.00000         0.000000      0.000000      0.000000
      6.89545      8.61926      1.72388         0.000000      0.000000      0.000000
      8.61926      6.89545      1.72388         0.000000     -0.000000      0.000000
      8.61926      8.61926      0.00000        -0.000000     -0.000000      0.000000
      0.00000     -0.00000      3.44769        -0.000000     -0.000000      0.000000
      0.00000      1.72388      5.17157        -0.000000     -0.000000     -0.000000
      1.72388     -0.00000      5.17157         0.000000      0.000000     -0.000000
      1.72388      1.72388      3.44769        -0.000000     -0.000000     -0.000000
      3.44769      0.00000      3.44769        -0.000000      0.000000      0.000000
      3.44769      1.72388      5.17157        -0.000000      0.000000     -0.000000
      5.17157      0.00000      5.17157        -0.000000     -0.000000      0.000000
      5.17157      1.72388      3.44769         0.000000      0.000000     -0.000000
      6.89545      0.00000      3.44769         0.000000      0.000000      0.000000
      6.89545      1.72388      5.17157         0.000000      0.000000     -0.000000
      8.61926      0.00000      5.17157         0.000000     -0.000000      0.000000
      8.61926      1.72388      3.44769         0.000000     -0.000000     -0.000000
      0.00000      3.44769      3.44769        -0.000000      0.000000     -0.000000
      0.00000      5.17157      5.17157        -0.000000     -0.000000      0.000000
      1.72388      3.44769      5.17157        -0.000000     -0.000000     -0.000000
      1.72388      5.17157      3.44769        -0.000000     -0.000000     -0.000000
      3.44769      3.44769      3.44769        -0.000000     -0.000000      0.000000
      3.44769      5.17157      5.17157         0.000000      0.000000      0.000000
      5.17157      3.44769      5.17157        -0.000000     -0.000000     -0.000000
      5.17157      5.17157      3.44769        -0.000000      0.000000      0.000000
      6.89545      3.44769      3.44769         0.000000     -0.000000     -0.000000
      6.89545      5.17157      5.17157         0.000000     -0.000000      0.000000
      8.61926      3.44769      5.17157         0.000000      0.000000      0.000000
      8.61926      5.17157      3.44769        -0.000000     -0.000000     -0.000000
      0.00000      6.89545      3.44769        -0.000000     -0.000000     -0.000000
      0.00000      8.61926      5.17157        -0.000000     -0.000000      0.000000
      1.72388      6.89545      5.17157         0.000000      0.000000      0.000000
      1.72388      8.61926      3.44769        -0.000000     -0.000000     -0.000000
      3.44769      6.89545      3.44769        -0.000000      0.000000      0.000000
      3.44769      8.61926      5.17157         0.000000     -0.000000      0.000000
      5.17157      6.89545      5.17157         0.000000     -0.000000      0.000000
      5.17157      8.61926      3.44769         0.000000     -0.000000     -0.000000
      6.89545      6.89545      3.44769         0.000000     -0.000000     -0.000000
      6.89545      8.61926      5.17157         0.000000     -0.000000      0.000000
      8.61926      6.89545      5.17157         0.000000      0.000000      0.000000
      8.61926      8.61926      3.44769        -0.000000      0.000000     -0.000000
      0.00000     -0.00000      6.89545        -0.000000     -0.000000     -0.000000
      0.00000      1.72388      8.61926        -0.000000     -0.000000      0.000000
      1.72388     -0.00000      8.61926        -0.000000      0.000000      0.000000
      1.72388      1.72388      6.89545        -0.000000      0.000000      0.000000
      3.44769     -0.00000      6.89545        -0.000000     -0.000000     -0.000000
      3.44769      1.72388      8.61926         0.000000      0.000000      0.000000
      5.17157     -0.00000      8.61926         0.000000     -0.000000     -0.000000
      5.17157      1.72388      6.89545         0.000000      0.000000     -0.000000
      6.89545      0.00000      6.89545         0.000000      0.000000     -0.000000
      6.89545      1.72388      8.61926         0.000000      0.000000      0.000000
      8.61926      0.00000      8.61926         0.000000     -0.000000      0.000000
      8.61926      1.72388      6.89545         0.000000      0.000000     -0.000000
      0.00000      3.44769      6.89545        -0.000000      0.000000      0.000000
      0.00000      5.17157      8.61926        -0.000000      0.000000     -0.000000
      1.72388      3.44769      8.61926         0.000000      0.000000      0.000000
      1.72388      5.17157      6.89545        -0.000000     -0.000000      0.000000
      3.44769      3.44769      6.89545        -0.000000     -0.000000     -0.000000
      3.44769      5.17157      8.61926         0.000000     -0.000000     -0.000000
      5.17157      3.44769      8.61926        -0.000000      0.000000     -0.000000
      5.17157      5.17157      6.89545         0.000000      0.000000     -0.000000
      6.89545      3.44769      6.89545         0.000000     -0.000000     -0.000000
      6.89545      5.17157      8.61926         0.000000     -0.000000     -0.000000
      8.61926      3.44769      8.61926        -0.000000      0.000000      0.000000
      8.61926      5.17157      6.89545        -0.000000      0.000000     -0.000000
      0.00000      6.89545      6.89545        -0.000000      0.000000      0.000000
      0.00000      8.61926      8.61926        -0.000000     -0.000000     -0.000000
      1.72388      6.89545      8.61926        -0.000000      0.000000     -0.000000
      1.72388      8.61926      6.89545        -0.000000     -0.000000      0.000000
      3.44769      6.89545      6.89545        -0.000000      0.000000      0.000000
      3.44769      8.61926      8.61926         0.000000     -0.000000      0.000000
      5.17157      6.89545      8.61926        -0.000000      0.000000     -0.000000
      5.17157      8.61926      6.89545         0.000000     -0.000000      0.000000
      6.89545      6.89545      6.89545         0.000000      0.000000      0.000000
      6.89545      8.61926      8.61926         0.000000      0.000000     -0.000000
      8.61926      6.89545      8.61926        -0.000000      0.000000     -0.000000
      8.61926      8.61926      6.89545        -0.000000      0.000000      0.000000
 -----------------------------------------------------------------------------------
    total drift:                               -0.000000      0.000000     -0.000000


--------------------------------------------------------------------------------------------------------



  FREE ENERGIE OF THE ION-ELECTRON SYSTEM (eV)
  ---------------------------------------------------
  free  energy   TOTEN  =      -879.52649196 eV

  energy  without entropy=     -879.45653968  energy(sigma->0) =     -879.50317453
 
 d Force = 0.0000000E+00[ 0.000E+00, 0.000E+00]  d Energy = 0.6798801E-04-0.680E-04
 d Force = 0.0000000E+00[ 0.000E+00, 0.000E+00]  d Ewald  =-0.1644093E+01 0.164E+01


--------------------------------------------------------------------------------------------------------


    POTLOK:  cpu time    0.2637: real time    0.2638


--------------------------------------------------------------------------------------------------------




--------------------------------------------------------------------------------------------------------


  
 reached required accuracy - stopping structural energy minimisation
     LOOP+:  cpu time  190.5326: real time  190.5568
    4ORBIT:  cpu time    0.0000: real time    0.0000

 total amount of memory used by VASP MPI-rank0   289978. kBytes
=======================================================================

   base      :      30000. kBytes
   nonlr-proj:      21162. kBytes
   fftplans  :      15529. kBytes
   grid      :      21835. kBytes
   one-center:        419. kBytes
   wavefun   :     201033. kBytes
 
  
  
 General timing and accounting informations for this job:
 ========================================================
  
                  Total CPU time used (sec):     3647.968
                            User time (sec):     3639.120
                          System time (sec):        8.847
                         Elapsed time (sec):     3648.502
  
                   Maximum memory used (kb):      347160.
                   Average memory used (kb):           0.
  
                          Minor page faults:       478299
                          Major page faults:            0
                 Voluntary context switches:         1384
