<?xml version="1.0" encoding="ISO-8859-1"?>
<modeling>
 <generator>
  <i name="program" type="string">vasp </i>
  <i name="version" type="string">5.4.4.18Apr17-6-g9f103f2a35  </i>
  <i name="subversion" type="string">(build Aug 17 2017 06:00:38) complex            parallel </i>
  <i name="platform" type="string">LinuxIFC </i>
  <i name="date" type="string">2019 07 12 </i>
  <i name="time" type="string">15:10:52 </i>
 </generator>
 <incar>
  <i type="string" name="SYSTEM">Opt</i>
  <i type="int" name="ISTART">     0</i>
  <i type="string" name="PREC">normal</i>
  <i type="string" name="ALGO"> Fast</i>
  <i type="int" name="ISPIN">     1</i>
  <i type="int" name="ICHARG">     2</i>
  <i type="int" name="NELM">   400</i>
  <i type="int" name="IBRION">     2</i>
  <i name="EDIFF">      0.00000100</i>
  <i name="EDIFFG">     -0.01000000</i>
  <i type="int" name="NSW">   100</i>
  <i type="int" name="ISIF">     3</i>
  <i name="ENCUT">    700.00000000</i>
  <i type="int" name="NGX">    72</i>
  <i type="int" name="NGY">    72</i>
  <i type="int" name="NGZ">    72</i>
  <i name="POTIM">      0.50000000</i>
  <i type="string" name="LREAL">Auto</i>
  <i type="logical" name="LWAVE"> F  </i>
  <i type="logical" name="LCHARG"> F  </i>
  <v type="int" name="KPOINT_BSE">    -1     0     0     0</v>
  <i type="int" name="NELM">   400</i>
 </incar>
 <structure name="primitive_cell" >
  <crystal>
   <varray name="basis" >
    <v>       3.44492529       0.00000000       0.00000000 </v>
    <v>       0.00000000       3.44492529       0.00000000 </v>
    <v>       0.00000000       0.00000000       3.44492524 </v>
   </varray>
   <i name="volume">     40.88268566 </i>
   <varray name="rec_basis" >
    <v>       0.29028206       0.00000000       0.00000000 </v>
    <v>       0.00000000       0.29028206       0.00000000 </v>
    <v>       0.00000000       0.00000000       0.29028206 </v>
   </varray>
  </crystal>
  <varray name="positions" >
   <v>       0.00000000       0.00000000       0.00000000 </v>
   <v>       0.00000000      -0.49998976      -0.49998975 </v>
   <v>      -0.49998976       0.00000000      -0.49998975 </v>
   <v>      -0.49998976      -0.49998976       0.00000000 </v>
  </varray>
 </structure>
 <varray name="primitive_index" >
  <v type="int" >        1 </v>
  <v type="int" >        2 </v>
  <v type="int" >        3 </v>
  <v type="int" >        4 </v>
 </varray>
 <kpoints>
  <generation param="Monkhorst-Pack">
   <v type="int" name="divisions">       4        4        4 </v>
   <v name="usershift">      0.00000000       0.00000000       0.00000000 </v>
   <v name="genvec1">      0.25000000       0.00000000       0.00000000 </v>
   <v name="genvec2">      0.00000000       0.25000000       0.00000000 </v>
   <v name="genvec3">      0.00000000       0.00000000       0.25000000 </v>
   <v name="shift">      0.50000000       0.50000000       0.50000000 </v>
  </generation>
  <varray name="kpointlist" >
   <v>       0.12500000       0.12500000       0.12500000 </v>
   <v>       0.37500000       0.12500000       0.12500000 </v>
   <v>       0.37500000       0.37500000       0.12500000 </v>
   <v>       0.37500000       0.37500000       0.37500000 </v>
  </varray>
  <varray name="weights" >
   <v>       0.12500000 </v>
   <v>       0.37500000 </v>
   <v>       0.37500000 </v>
   <v>       0.12500000 </v>
  </varray>
 </kpoints>
 <parameters>
  <separator name="general" >
   <i type="string" name="SYSTEM">Opt</i>
   <i type="logical" name="LCOMPAT"> F  </i>
  </separator>
  <separator name="electronic" >
   <i type="string" name="PREC">normal</i>
   <i name="ENMAX">    700.00000000</i>
   <i name="ENAUG">    511.36800000</i>
   <i name="EDIFF">      0.00000100</i>
   <i type="int" name="IALGO">    68</i>
   <i type="int" name="IWAVPR">    11</i>
   <i type="int" name="NBANDS">   518</i>
   <i name="NELECT">    864.00000000</i>
   <i type="int" name="TURBO">     0</i>
   <i type="int" name="IRESTART">     0</i>
   <i type="int" name="NREBOOT">     0</i>
   <i type="int" name="NMIN">     0</i>
   <i name="EREF">      0.00000000</i>
   <separator name="electronic smearing" >
    <i type="int" name="ISMEAR">     1</i>
    <i name="SIGMA">      0.20000000</i>
    <i name="KSPACING">      0.50000000</i>
    <i type="logical" name="KGAMMA"> T  </i>
   </separator>
   <separator name="electronic projectors" >
    <i type="logical" name="LREAL"> T  </i>
    <v name="ROPT">     -0.00050000</v>
    <i type="int" name="LMAXPAW">  -100</i>
    <i type="int" name="LMAXMIX">     2</i>
    <i type="logical" name="NLSPLINE"> F  </i>
   </separator>
   <separator name="electronic startup" >
    <i type="int" name="ISTART">     0</i>
    <i type="int" name="ICHARG">     2</i>
    <i type="int" name="INIWAV">     1</i>
   </separator>
   <separator name="electronic spin" >
    <i type="int" name="ISPIN">     1</i>
    <i type="logical" name="LNONCOLLINEAR"> F  </i>
    <v name="MAGMOM">      1.00000000      1.00000000      1.00000000      1.00000000      1.00000000      1.00000000      1.00000000      1.00000000      1.00000000      1.00000000      1.00000000      1.00000000      1.00000000      1.00000000      1.00000000      1.00000000      1.00000000      1.00000000      1.00000000      1.00000000
      1.00000000      1.00000000      1.00000000      1.00000000      1.00000000      1.00000000      1.00000000      1.00000000      1.00000000      1.00000000      1.00000000      1.00000000      1.00000000      1.00000000      1.00000000      1.00000000      1.00000000      1.00000000      1.00000000      1.00000000
      1.00000000      1.00000000      1.00000000      1.00000000      1.00000000      1.00000000      1.00000000      1.00000000      1.00000000      1.00000000      1.00000000      1.00000000      1.00000000      1.00000000      1.00000000      1.00000000      1.00000000      1.00000000      1.00000000      1.00000000
      1.00000000      1.00000000      1.00000000      1.00000000      1.00000000      1.00000000      1.00000000      1.00000000      1.00000000      1.00000000      1.00000000      1.00000000      1.00000000      1.00000000      1.00000000      1.00000000      1.00000000      1.00000000      1.00000000      1.00000000
      1.00000000      1.00000000      1.00000000      1.00000000      1.00000000      1.00000000      1.00000000      1.00000000      1.00000000      1.00000000      1.00000000      1.00000000      1.00000000      1.00000000      1.00000000      1.00000000      1.00000000      1.00000000      1.00000000      1.00000000
      1.00000000      1.00000000      1.00000000      1.00000000      1.00000000      1.00000000      1.00000000      1.00000000</v>
    <i name="NUPDOWN">     -1.00000000</i>
    <i type="logical" name="LSORBIT"> F  </i>
    <v name="SAXIS">      0.00000000      0.00000000      1.00000000</v>
    <i type="logical" name="LSPIRAL"> F  </i>
    <v name="QSPIRAL">      0.00000000      0.00000000      0.00000000</v>
    <i type="logical" name="LZEROZ"> F  </i>
   </separator>
   <separator name="electronic exchange-correlation" >
    <i type="logical" name="LASPH"> F  </i>
    <i type="logical" name="LMETAGGA"> F  </i>
   </separator>
   <separator name="electronic convergence" >
    <i type="int" name="NELM">   400</i>
    <i type="int" name="NELMDL">    -5</i>
    <i type="int" name="NELMIN">     2</i>
    <i name="ENINI">    700.00000000</i>
    <separator name="electronic convergence detail" >
     <i type="logical" name="LDIAG"> T  </i>
     <i type="logical" name="LSUBROT"> F  </i>
     <i name="WEIMIN">      0.00100000</i>
     <i name="EBREAK">      0.00000000</i>
     <i name="DEPER">      0.30000000</i>
     <i type="int" name="NRMM">     4</i>
     <i name="TIME">      0.40000000</i>
    </separator>
   </separator>
   <separator name="electronic mixer" >
    <i name="AMIX">      0.40000000</i>
    <i name="BMIX">      1.00000000</i>
    <i name="AMIN">      0.10000000</i>
    <i name="AMIX_MAG">      1.60000000</i>
    <i name="BMIX_MAG">      1.00000000</i>
    <separator name="electronic mixer details" >
     <i type="int" name="IMIX">     4</i>
     <i type="logical" name="MIXFIRST"> F  </i>
     <i type="int" name="MAXMIX">   -45</i>
     <i name="WC">    100.00000000</i>
     <i type="int" name="INIMIX">     1</i>
     <i type="int" name="MIXPRE">     1</i>
     <i type="int" name="MREMOVE">     5</i>
    </separator>
   </separator>
   <separator name="electronic dipolcorrection" >
    <i type="logical" name="LDIPOL"> F  </i>
    <i type="logical" name="LMONO"> F  </i>
    <i type="int" name="IDIPOL">     0</i>
    <i name="EPSILON">      1.00000000</i>
    <v name="DIPOL">   -100.00000000   -100.00000000   -100.00000000</v>
    <i name="EFIELD">      0.00000000</i>
   </separator>
  </separator>
  <separator name="grids" >
   <i type="int" name="NGX">    72</i>
   <i type="int" name="NGY">    72</i>
   <i type="int" name="NGZ">    72</i>
   <i type="int" name="NGXF">   144</i>
   <i type="int" name="NGYF">   144</i>
   <i type="int" name="NGZF">   144</i>
   <i type="logical" name="ADDGRID"> F  </i>
  </separator>
  <separator name="ionic" >
   <i type="int" name="NSW">   100</i>
   <i type="int" name="IBRION">     2</i>
   <i type="int" name="MDALGO">     0</i>
   <i type="int" name="ISIF">     3</i>
   <i name="PSTRESS">      0.00000000</i>
   <i name="EDIFFG">     -0.01000000</i>
   <i type="int" name="NFREE">     1</i>
   <i name="POTIM">      0.50000000</i>
   <i name="SMASS">     -3.00000000</i>
   <i name="SCALEE">      1.00000000</i>
  </separator>
  <separator name="ionic md" >
   <i name="TEBEG">      0.00010000</i>
   <i name="TEEND">      0.00010000</i>
   <i type="int" name="NBLOCK">     1</i>
   <i type="int" name="KBLOCK">   100</i>
   <i type="int" name="NPACO">   256</i>
   <i name="APACO">     16.00000000</i>
  </separator>
  <separator name="symmetry" >
   <i type="int" name="ISYM">     2</i>
   <i name="SYMPREC">      0.00001000</i>
  </separator>
  <separator name="dos" >
   <i type="int" name="LORBIT">     0</i>
   <v name="RWIGS">     -1.00000000</v>
   <i type="int" name="NEDOS">   301</i>
   <i name="EMIN">     10.00000000</i>
   <i name="EMAX">    -10.00000000</i>
   <i name="EFERMI">      0.00000000</i>
  </separator>
  <separator name="writing" >
   <i type="int" name="NWRITE">     2</i>
   <i type="logical" name="LWAVE"> F  </i>
   <i type="logical" name="LDOWNSAMPLE"> F  </i>
   <i type="logical" name="LCHARG"> F  </i>
   <i type="logical" name="LPARD"> F  </i>
   <i type="logical" name="LVTOT"> F  </i>
   <i type="logical" name="LVHAR"> F  </i>
   <i type="logical" name="LELF"> F  </i>
   <i type="logical" name="LOPTICS"> F  </i>
   <v name="STM">      0.00000000      0.00000000      0.00000000      0.00000000      0.00000000      0.00000000      0.00000000</v>
  </separator>
  <separator name="performance" >
   <i type="int" name="NPAR">     2</i>
   <i type="int" name="NSIM">     4</i>
   <i type="int" name="NBLK">    -1</i>
   <i type="logical" name="LPLANE"> T  </i>
   <i type="logical" name="LSCALAPACK"> T  </i>
   <i type="logical" name="LSCAAWARE"> F  </i>
   <i type="logical" name="LSCALU"> F  </i>
   <i type="logical" name="LASYNC"> F  </i>
   <i type="logical" name="LORBITALREAL"> F  </i>
  </separator>
  <separator name="miscellaneous" >
   <i type="int" name="IDIOT">     3</i>
   <i type="int" name="ISPECIAL">     0</i>
   <i type="logical" name="LMUSIC"> F  </i>
   <v name="POMASS">     55.84700000</v>
   <v name="DARWINR">      0.00000000</v>
   <v name="DARWINV">      1.00000000</v>
   <i type="logical" name="LCORR"> T  </i>
  </separator>
  <i type="logical" name="GGA_COMPAT"> T  </i>
  <i type="logical" name="LBERRY"> F  </i>
  <i type="int" name="ICORELEVEL">     0</i>
  <i type="logical" name="LDAU"> F  </i>
  <i type="int" name="I_CONSTRAINED_M">     0</i>
  <separator name="electronic exchange-correlation" >
   <i type="string" name="GGA">--</i>
   <i type="int" name="VOSKOWN">     0</i>
   <i type="logical" name="LHFCALC"> F  </i>
   <i type="string" name="PRECFOCK"></i>
   <i type="logical" name="LSYMGRAD"> F  </i>
   <i type="logical" name="LHFONE"> F  </i>
   <i type="logical" name="LRHFCALC"> F  </i>
   <i type="logical" name="LTHOMAS"> F  </i>
   <i type="logical" name="LMODELHF"> F  </i>
   <i name="ENCUT4O">     -1.00000000</i>
   <i type="int" name="EXXOEP">     0</i>
   <i type="int" name="FOURORBIT">     0</i>
   <i name="AEXX">      0.00000000</i>
   <i name="HFALPHA">      0.00000000</i>
   <i name="MCALPHA">      0.00000000</i>
   <i name="ALDAX">      1.00000000</i>
   <i name="AGGAX">      1.00000000</i>
   <i name="ALDAC">      1.00000000</i>
   <i name="AGGAC">      1.00000000</i>
   <i type="int" name="NKREDX">     1</i>
   <i type="int" name="NKREDY">     1</i>
   <i type="int" name="NKREDZ">     1</i>
   <i type="logical" name="SHIFTRED"> F  </i>
   <i type="logical" name="ODDONLY"> F  </i>
   <i type="logical" name="EVENONLY"> F  </i>
   <i type="int" name="LMAXFOCK">     0</i>
   <i type="int" name="NMAXFOCKAE">     0</i>
   <i type="logical" name="LFOCKAEDFT"> F  </i>
   <i name="HFSCREEN">      0.00000000</i>
   <i name="HFSCREENC">      0.00000000</i>
   <i type="int" name="NBANDSGWLOW">     0</i>
  </separator>
  <separator name="vdW DFT" >
   <i type="logical" name="LUSE_VDW"> F  </i>
   <i name="Zab_VDW">     -0.84910000</i>
   <i name="PARAM1">      0.12340000</i>
   <i name="PARAM2">      1.00000000</i>
   <i name="PARAM3">      0.00000000</i>
  </separator>
  <separator name="model GW" >
   <i type="int" name="MODEL_GW">     0</i>
   <i name="MODEL_EPS0">      6.13252964</i>
   <i name="MODEL_ALPHA">      1.00000000</i>
  </separator>
  <separator name="linear response parameters" >
   <i type="logical" name="LEPSILON"> F  </i>
   <i type="logical" name="LRPA"> F  </i>
   <i type="logical" name="LNABLA"> F  </i>
   <i type="logical" name="LVEL"> F  </i>
   <i type="int" name="KINTER">     0</i>
   <i name="CSHIFT">      0.10000000</i>
   <i name="OMEGAMAX">     -1.00000000</i>
   <i name="DEG_THRESHOLD">      0.00200000</i>
   <i name="RTIME">     -0.10000000</i>
   <i name="WPLASMAI">      0.00000000</i>
   <v name="DFIELD">      0.00000000      0.00000000      0.00000000</v>
   <v name="WPLASMA">      0.00000000      0.00000000      0.00000000      0.00000000      0.00000000      0.00000000      0.00000000      0.00000000      0.00000000</v>
  </separator>
  <separator name="orbital magnetization" >
   <i type="logical" name="NUCIND"> F  </i>
   <v name="MAGPOS">      0.00000000      0.00000000      0.00000000</v>
   <i type="logical" name="LNICSALL"> T  </i>
   <i type="logical" name="ORBITALMAG"> F  </i>
   <i type="logical" name="LMAGBLOCH"> F  </i>
   <i type="logical" name="LCHIMAG"> F  </i>
   <i type="logical" name="LGAUGE"> T  </i>
   <i type="int" name="MAGATOM">     0</i>
   <v name="MAGDIPOL">      0.00000000      0.00000000      0.00000000</v>
   <v name="AVECCONST">      0.00000000      0.00000000      0.00000000</v>
  </separator>
  <separator name="response functions" >
   <i type="logical" name="LADDER"> F  </i>
   <i type="logical" name="LRPAFORCE"> F  </i>
   <i type="logical" name="LFXC"> F  </i>
   <i type="logical" name="LHARTREE"> T  </i>
   <i type="int" name="IBSE">     0</i>
   <v type="int" name="KPOINT">    -1     0     0     0</v>
   <i type="logical" name="LTCTE"> F  </i>
   <i type="logical" name="LTETE"> F  </i>
   <i type="logical" name="LTRIPLET"> F  </i>
   <i type="logical" name="LFXCEPS"> F  </i>
   <i type="logical" name="LFXHEG"> F  </i>
   <i type="int" name="NATURALO">     2</i>
   <i type="logical" name="L2ORDER"> F  </i>
   <i type="logical" name="LMP2LT"> F  </i>
   <i type="logical" name="LUSEW"> F  </i>
   <i name="ENCUTGW">     -2.00000000</i>
   <i name="ENCUTGWSOFT">     -2.00000000</i>
   <i name="ENCUTLF">     -1.00000000</i>
   <i type="int" name="LMAXMP2">    -1</i>
   <i name="SCISSOR">      0.00000000</i>
   <i type="int" name="NOMEGA">     0</i>
   <i type="int" name="NOMEGAR">     0</i>
   <i type="int" name="NBANDSGW">    -1</i>
   <i type="int" name="NBANDSO">    -1</i>
   <i type="int" name="NBANDSV">    -1</i>
   <i type="int" name="NELM">   400</i>
   <i type="int" name="NELMHF">     1</i>
   <i type="int" name="DIM">     3</i>
   <i type="int" name="ANTIRES">     0</i>
   <i name="OMEGAMAX">    -30.00000000</i>
   <i name="OMEGAMIN">    -30.00000000</i>
   <i name="OMEGATL">   -200.00000000</i>
   <i type="int" name="OMEGAGRID">   140</i>
   <i name="CSHIFT">     -0.10000000</i>
   <i type="logical" name="SELFENERGY"> F  </i>
   <i type="logical" name="LSPECTRAL"> F  </i>
   <i type="logical" name="LSPECTRALGW"> F  </i>
   <i type="logical" name="LSINGLES"> F  </i>
   <i type="logical" name="LFERMIGW"> F  </i>
   <i type="logical" name="ODDONLYGW"> F  </i>
   <i type="logical" name="EVENONLYGW"> F  </i>
   <i type="int" name="NKREDLFX">     1</i>
   <i type="int" name="NKREDLFY">     1</i>
   <i type="int" name="NKREDLFZ">     1</i>
   <i type="int" name="MAXMEM">  2800</i>
   <i type="int" name="TELESCOPE">     0</i>
   <i type="int" name="TAUPAR">     1</i>
   <i type="int" name="OMEGAPAR">    -1</i>
   <i name="LAMBDA">      1.00000000</i>
  </separator>
  <separator name="External order field" >
   <i name="OFIELD_KAPPA">      0.00000000</i>
   <v name="OFIELD_K">      0.00000000      0.00000000      0.00000000</v>
   <i name="OFIELD_Q6_NEAR">      0.00000000</i>
   <i name="OFIELD_Q6_FAR">      0.00000000</i>
   <i name="OFIELD_A">      0.00000000</i>
  </separator>
 </parameters>
 <atominfo>
  <atoms>     108 </atoms>
  <types>       1 </types>
  <array name="atoms" >
   <dimension dim="1">ion</dimension>
   <field type="string">element</field>
   <field type="int">atomtype</field>
   <set>
    <rc><c>Fe</c><c>   1</c></rc>
    <rc><c>Fe</c><c>   1</c></rc>
    <rc><c>Fe</c><c>   1</c></rc>
    <rc><c>Fe</c><c>   1</c></rc>
    <rc><c>Fe</c><c>   1</c></rc>
    <rc><c>Fe</c><c>   1</c></rc>
    <rc><c>Fe</c><c>   1</c></rc>
    <rc><c>Fe</c><c>   1</c></rc>
    <rc><c>Fe</c><c>   1</c></rc>
    <rc><c>Fe</c><c>   1</c></rc>
    <rc><c>Fe</c><c>   1</c></rc>
    <rc><c>Fe</c><c>   1</c></rc>
    <rc><c>Fe</c><c>   1</c></rc>
    <rc><c>Fe</c><c>   1</c></rc>
    <rc><c>Fe</c><c>   1</c></rc>
    <rc><c>Fe</c><c>   1</c></rc>
    <rc><c>Fe</c><c>   1</c></rc>
    <rc><c>Fe</c><c>   1</c></rc>
    <rc><c>Fe</c><c>   1</c></rc>
    <rc><c>Fe</c><c>   1</c></rc>
    <rc><c>Fe</c><c>   1</c></rc>
    <rc><c>Fe</c><c>   1</c></rc>
    <rc><c>Fe</c><c>   1</c></rc>
    <rc><c>Fe</c><c>   1</c></rc>
    <rc><c>Fe</c><c>   1</c></rc>
    <rc><c>Fe</c><c>   1</c></rc>
    <rc><c>Fe</c><c>   1</c></rc>
    <rc><c>Fe</c><c>   1</c></rc>
    <rc><c>Fe</c><c>   1</c></rc>
    <rc><c>Fe</c><c>   1</c></rc>
    <rc><c>Fe</c><c>   1</c></rc>
    <rc><c>Fe</c><c>   1</c></rc>
    <rc><c>Fe</c><c>   1</c></rc>
    <rc><c>Fe</c><c>   1</c></rc>
    <rc><c>Fe</c><c>   1</c></rc>
    <rc><c>Fe</c><c>   1</c></rc>
    <rc><c>Fe</c><c>   1</c></rc>
    <rc><c>Fe</c><c>   1</c></rc>
    <rc><c>Fe</c><c>   1</c></rc>
    <rc><c>Fe</c><c>   1</c></rc>
    <rc><c>Fe</c><c>   1</c></rc>
    <rc><c>Fe</c><c>   1</c></rc>
    <rc><c>Fe</c><c>   1</c></rc>
    <rc><c>Fe</c><c>   1</c></rc>
    <rc><c>Fe</c><c>   1</c></rc>
    <rc><c>Fe</c><c>   1</c></rc>
    <rc><c>Fe</c><c>   1</c></rc>
    <rc><c>Fe</c><c>   1</c></rc>
    <rc><c>Fe</c><c>   1</c></rc>
    <rc><c>Fe</c><c>   1</c></rc>
    <rc><c>Fe</c><c>   1</c></rc>
    <rc><c>Fe</c><c>   1</c></rc>
    <rc><c>Fe</c><c>   1</c></rc>
    <rc><c>Fe</c><c>   1</c></rc>
    <rc><c>Fe</c><c>   1</c></rc>
    <rc><c>Fe</c><c>   1</c></rc>
    <rc><c>Fe</c><c>   1</c></rc>
    <rc><c>Fe</c><c>   1</c></rc>
    <rc><c>Fe</c><c>   1</c></rc>
    <rc><c>Fe</c><c>   1</c></rc>
    <rc><c>Fe</c><c>   1</c></rc>
    <rc><c>Fe</c><c>   1</c></rc>
    <rc><c>Fe</c><c>   1</c></rc>
    <rc><c>Fe</c><c>   1</c></rc>
    <rc><c>Fe</c><c>   1</c></rc>
    <rc><c>Fe</c><c>   1</c></rc>
    <rc><c>Fe</c><c>   1</c></rc>
    <rc><c>Fe</c><c>   1</c></rc>
    <rc><c>Fe</c><c>   1</c></rc>
    <rc><c>Fe</c><c>   1</c></rc>
    <rc><c>Fe</c><c>   1</c></rc>
    <rc><c>Fe</c><c>   1</c></rc>
    <rc><c>Fe</c><c>   1</c></rc>
    <rc><c>Fe</c><c>   1</c></rc>
    <rc><c>Fe</c><c>   1</c></rc>
    <rc><c>Fe</c><c>   1</c></rc>
    <rc><c>Fe</c><c>   1</c></rc>
    <rc><c>Fe</c><c>   1</c></rc>
    <rc><c>Fe</c><c>   1</c></rc>
    <rc><c>Fe</c><c>   1</c></rc>
    <rc><c>Fe</c><c>   1</c></rc>
    <rc><c>Fe</c><c>   1</c></rc>
    <rc><c>Fe</c><c>   1</c></rc>
    <rc><c>Fe</c><c>   1</c></rc>
    <rc><c>Fe</c><c>   1</c></rc>
    <rc><c>Fe</c><c>   1</c></rc>
    <rc><c>Fe</c><c>   1</c></rc>
    <rc><c>Fe</c><c>   1</c></rc>
    <rc><c>Fe</c><c>   1</c></rc>
    <rc><c>Fe</c><c>   1</c></rc>
    <rc><c>Fe</c><c>   1</c></rc>
    <rc><c>Fe</c><c>   1</c></rc>
    <rc><c>Fe</c><c>   1</c></rc>
    <rc><c>Fe</c><c>   1</c></rc>
    <rc><c>Fe</c><c>   1</c></rc>
    <rc><c>Fe</c><c>   1</c></rc>
    <rc><c>Fe</c><c>   1</c></rc>
    <rc><c>Fe</c><c>   1</c></rc>
    <rc><c>Fe</c><c>   1</c></rc>
    <rc><c>Fe</c><c>   1</c></rc>
    <rc><c>Fe</c><c>   1</c></rc>
    <rc><c>Fe</c><c>   1</c></rc>
    <rc><c>Fe</c><c>   1</c></rc>
    <rc><c>Fe</c><c>   1</c></rc>
    <rc><c>Fe</c><c>   1</c></rc>
    <rc><c>Fe</c><c>   1</c></rc>
    <rc><c>Fe</c><c>   1</c></rc>
    <rc><c>Fe</c><c>   1</c></rc>
   </set>
  </array>
  <array name="atomtypes" >
   <dimension dim="1">type</dimension>
   <field type="int">atomspertype</field>
   <field type="string">element</field>
   <field>mass</field>
   <field>valence</field>
   <field type="string">pseudopotential</field>
   <set>
    <rc><c> 108</c><c>Fe</c><c>     55.84700000</c><c>      8.00000000</c><c> PAW_PBE Fe 06Sep2000                   </c></rc>
   </set>
  </array>
 </atominfo>
 <structure name="initialpos" >
  <crystal>
   <varray name="basis" >
    <v>      10.33484705       0.00000000       0.00000000 </v>
    <v>       0.00000000      10.33484705       0.00000000 </v>
    <v>       0.00000000       0.00000000      10.33484705 </v>
   </varray>
   <i name="volume">   1103.85533447 </i>
   <varray name="rec_basis" >
    <v>       0.09676002       0.00000000       0.00000000 </v>
    <v>       0.00000000       0.09676002       0.00000000 </v>
    <v>       0.00000000       0.00000000       0.09676002 </v>
   </varray>
  </crystal>
  <varray name="positions" >
   <v>       0.00000000       0.00000000       0.00000000 </v>
   <v>       0.00000000       0.16666893       0.16666893 </v>
   <v>       0.16666893       0.00000000       0.16666893 </v>
   <v>       0.16666893       0.16666893       0.00000000 </v>
   <v>       0.33333106       0.00000000       0.00000000 </v>
   <v>       0.33333107       0.16666893       0.16666893 </v>
   <v>       0.50000000       0.00000000       0.16666894 </v>
   <v>       0.50000000       0.16666894       0.00000000 </v>
   <v>       0.66666897       0.00000000       0.00000000 </v>
   <v>       0.66666896       0.16666893       0.16666893 </v>
   <v>       0.83333104       0.00000000       0.16666893 </v>
   <v>       0.83333104       0.16666893       0.00000000 </v>
   <v>       0.00000000       0.33333106       0.00000000 </v>
   <v>       0.00000000       0.50000000       0.16666894 </v>
   <v>       0.16666893       0.33333107       0.16666893 </v>
   <v>       0.16666894       0.50000000       0.00000000 </v>
   <v>       0.33333107       0.33333107       0.00000000 </v>
   <v>       0.33333107       0.50000000       0.16666893 </v>
   <v>       0.50000000       0.33333107       0.16666893 </v>
   <v>       0.50000000       0.50000000       0.00000000 </v>
   <v>       0.66666896       0.33333107       0.00000000 </v>
   <v>       0.66666896       0.50000000       0.16666893 </v>
   <v>       0.83333104       0.33333107       0.16666893 </v>
   <v>       0.83333103       0.50000000       0.00000000 </v>
   <v>       0.00000000       0.66666897       0.00000000 </v>
   <v>       0.00000000       0.83333104       0.16666893 </v>
   <v>       0.16666893       0.66666896       0.16666893 </v>
   <v>       0.16666893       0.83333104       0.00000000 </v>
   <v>       0.33333107       0.66666896       0.00000000 </v>
   <v>       0.33333107       0.83333104       0.16666893 </v>
   <v>       0.50000000       0.66666896       0.16666893 </v>
   <v>       0.50000000       0.83333103       0.00000000 </v>
   <v>       0.66666896       0.66666896       0.00000000 </v>
   <v>       0.66666896       0.83333104       0.16666893 </v>
   <v>       0.83333104       0.66666896       0.16666893 </v>
   <v>       0.83333104       0.83333104       0.00000000 </v>
   <v>       0.00000000       0.00000000       0.33333106 </v>
   <v>       0.00000000       0.16666894       0.50000000 </v>
   <v>       0.16666894       0.00000000       0.50000000 </v>
   <v>       0.16666893       0.16666893       0.33333107 </v>
   <v>       0.33333107       0.00000000       0.33333107 </v>
   <v>       0.33333107       0.16666893       0.50000000 </v>
   <v>       0.50000000       0.00000000       0.50000000 </v>
   <v>       0.50000000       0.16666893       0.33333107 </v>
   <v>       0.66666896       0.00000000       0.33333107 </v>
   <v>       0.66666896       0.16666893       0.50000000 </v>
   <v>       0.83333103       0.00000000       0.50000000 </v>
   <v>       0.83333104       0.16666893       0.33333107 </v>
   <v>       0.00000000       0.33333107       0.33333107 </v>
   <v>       0.00000000       0.50000000       0.50000000 </v>
   <v>       0.16666893       0.33333107       0.50000000 </v>
   <v>       0.16666893       0.50000000       0.33333107 </v>
   <v>       0.33333107       0.33333107       0.33333107 </v>
   <v>       0.33333106       0.50000000       0.50000000 </v>
   <v>       0.50000000       0.33333106       0.50000000 </v>
   <v>       0.50000000       0.50000000       0.33333106 </v>
   <v>       0.66666896       0.33333107       0.33333107 </v>
   <v>       0.66666897       0.50000000       0.50000000 </v>
   <v>       0.83333104       0.33333107       0.50000000 </v>
   <v>       0.83333104       0.50000000       0.33333107 </v>
   <v>       0.00000000       0.66666896       0.33333107 </v>
   <v>       0.00000000       0.83333103       0.50000000 </v>
   <v>       0.16666893       0.66666896       0.50000000 </v>
   <v>       0.16666893       0.83333104       0.33333107 </v>
   <v>       0.33333107       0.66666896       0.33333107 </v>
   <v>       0.33333107       0.83333104       0.50000000 </v>
   <v>       0.50000000       0.66666897       0.50000000 </v>
   <v>       0.50000000       0.83333104       0.33333107 </v>
   <v>       0.66666896       0.66666896       0.33333107 </v>
   <v>       0.66666896       0.83333104       0.50000000 </v>
   <v>       0.83333104       0.66666896       0.50000000 </v>
   <v>       0.83333104       0.83333104       0.33333107 </v>
   <v>       0.00000000       0.00000000       0.66666897 </v>
   <v>       0.00000000       0.16666893       0.83333104 </v>
   <v>       0.16666893       0.00000000       0.83333104 </v>
   <v>       0.16666893       0.16666893       0.66666896 </v>
   <v>       0.33333107       0.00000000       0.66666896 </v>
   <v>       0.33333107       0.16666893       0.83333104 </v>
   <v>       0.50000000       0.00000000       0.83333103 </v>
   <v>       0.50000000       0.16666893       0.66666896 </v>
   <v>       0.66666896       0.00000000       0.66666896 </v>
   <v>       0.66666896       0.16666893       0.83333104 </v>
   <v>       0.83333104       0.00000000       0.83333104 </v>
   <v>       0.83333104       0.16666893       0.66666896 </v>
   <v>       0.00000000       0.33333107       0.66666896 </v>
   <v>       0.00000000       0.50000000       0.83333103 </v>
   <v>       0.16666893       0.33333107       0.83333104 </v>
   <v>       0.16666893       0.50000000       0.66666896 </v>
   <v>       0.33333107       0.33333107       0.66666896 </v>
   <v>       0.33333107       0.50000000       0.83333104 </v>
   <v>       0.50000000       0.33333107       0.83333104 </v>
   <v>       0.50000000       0.50000000       0.66666897 </v>
   <v>       0.66666896       0.33333107       0.66666896 </v>
   <v>       0.66666896       0.50000000       0.83333104 </v>
   <v>       0.83333104       0.33333107       0.83333104 </v>
   <v>       0.83333104       0.50000000       0.66666896 </v>
   <v>       0.00000000       0.66666896       0.66666896 </v>
   <v>       0.00000000       0.83333104       0.83333104 </v>
   <v>       0.16666893       0.66666896       0.83333104 </v>
   <v>       0.16666893       0.83333104       0.66666896 </v>
   <v>       0.33333107       0.66666896       0.66666896 </v>
   <v>       0.33333107       0.83333104       0.83333104 </v>
   <v>       0.50000000       0.66666896       0.83333104 </v>
   <v>       0.50000000       0.83333104       0.66666896 </v>
   <v>       0.66666896       0.66666896       0.66666896 </v>
   <v>       0.66666896       0.83333104       0.83333104 </v>
   <v>       0.83333104       0.66666896       0.83333104 </v>
   <v>       0.83333104       0.83333104       0.66666896 </v>
  </varray>
 </structure>
 <calculation>
  <scstep>
   <time name="dav">   53.65   53.72</time>
   <time name="total">   54.01   54.08</time>
   <energy>
    <i name="alphaZ">   7300.31925852 </i>
    <i name="ewald"> -66232.83996889 </i>
    <i name="hartreedc"> -11197.02572337 </i>
    <i name="XCdc">    446.63038354 </i>
    <i name="pawpsdc">  51723.88885462 </i>
    <i name="pawaedc"> -52548.28121372 </i>
    <i name="eentropy">     -0.00905936 </i>
    <i name="bandstr">  16057.62503990 </i>
    <i name="atom">  64202.55724146 </i>
    <i name="e_fr_energy">   9752.86481271 </i>
    <i name="e_wo_entrp">   9752.87387207 </i>
    <i name="e_0_energy">   9752.86783249 </i>
   </energy>
  </scstep>
  <scstep>
   <time name="dav">   55.99   55.99</time>
   <time name="total">   55.99   56.00</time>
   <energy>
    <i name="e_fr_energy">    374.26605894 </i>
    <i name="e_wo_entrp">    374.29502006 </i>
    <i name="e_0_energy">    374.27571265 </i>
   </energy>
  </scstep>
  <scstep>
   <time name="dav">   56.74   56.74</time>
   <time name="total">   56.74   56.75</time>
   <energy>
    <i name="e_fr_energy">   -810.34087386 </i>
    <i name="e_wo_entrp">   -810.35032808 </i>
    <i name="e_0_energy">   -810.34402526 </i>
   </energy>
  </scstep>
  <scstep>
   <time name="dav">   92.07   92.08</time>
   <time name="total">   92.08   92.09</time>
   <energy>
    <i name="e_fr_energy">  -1025.81027021 </i>
    <i name="e_wo_entrp">  -1025.77354629 </i>
    <i name="e_0_energy">  -1025.79802890 </i>
   </energy>
  </scstep>
  <scstep>
   <time name="dav">   84.12   84.13</time>
   <time name="total">   86.48   86.49</time>
   <energy>
    <i name="e_fr_energy">  -1045.13832024 </i>
    <i name="e_wo_entrp">  -1045.03635615 </i>
    <i name="e_0_energy">  -1045.10433221 </i>
   </energy>
  </scstep>
  <scstep>
   <time name="diag">    7.27    7.27</time>
   <time name="diis">   25.60   25.61</time>
   <time name="orth">    2.08    2.08</time>
   <time name="total">   37.87   37.88</time>
   <energy>
    <i name="e_fr_energy">   -877.05575922 </i>
    <i name="e_wo_entrp">   -876.99788636 </i>
    <i name="e_0_energy">   -877.03646827 </i>
   </energy>
  </scstep>
  <scstep>
   <time name="diag">    7.80    7.80</time>
   <time name="diis">   27.89   27.89</time>
   <time name="orth">    2.16    2.16</time>
   <time name="total">   40.94   40.95</time>
   <energy>
    <i name="e_fr_energy">   -880.21727012 </i>
    <i name="e_wo_entrp">   -880.06934884 </i>
    <i name="e_0_energy">   -880.16796303 </i>
   </energy>
  </scstep>
  <scstep>
   <time name="diag">    7.30    7.30</time>
   <time name="diis">   25.89   25.90</time>
   <time name="orth">    2.12    2.12</time>
   <time name="total">   38.25   38.26</time>
   <energy>
    <i name="e_fr_energy">   -879.26447239 </i>
    <i name="e_wo_entrp">   -879.19481739 </i>
    <i name="e_0_energy">   -879.24125406 </i>
   </energy>
  </scstep>
  <scstep>
   <time name="diag">    7.43    7.43</time>
   <time name="diis">   33.65   33.66</time>
   <time name="orth">    2.02    2.02</time>
   <time name="total">   45.91   45.92</time>
   <energy>
    <i name="e_fr_energy">   -879.60286719 </i>
    <i name="e_wo_entrp">   -879.51039297 </i>
    <i name="e_0_energy">   -879.57204245 </i>
   </energy>
  </scstep>
  <scstep>
   <time name="diag">    7.47    7.47</time>
   <time name="diis">   32.94   32.95</time>
   <time name="orth">    2.21    2.21</time>
   <time name="total">   45.40   45.41</time>
   <energy>
    <i name="e_fr_energy">   -879.53615004 </i>
    <i name="e_wo_entrp">   -879.44978765 </i>
    <i name="e_0_energy">   -879.50736257 </i>
   </energy>
  </scstep>
  <scstep>
   <time name="diag">    7.10    7.10</time>
   <time name="diis">   32.57   32.58</time>
   <time name="orth">    2.13    2.13</time>
   <time name="total">   44.85   44.86</time>
   <energy>
    <i name="e_fr_energy">   -879.51964624 </i>
    <i name="e_wo_entrp">   -879.43884041 </i>
    <i name="e_0_energy">   -879.49271096 </i>
   </energy>
  </scstep>
  <scstep>
   <time name="diag">    7.22    7.22</time>
   <time name="diis">   29.13   29.13</time>
   <time name="orth">    2.14    2.14</time>
   <time name="total">   41.56   41.56</time>
   <energy>
    <i name="e_fr_energy">   -879.51343430 </i>
    <i name="e_wo_entrp">   -879.43708086 </i>
    <i name="e_0_energy">   -879.48798315 </i>
   </energy>
  </scstep>
  <scstep>
   <time name="diag">    8.24    8.24</time>
   <time name="diis">   33.83   33.84</time>
   <time name="orth">    2.19    2.19</time>
   <time name="total">   47.62   47.62</time>
   <energy>
    <i name="e_fr_energy">   -879.51792770 </i>
    <i name="e_wo_entrp">   -879.44256456 </i>
    <i name="e_0_energy">   -879.49280665 </i>
   </energy>
  </scstep>
  <scstep>
   <time name="diag">    8.57    8.57</time>
   <time name="diis">   32.87   32.87</time>
   <time name="orth">    2.15    2.15</time>
   <time name="total">   46.73   46.74</time>
   <energy>
    <i name="e_fr_energy">   -879.51803958 </i>
    <i name="e_wo_entrp">   -879.44299559 </i>
    <i name="e_0_energy">   -879.49302492 </i>
   </energy>
  </scstep>
  <scstep>
   <time name="diag">    8.49    8.49</time>
   <time name="diis">   28.69   28.69</time>
   <time name="orth">    2.25    2.25</time>
   <time name="total">   42.22   42.23</time>
   <energy>
    <i name="e_fr_energy">   -879.51796248 </i>
    <i name="e_wo_entrp">   -879.44272972 </i>
    <i name="e_0_energy">   -879.49288489 </i>
   </energy>
  </scstep>
  <scstep>
   <time name="diag">    7.00    7.00</time>
   <time name="diis">   37.28   37.29</time>
   <time name="orth">    2.28    2.28</time>
   <time name="total">   49.90   49.91</time>
   <energy>
    <i name="e_fr_energy">   -879.51790560 </i>
    <i name="e_wo_entrp">   -879.44330277 </i>
    <i name="e_0_energy">   -879.49303799 </i>
   </energy>
  </scstep>
  <scstep>
   <time name="diag">    7.36    7.36</time>
   <time name="diis">   26.32   26.32</time>
   <time name="orth">    2.29    2.29</time>
   <time name="total">   39.37   39.37</time>
   <energy>
    <i name="e_fr_energy">   -879.51781227 </i>
    <i name="e_wo_entrp">   -879.44373153 </i>
    <i name="e_0_energy">   -879.49311869 </i>
   </energy>
  </scstep>
  <scstep>
   <time name="diag">    8.65    8.65</time>
   <time name="diis">   31.61   31.61</time>
   <time name="orth">    2.17    2.17</time>
   <time name="total">   45.59   45.59</time>
   <energy>
    <i name="e_fr_energy">   -879.51778850 </i>
    <i name="e_wo_entrp">   -879.44399920 </i>
    <i name="e_0_energy">   -879.49319207 </i>
   </energy>
  </scstep>
  <scstep>
   <time name="diag">    8.29    8.29</time>
   <time name="diis">   24.73   24.73</time>
   <time name="orth">    2.31    2.31</time>
   <time name="total">   38.09   38.09</time>
   <energy>
    <i name="e_fr_energy">   -879.51777598 </i>
    <i name="e_wo_entrp">   -879.44416830 </i>
    <i name="e_0_energy">   -879.49324008 </i>
   </energy>
  </scstep>
  <scstep>
   <time name="diag">    6.92    6.92</time>
   <time name="diis">   16.80   16.80</time>
   <time name="orth">    2.24    2.24</time>
   <time name="total">   28.85   28.86</time>
   <energy>
    <i name="e_fr_energy">   -879.51775917 </i>
    <i name="e_wo_entrp">   -879.44438771 </i>
    <i name="e_0_energy">   -879.49330202 </i>
   </energy>
  </scstep>
  <scstep>
   <time name="diag">    7.91    7.91</time>
   <time name="diis">   18.88   18.88</time>
   <time name="orth">    2.24    2.24</time>
   <time name="total">   32.25   32.25</time>
   <energy>
    <i name="e_fr_energy">   -879.51773575 </i>
    <i name="e_wo_entrp">   -879.44465175 </i>
    <i name="e_0_energy">   -879.49337442 </i>
   </energy>
  </scstep>
  <scstep>
   <time name="diag">    6.77    6.77</time>
   <time name="diis">   13.79   13.80</time>
   <time name="orth">    1.99    1.99</time>
   <time name="total">   25.27   25.27</time>
   <energy>
    <i name="e_fr_energy">   -879.51772446 </i>
    <i name="e_wo_entrp">   -879.44478349 </i>
    <i name="e_0_energy">   -879.49341081 </i>
   </energy>
  </scstep>
  <scstep>
   <time name="diag">    6.73    6.73</time>
   <time name="diis">   13.92   13.92</time>
   <time name="orth">    1.97    1.97</time>
   <time name="total">   25.25   25.26</time>
   <energy>
    <i name="e_fr_energy">   -879.51771611 </i>
    <i name="e_wo_entrp">   -879.44489189 </i>
    <i name="e_0_energy">   -879.49344137 </i>
   </energy>
  </scstep>
  <scstep>
   <time name="diag">    6.24    6.24</time>
   <time name="diis">   13.15   13.16</time>
   <time name="orth">    1.96    1.96</time>
   <time name="total">   24.00   24.00</time>
   <energy>
    <i name="e_fr_energy">   -879.51770913 </i>
    <i name="e_wo_entrp">   -879.44498087 </i>
    <i name="e_0_energy">   -879.49346638 </i>
   </energy>
  </scstep>
  <scstep>
   <time name="diag">    6.63    6.63</time>
   <time name="diis">   12.56   12.56</time>
   <time name="orth">    1.96    1.96</time>
   <time name="total">   23.79   23.79</time>
   <energy>
    <i name="e_fr_energy">   -879.51770272 </i>
    <i name="e_wo_entrp">   -879.44506691 </i>
    <i name="e_0_energy">   -879.49349079 </i>
   </energy>
  </scstep>
  <scstep>
   <time name="diag">    6.62    6.62</time>
   <time name="diis">   12.07   12.07</time>
   <time name="orth">    1.92    1.92</time>
   <time name="total">   23.16   23.16</time>
   <energy>
    <i name="e_fr_energy">   -879.51769688 </i>
    <i name="e_wo_entrp">   -879.44514347 </i>
    <i name="e_0_energy">   -879.49351241 </i>
   </energy>
  </scstep>
  <scstep>
   <time name="diag">    6.62    6.62</time>
   <time name="diis">   11.81   11.81</time>
   <time name="orth">    1.92    1.92</time>
   <time name="total">   22.88   22.88</time>
   <energy>
    <i name="e_fr_energy">   -879.51769138 </i>
    <i name="e_wo_entrp">   -879.44521638 </i>
    <i name="e_0_energy">   -879.49353305 </i>
   </energy>
  </scstep>
  <scstep>
   <time name="diag">    6.45    6.45</time>
   <time name="diis">   11.48   11.48</time>
   <time name="orth">    1.90    1.90</time>
   <time name="total">   22.32   22.32</time>
   <energy>
    <i name="e_fr_energy">   -879.51768290 </i>
    <i name="e_wo_entrp">   -879.44531796 </i>
    <i name="e_0_energy">   -879.49356125 </i>
   </energy>
  </scstep>
  <scstep>
   <time name="diag">    6.32    6.33</time>
   <time name="diis">   11.44   11.44</time>
   <time name="orth">    1.96    1.96</time>
   <time name="total">   22.26   22.26</time>
   <energy>
    <i name="e_fr_energy">   -879.51767746 </i>
    <i name="e_wo_entrp">   -879.44538633 </i>
    <i name="e_0_energy">   -879.49358042 </i>
   </energy>
  </scstep>
  <scstep>
   <time name="diag">    6.27    6.27</time>
   <time name="diis">   10.83   10.83</time>
   <time name="orth">    1.96    1.96</time>
   <time name="total">   21.66   21.66</time>
   <energy>
    <i name="e_fr_energy">   -879.51767326 </i>
    <i name="e_wo_entrp">   -879.44544225 </i>
    <i name="e_0_energy">   -879.49359626 </i>
   </energy>
  </scstep>
  <scstep>
   <time name="diag">    6.35    6.35</time>
   <time name="diis">   10.27   10.27</time>
   <time name="orth">    1.96    1.96</time>
   <time name="total">   21.21   21.22</time>
   <energy>
    <i name="e_fr_energy">   -879.51766946 </i>
    <i name="e_wo_entrp">   -879.44549292 </i>
    <i name="e_0_energy">   -879.49361061 </i>
   </energy>
  </scstep>
  <scstep>
   <time name="diag">    6.60    6.60</time>
   <time name="diis">    9.98    9.98</time>
   <time name="orth">    1.92    1.92</time>
   <time name="total">   21.11   21.11</time>
   <energy>
    <i name="e_fr_energy">   -879.51766600 </i>
    <i name="e_wo_entrp">   -879.44553921 </i>
    <i name="e_0_energy">   -879.49362374 </i>
   </energy>
  </scstep>
  <scstep>
   <time name="diag">    6.61    6.61</time>
   <time name="diis">    9.97    9.97</time>
   <time name="orth">    1.92    1.92</time>
   <time name="total">   21.04   21.04</time>
   <energy>
    <i name="e_fr_energy">   -879.51766277 </i>
    <i name="e_wo_entrp">   -879.44558234 </i>
    <i name="e_0_energy">   -879.49363596 </i>
   </energy>
  </scstep>
  <scstep>
   <time name="diag">    6.54    6.54</time>
   <time name="diis">   10.17   10.17</time>
   <time name="orth">    1.89    1.89</time>
   <time name="total">   21.13   21.13</time>
   <energy>
    <i name="e_fr_energy">   -879.51765980 </i>
    <i name="e_wo_entrp">   -879.44562203 </i>
    <i name="e_0_energy">   -879.49364721 </i>
   </energy>
  </scstep>
  <scstep>
   <time name="diag">    6.39    6.39</time>
   <time name="diis">   10.27   10.27</time>
   <time name="orth">    1.93    1.93</time>
   <time name="total">   21.09   21.09</time>
   <energy>
    <i name="e_fr_energy">   -879.51765704 </i>
    <i name="e_wo_entrp">   -879.44565902 </i>
    <i name="e_0_energy">   -879.49365770 </i>
   </energy>
  </scstep>
  <scstep>
   <time name="diag">    6.29    6.30</time>
   <time name="diis">    9.97    9.97</time>
   <time name="orth">    1.96    1.96</time>
   <time name="total">   20.82   20.83</time>
   <energy>
    <i name="e_fr_energy">   -879.51765450 </i>
    <i name="e_wo_entrp">   -879.44569307 </i>
    <i name="e_0_energy">   -879.49366736 </i>
   </energy>
  </scstep>
  <scstep>
   <time name="diag">    6.19    6.19</time>
   <time name="diis">    9.81    9.81</time>
   <time name="orth">    1.96    1.96</time>
   <time name="total">   20.55   20.55</time>
   <energy>
    <i name="e_fr_energy">   -879.51765215 </i>
    <i name="e_wo_entrp">   -879.44572477 </i>
    <i name="e_0_energy">   -879.49367635 </i>
   </energy>
  </scstep>
  <scstep>
   <time name="diag">    6.30    6.30</time>
   <time name="diis">    9.57    9.57</time>
   <time name="orth">    1.96    1.96</time>
   <time name="total">   20.45   20.45</time>
   <energy>
    <i name="e_fr_energy">   -879.51764998 </i>
    <i name="e_wo_entrp">   -879.44575388 </i>
    <i name="e_0_energy">   -879.49368461 </i>
   </energy>
  </scstep>
  <scstep>
   <time name="diag">    6.44    6.44</time>
   <time name="diis">    9.37    9.37</time>
   <time name="orth">    1.93    1.93</time>
   <time name="total">   20.36   20.36</time>
   <energy>
    <i name="e_fr_energy">   -879.51764797 </i>
    <i name="e_wo_entrp">   -879.44578091 </i>
    <i name="e_0_energy">   -879.49369228 </i>
   </energy>
  </scstep>
  <scstep>
   <time name="diag">    6.56    6.56</time>
   <time name="diis">    9.21    9.21</time>
   <time name="orth">    1.92    1.92</time>
   <time name="total">   20.23   20.24</time>
   <energy>
    <i name="e_fr_energy">   -879.51764613 </i>
    <i name="e_wo_entrp">   -879.44580577 </i>
    <i name="e_0_energy">   -879.49369934 </i>
   </energy>
  </scstep>
  <scstep>
   <time name="diag">    6.56    6.56</time>
   <time name="diis">    9.38    9.38</time>
   <time name="orth">    1.91    1.92</time>
   <time name="total">   20.40   20.40</time>
   <energy>
    <i name="e_fr_energy">   -879.51764442 </i>
    <i name="e_wo_entrp">   -879.44582877 </i>
    <i name="e_0_energy">   -879.49370587 </i>
   </energy>
  </scstep>
  <scstep>
   <time name="diag">    6.48    6.49</time>
   <time name="diis">    9.33    9.33</time>
   <time name="orth">    1.91    1.91</time>
   <time name="total">   20.26   20.26</time>
   <energy>
    <i name="e_fr_energy">   -879.51764285 </i>
    <i name="e_wo_entrp">   -879.44584998 </i>
    <i name="e_0_energy">   -879.49371189 </i>
   </energy>
  </scstep>
  <scstep>
   <time name="diag">    6.44    6.44</time>
   <time name="diis">    9.54    9.54</time>
   <time name="orth">    1.90    1.90</time>
   <time name="total">   20.40   20.40</time>
   <energy>
    <i name="e_fr_energy">   -879.51764141 </i>
    <i name="e_wo_entrp">   -879.44586950 </i>
    <i name="e_0_energy">   -879.49371744 </i>
   </energy>
  </scstep>
  <scstep>
   <time name="diag">    6.34    6.34</time>
   <time name="diis">    9.58    9.58</time>
   <time name="orth">    1.91    1.91</time>
   <time name="total">   20.32   20.32</time>
   <energy>
    <i name="e_fr_energy">   -879.51764008 </i>
    <i name="e_wo_entrp">   -879.44588750 </i>
    <i name="e_0_energy">   -879.49372255 </i>
   </energy>
  </scstep>
  <scstep>
   <time name="diag">    6.27    6.27</time>
   <time name="diis">    9.46    9.46</time>
   <time name="orth">    1.96    1.96</time>
   <time name="total">   20.16   20.16</time>
   <energy>
    <i name="e_fr_energy">   -879.51763885 </i>
    <i name="e_wo_entrp">   -879.44590413 </i>
    <i name="e_0_energy">   -879.49372728 </i>
   </energy>
  </scstep>
  <scstep>
   <time name="diag">    6.22    6.22</time>
   <time name="diis">    9.31    9.31</time>
   <time name="orth">    1.95    1.95</time>
   <time name="total">   20.09   20.09</time>
   <energy>
    <i name="e_fr_energy">   -879.51763773 </i>
    <i name="e_wo_entrp">   -879.44591937 </i>
    <i name="e_0_energy">   -879.49373161 </i>
   </energy>
  </scstep>
  <scstep>
   <time name="diag">    6.21    6.21</time>
   <time name="diis">    9.21    9.21</time>
   <time name="orth">    1.95    1.95</time>
   <time name="total">   19.99   19.99</time>
   <energy>
    <i name="e_fr_energy">   -879.51763670 </i>
    <i name="e_wo_entrp">   -879.44593346 </i>
    <i name="e_0_energy">   -879.49373562 </i>
   </energy>
  </scstep>
  <scstep>
   <time name="diag">    6.26    6.26</time>
   <time name="diis">    9.08    9.08</time>
   <time name="orth">    1.95    1.95</time>
   <time name="total">   17.61   17.61</time>
   <energy>
    <i name="alphaZ">   7300.31925852 </i>
    <i name="ewald"> -66232.83996889 </i>
    <i name="hartreedc">  -9349.41983572 </i>
    <i name="XCdc">    360.28590178 </i>
    <i name="pawpsdc">  58042.74128081 </i>
    <i name="pawaedc"> -58977.71011993 </i>
    <i name="eentropy">     -0.07168942 </i>
    <i name="bandstr">   3774.62029563 </i>
    <i name="atom">  64202.55724146 </i>
    <i name="e_fr_energy">   -879.51763576 </i>
    <i name="e_wo_entrp">   -879.44594634 </i>
    <i name="e_0_energy">   -879.49373929 </i>
   </energy>
  </scstep>
  <structure>
   <crystal>
    <varray name="basis" >
     <v>      10.33484705       0.00000000       0.00000000 </v>
     <v>       0.00000000      10.33484705       0.00000000 </v>
     <v>       0.00000000       0.00000000      10.33484705 </v>
    </varray>
    <i name="volume">   1103.85533447 </i>
    <varray name="rec_basis" >
     <v>       0.09676002       0.00000000       0.00000000 </v>
     <v>       0.00000000       0.09676002       0.00000000 </v>
     <v>       0.00000000       0.00000000       0.09676002 </v>
    </varray>
   </crystal>
   <varray name="positions" >
    <v>       0.00000000       0.00000000       0.00000000 </v>
    <v>       0.00000000       0.16666893       0.16666893 </v>
    <v>       0.16666893       0.00000000       0.16666893 </v>
    <v>       0.16666893       0.16666893       0.00000000 </v>
    <v>       0.33333106       0.00000000       0.00000000 </v>
    <v>       0.33333107       0.16666893       0.16666893 </v>
    <v>       0.50000000       0.00000000       0.16666894 </v>
    <v>       0.50000000       0.16666894       0.00000000 </v>
    <v>       0.66666897       0.00000000       0.00000000 </v>
    <v>       0.66666896       0.16666893       0.16666893 </v>
    <v>       0.83333104       0.00000000       0.16666893 </v>
    <v>       0.83333104       0.16666893       0.00000000 </v>
    <v>       0.00000000       0.33333106       0.00000000 </v>
    <v>       0.00000000       0.50000000       0.16666894 </v>
    <v>       0.16666893       0.33333107       0.16666893 </v>
    <v>       0.16666894       0.50000000       0.00000000 </v>
    <v>       0.33333107       0.33333107       0.00000000 </v>
    <v>       0.33333107       0.50000000       0.16666893 </v>
    <v>       0.50000000       0.33333107       0.16666893 </v>
    <v>       0.50000000       0.50000000       0.00000000 </v>
    <v>       0.66666896       0.33333107       0.00000000 </v>
    <v>       0.66666896       0.50000000       0.16666893 </v>
    <v>       0.83333104       0.33333107       0.16666893 </v>
    <v>       0.83333103       0.50000000       0.00000000 </v>
    <v>       0.00000000       0.66666897       0.00000000 </v>
    <v>       0.00000000       0.83333104       0.16666893 </v>
    <v>       0.16666893       0.66666896       0.16666893 </v>
    <v>       0.16666893       0.83333104       0.00000000 </v>
    <v>       0.33333107       0.66666896       0.00000000 </v>
    <v>       0.33333107       0.83333104       0.16666893 </v>
    <v>       0.50000000       0.66666896       0.16666893 </v>
    <v>       0.50000000       0.83333103       0.00000000 </v>
    <v>       0.66666896       0.66666896       0.00000000 </v>
    <v>       0.66666896       0.83333104       0.16666893 </v>
    <v>       0.83333104       0.66666896       0.16666893 </v>
    <v>       0.83333104       0.83333104       0.00000000 </v>
    <v>       0.00000000       0.00000000       0.33333106 </v>
    <v>       0.00000000       0.16666894       0.50000000 </v>
    <v>       0.16666894       0.00000000       0.50000000 </v>
    <v>       0.16666893       0.16666893       0.33333107 </v>
    <v>       0.33333107       0.00000000       0.33333107 </v>
    <v>       0.33333107       0.16666893       0.50000000 </v>
    <v>       0.50000000       0.00000000       0.50000000 </v>
    <v>       0.50000000       0.16666893       0.33333107 </v>
    <v>       0.66666896       0.00000000       0.33333107 </v>
    <v>       0.66666896       0.16666893       0.50000000 </v>
    <v>       0.83333103       0.00000000       0.50000000 </v>
    <v>       0.83333104       0.16666893       0.33333107 </v>
    <v>       0.00000000       0.33333107       0.33333107 </v>
    <v>       0.00000000       0.50000000       0.50000000 </v>
    <v>       0.16666893       0.33333107       0.50000000 </v>
    <v>       0.16666893       0.50000000       0.33333107 </v>
    <v>       0.33333107       0.33333107       0.33333107 </v>
    <v>       0.33333106       0.50000000       0.50000000 </v>
    <v>       0.50000000       0.33333106       0.50000000 </v>
    <v>       0.50000000       0.50000000       0.33333106 </v>
    <v>       0.66666896       0.33333107       0.33333107 </v>
    <v>       0.66666897       0.50000000       0.50000000 </v>
    <v>       0.83333104       0.33333107       0.50000000 </v>
    <v>       0.83333104       0.50000000       0.33333107 </v>
    <v>       0.00000000       0.66666896       0.33333107 </v>
    <v>       0.00000000       0.83333103       0.50000000 </v>
    <v>       0.16666893       0.66666896       0.50000000 </v>
    <v>       0.16666893       0.83333104       0.33333107 </v>
    <v>       0.33333107       0.66666896       0.33333107 </v>
    <v>       0.33333107       0.83333104       0.50000000 </v>
    <v>       0.50000000       0.66666897       0.50000000 </v>
    <v>       0.50000000       0.83333104       0.33333107 </v>
    <v>       0.66666896       0.66666896       0.33333107 </v>
    <v>       0.66666896       0.83333104       0.50000000 </v>
    <v>       0.83333104       0.66666896       0.50000000 </v>
    <v>       0.83333104       0.83333104       0.33333107 </v>
    <v>       0.00000000       0.00000000       0.66666897 </v>
    <v>       0.00000000       0.16666893       0.83333104 </v>
    <v>       0.16666893       0.00000000       0.83333104 </v>
    <v>       0.16666893       0.16666893       0.66666896 </v>
    <v>       0.33333107       0.00000000       0.66666896 </v>
    <v>       0.33333107       0.16666893       0.83333104 </v>
    <v>       0.50000000       0.00000000       0.83333103 </v>
    <v>       0.50000000       0.16666893       0.66666896 </v>
    <v>       0.66666896       0.00000000       0.66666896 </v>
    <v>       0.66666896       0.16666893       0.83333104 </v>
    <v>       0.83333104       0.00000000       0.83333104 </v>
    <v>       0.83333104       0.16666893       0.66666896 </v>
    <v>       0.00000000       0.33333107       0.66666896 </v>
    <v>       0.00000000       0.50000000       0.83333103 </v>
    <v>       0.16666893       0.33333107       0.83333104 </v>
    <v>       0.16666893       0.50000000       0.66666896 </v>
    <v>       0.33333107       0.33333107       0.66666896 </v>
    <v>       0.33333107       0.50000000       0.83333104 </v>
    <v>       0.50000000       0.33333107       0.83333104 </v>
    <v>       0.50000000       0.50000000       0.66666897 </v>
    <v>       0.66666896       0.33333107       0.66666896 </v>
    <v>       0.66666896       0.50000000       0.83333104 </v>
    <v>       0.83333104       0.33333107       0.83333104 </v>
    <v>       0.83333104       0.50000000       0.66666896 </v>
    <v>       0.00000000       0.66666896       0.66666896 </v>
    <v>       0.00000000       0.83333104       0.83333104 </v>
    <v>       0.16666893       0.66666896       0.83333104 </v>
    <v>       0.16666893       0.83333104       0.66666896 </v>
    <v>       0.33333107       0.66666896       0.66666896 </v>
    <v>       0.33333107       0.83333104       0.83333104 </v>
    <v>       0.50000000       0.66666896       0.83333104 </v>
    <v>       0.50000000       0.83333104       0.66666896 </v>
    <v>       0.66666896       0.66666896       0.66666896 </v>
    <v>       0.66666896       0.83333104       0.83333104 </v>
    <v>       0.83333104       0.66666896       0.83333104 </v>
    <v>       0.83333104       0.83333104       0.66666896 </v>
   </varray>
  </structure>
  <varray name="forces" >
   <v>       0.00000000       0.00000000       0.00000000 </v>
   <v>       0.00000000      -0.00000000      -0.00000000 </v>
   <v>       0.00000000      -0.00000000      -0.00000000 </v>
   <v>       0.00000000      -0.00000000      -0.00000000 </v>
   <v>       0.00000000       0.00000000       0.00000000 </v>
   <v>      -0.00000000      -0.00000000       0.00000000 </v>
   <v>      -0.00000000       0.00000000       0.00000000 </v>
   <v>       0.00000000       0.00000000      -0.00000000 </v>
   <v>      -0.00000000       0.00000000      -0.00000000 </v>
   <v>      -0.00000000      -0.00000000       0.00000000 </v>
   <v>       0.00000000      -0.00000000      -0.00000000 </v>
   <v>       0.00000000       0.00000000      -0.00000000 </v>
   <v>       0.00000000      -0.00000000       0.00000000 </v>
   <v>      -0.00000000       0.00000000      -0.00000000 </v>
   <v>      -0.00000000       0.00000000       0.00000000 </v>
   <v>      -0.00000000      -0.00000000       0.00000000 </v>
   <v>       0.00000000       0.00000000      -0.00000000 </v>
   <v>       0.00000000       0.00000000      -0.00000000 </v>
   <v>       0.00000000       0.00000000      -0.00000000 </v>
   <v>       0.00000000       0.00000000       0.00000000 </v>
   <v>      -0.00000000      -0.00000000       0.00000000 </v>
   <v>      -0.00000000       0.00000000      -0.00000000 </v>
   <v>      -0.00000000       0.00000000      -0.00000000 </v>
   <v>       0.00000000       0.00000000       0.00000000 </v>
   <v>      -0.00000000      -0.00000000       0.00000000 </v>
   <v>      -0.00000000      -0.00000000       0.00000000 </v>
   <v>       0.00000000      -0.00000000      -0.00000000 </v>
   <v>       0.00000000      -0.00000000      -0.00000000 </v>
   <v>       0.00000000      -0.00000000      -0.00000000 </v>
   <v>       0.00000000      -0.00000000       0.00000000 </v>
   <v>       0.00000000      -0.00000000      -0.00000000 </v>
   <v>      -0.00000000       0.00000000       0.00000000 </v>
   <v>       0.00000000      -0.00000000      -0.00000000 </v>
   <v>       0.00000000       0.00000000      -0.00000000 </v>
   <v>       0.00000000      -0.00000000       0.00000000 </v>
   <v>      -0.00000000       0.00000000      -0.00000000 </v>
   <v>       0.00000000      -0.00000000      -0.00000000 </v>
   <v>       0.00000000       0.00000000      -0.00000000 </v>
   <v>      -0.00000000      -0.00000000      -0.00000000 </v>
   <v>      -0.00000000      -0.00000000       0.00000000 </v>
   <v>       0.00000000       0.00000000       0.00000000 </v>
   <v>      -0.00000000      -0.00000000       0.00000000 </v>
   <v>      -0.00000000      -0.00000000       0.00000000 </v>
   <v>       0.00000000       0.00000000       0.00000000 </v>
   <v>      -0.00000000       0.00000000       0.00000000 </v>
   <v>      -0.00000000       0.00000000       0.00000000 </v>
   <v>      -0.00000000      -0.00000000       0.00000000 </v>
   <v>       0.00000000      -0.00000000       0.00000000 </v>
   <v>       0.00000000       0.00000000      -0.00000000 </v>
   <v>       0.00000000      -0.00000000      -0.00000000 </v>
   <v>      -0.00000000       0.00000000       0.00000000 </v>
   <v>       0.00000000      -0.00000000      -0.00000000 </v>
   <v>       0.00000000       0.00000000       0.00000000 </v>
   <v>      -0.00000000       0.00000000       0.00000000 </v>
   <v>       0.00000000       0.00000000      -0.00000000 </v>
   <v>       0.00000000       0.00000000      -0.00000000 </v>
   <v>       0.00000000       0.00000000       0.00000000 </v>
   <v>       0.00000000      -0.00000000       0.00000000 </v>
   <v>       0.00000000      -0.00000000      -0.00000000 </v>
   <v>       0.00000000       0.00000000      -0.00000000 </v>
   <v>       0.00000000      -0.00000000      -0.00000000 </v>
   <v>       0.00000000      -0.00000000       0.00000000 </v>
   <v>       0.00000000       0.00000000       0.00000000 </v>
   <v>      -0.00000000      -0.00000000       0.00000000 </v>
   <v>      -0.00000000      -0.00000000       0.00000000 </v>
   <v>       0.00000000      -0.00000000      -0.00000000 </v>
   <v>       0.00000000      -0.00000000       0.00000000 </v>
   <v>      -0.00000000       0.00000000      -0.00000000 </v>
   <v>      -0.00000000      -0.00000000       0.00000000 </v>
   <v>       0.00000000       0.00000000       0.00000000 </v>
   <v>      -0.00000000       0.00000000       0.00000000 </v>
   <v>       0.00000000      -0.00000000       0.00000000 </v>
   <v>      -0.00000000      -0.00000000       0.00000000 </v>
   <v>      -0.00000000      -0.00000000      -0.00000000 </v>
   <v>      -0.00000000       0.00000000       0.00000000 </v>
   <v>      -0.00000000       0.00000000      -0.00000000 </v>
   <v>      -0.00000000       0.00000000      -0.00000000 </v>
   <v>       0.00000000      -0.00000000      -0.00000000 </v>
   <v>      -0.00000000      -0.00000000       0.00000000 </v>
   <v>       0.00000000      -0.00000000       0.00000000 </v>
   <v>      -0.00000000       0.00000000      -0.00000000 </v>
   <v>      -0.00000000      -0.00000000      -0.00000000 </v>
   <v>       0.00000000       0.00000000      -0.00000000 </v>
   <v>      -0.00000000       0.00000000      -0.00000000 </v>
   <v>       0.00000000       0.00000000       0.00000000 </v>
   <v>      -0.00000000      -0.00000000       0.00000000 </v>
   <v>      -0.00000000       0.00000000      -0.00000000 </v>
   <v>       0.00000000      -0.00000000       0.00000000 </v>
   <v>      -0.00000000       0.00000000      -0.00000000 </v>
   <v>       0.00000000       0.00000000       0.00000000 </v>
   <v>       0.00000000       0.00000000       0.00000000 </v>
   <v>       0.00000000      -0.00000000       0.00000000 </v>
   <v>      -0.00000000       0.00000000      -0.00000000 </v>
   <v>      -0.00000000       0.00000000      -0.00000000 </v>
   <v>       0.00000000      -0.00000000       0.00000000 </v>
   <v>      -0.00000000       0.00000000       0.00000000 </v>
   <v>      -0.00000000      -0.00000000      -0.00000000 </v>
   <v>      -0.00000000       0.00000000      -0.00000000 </v>
   <v>      -0.00000000       0.00000000       0.00000000 </v>
   <v>      -0.00000000      -0.00000000      -0.00000000 </v>
   <v>       0.00000000      -0.00000000      -0.00000000 </v>
   <v>       0.00000000      -0.00000000      -0.00000000 </v>
   <v>       0.00000000      -0.00000000       0.00000000 </v>
   <v>       0.00000000       0.00000000       0.00000000 </v>
   <v>       0.00000000       0.00000000      -0.00000000 </v>
   <v>      -0.00000000       0.00000000       0.00000000 </v>
   <v>      -0.00000000      -0.00000000      -0.00000000 </v>
   <v>      -0.00000000       0.00000000      -0.00000000 </v>
  </varray>
  <varray name="stress" >
   <v>       8.47681756       0.00000000       0.00000000 </v>
   <v>       0.00000000       8.47681756       0.00000000 </v>
   <v>       0.00000000      -0.00000000       8.47681756 </v>
  </varray>
  <energy>
   <i name="e_fr_energy">   -879.51763576 </i>
   <i name="e_wo_entrp">   -879.49373929 </i>
   <i name="e_0_energy">     -0.07168942 </i>
  </energy>
  <time name="totalsc"> 1638.91 1639.18</time>
 </calculation>
 <calculation>
  <scstep>
   <time name="dav">   49.87   49.87</time>
   <time name="total">   52.39   52.39</time>
   <energy>
    <i name="alphaZ">   7243.48071866 </i>
    <i name="ewald"> -66060.50091102 </i>
    <i name="hartreedc">  -9325.09249961 </i>
    <i name="XCdc">    352.56080274 </i>
    <i name="pawpsdc">  58042.74133272 </i>
    <i name="pawaedc"> -58977.71018003 </i>
    <i name="eentropy">     -0.08700297 </i>
    <i name="bandstr">   3642.06654831 </i>
    <i name="atom">  64202.55724146 </i>
    <i name="e_fr_energy">   -879.98394975 </i>
    <i name="e_wo_entrp">   -879.89694677 </i>
    <i name="e_0_energy">   -879.95494875 </i>
   </energy>
  </scstep>
  <scstep>
   <time name="diag">    6.46    6.46</time>
   <time name="diis">   20.27   20.27</time>
   <time name="orth">    1.95    1.95</time>
   <time name="total">   31.26   31.27</time>
   <energy>
    <i name="e_fr_energy">   -879.50164028 </i>
    <i name="e_wo_entrp">   -879.43855805 </i>
    <i name="e_0_energy">   -879.48061287 </i>
   </energy>
  </scstep>
  <scstep>
   <time name="diag">    6.38    6.38</time>
   <time name="diis">   22.49   22.49</time>
   <time name="orth">    1.89    1.89</time>
   <time name="total">   33.27   33.27</time>
   <energy>
    <i name="e_fr_energy">   -879.49929101 </i>
    <i name="e_wo_entrp">   -879.43436566 </i>
    <i name="e_0_energy">   -879.47764923 </i>
   </energy>
  </scstep>
  <scstep>
   <time name="diag">    6.36    6.36</time>
   <time name="diis">   20.26   20.26</time>
   <time name="orth">    1.94    1.94</time>
   <time name="total">   31.14   31.15</time>
   <energy>
    <i name="e_fr_energy">   -879.49231976 </i>
    <i name="e_wo_entrp">   -879.42327872 </i>
    <i name="e_0_energy">   -879.46930608 </i>
   </energy>
  </scstep>
  <scstep>
   <time name="diag">    6.57    6.57</time>
   <time name="diis">   20.63   20.63</time>
   <time name="orth">    1.95    1.95</time>
   <time name="total">   31.62   31.63</time>
   <energy>
    <i name="e_fr_energy">   -879.49572209 </i>
    <i name="e_wo_entrp">   -879.42716995 </i>
    <i name="e_0_energy">   -879.47287138 </i>
   </energy>
  </scstep>
  <scstep>
   <time name="diag">    6.27    6.27</time>
   <time name="diis">   20.20   20.20</time>
   <time name="orth">    1.92    1.92</time>
   <time name="total">   30.92   30.92</time>
   <energy>
    <i name="e_fr_energy">   -879.48831630 </i>
    <i name="e_wo_entrp">   -879.42261030 </i>
    <i name="e_0_energy">   -879.46641430 </i>
   </energy>
  </scstep>
  <scstep>
   <time name="diag">    6.39    6.40</time>
   <time name="diis">   25.39   25.40</time>
   <time name="orth">    1.93    1.93</time>
   <time name="total">   36.23   36.24</time>
   <energy>
    <i name="e_fr_energy">   -879.48848628 </i>
    <i name="e_wo_entrp">   -879.42258123 </i>
    <i name="e_0_energy">   -879.46651793 </i>
   </energy>
  </scstep>
  <scstep>
   <time name="diag">    6.40    6.40</time>
   <time name="diis">   20.52   20.52</time>
   <time name="orth">    1.92    1.92</time>
   <time name="total">   31.39   31.39</time>
   <energy>
    <i name="e_fr_energy">   -879.48838192 </i>
    <i name="e_wo_entrp">   -879.42224238 </i>
    <i name="e_0_energy">   -879.46633541 </i>
   </energy>
  </scstep>
  <scstep>
   <time name="diag">    6.40    6.41</time>
   <time name="diis">   20.39   20.40</time>
   <time name="orth">    1.96    1.96</time>
   <time name="total">   31.36   31.37</time>
   <energy>
    <i name="e_fr_energy">   -879.48838180 </i>
    <i name="e_wo_entrp">   -879.42199667 </i>
    <i name="e_0_energy">   -879.46625342 </i>
   </energy>
  </scstep>
  <scstep>
   <time name="diag">    6.59    6.59</time>
   <time name="diis">   24.37   24.37</time>
   <time name="orth">    1.96    1.96</time>
   <time name="total">   35.53   35.53</time>
   <energy>
    <i name="e_fr_energy">   -879.48838773 </i>
    <i name="e_wo_entrp">   -879.42199352 </i>
    <i name="e_0_energy">   -879.46625633 </i>
   </energy>
  </scstep>
  <scstep>
   <time name="diag">    6.59    6.59</time>
   <time name="diis">   13.31   13.31</time>
   <time name="orth">    1.91    1.91</time>
   <time name="total">   24.36   24.36</time>
   <energy>
    <i name="e_fr_energy">   -879.48838583 </i>
    <i name="e_wo_entrp">   -879.42199812 </i>
    <i name="e_0_energy">   -879.46625659 </i>
   </energy>
  </scstep>
  <scstep>
   <time name="diag">    6.59    6.59</time>
   <time name="diis">   16.61   16.61</time>
   <time name="orth">    1.90    1.90</time>
   <time name="total">   27.62   27.62</time>
   <energy>
    <i name="e_fr_energy">   -879.48838356 </i>
    <i name="e_wo_entrp">   -879.42202465 </i>
    <i name="e_0_energy">   -879.46626393 </i>
   </energy>
  </scstep>
  <scstep>
   <time name="diag">    6.34    6.34</time>
   <time name="diis">   12.25   12.25</time>
   <time name="orth">    1.96    1.96</time>
   <time name="total">   23.15   23.16</time>
   <energy>
    <i name="e_fr_energy">   -879.48838567 </i>
    <i name="e_wo_entrp">   -879.42201207 </i>
    <i name="e_0_energy">   -879.46626114 </i>
   </energy>
  </scstep>
  <scstep>
   <time name="diag">    6.36    6.36</time>
   <time name="diis">   11.40   11.40</time>
   <time name="orth">    1.96    1.96</time>
   <time name="total">   20.05   20.05</time>
   <energy>
    <i name="alphaZ">   7243.48071866 </i>
    <i name="ewald"> -66060.50091102 </i>
    <i name="hartreedc">  -9410.47546257 </i>
    <i name="XCdc">    357.59508893 </i>
    <i name="pawpsdc">  57835.80010479 </i>
    <i name="pawaedc"> -58766.88109733 </i>
    <i name="eentropy">     -0.06637447 </i>
    <i name="bandstr">   3719.00230541 </i>
    <i name="atom">  64202.55724146 </i>
    <i name="e_fr_energy">   -879.48838615 </i>
    <i name="e_wo_entrp">   -879.42201168 </i>
    <i name="e_0_energy">   -879.46626133 </i>
   </energy>
  </scstep>
  <structure>
   <crystal>
    <varray name="basis" >
     <v>      10.36180866       0.00000000       0.00000000 </v>
     <v>       0.00000000      10.36180866       0.00000000 </v>
     <v>       0.00000000      -0.00000000      10.36180866 </v>
    </varray>
    <i name="volume">   1112.51712676 </i>
    <varray name="rec_basis" >
     <v>       0.09650825      -0.00000000      -0.00000000 </v>
     <v>      -0.00000000       0.09650825       0.00000000 </v>
     <v>      -0.00000000      -0.00000000       0.09650825 </v>
    </varray>
   </crystal>
   <varray name="positions" >
    <v>       0.00000000       0.00000000       0.00000000 </v>
    <v>       0.00000000       0.16666893       0.16666893 </v>
    <v>       0.16666893      -0.00000000       0.16666893 </v>
    <v>       0.16666893       0.16666893      -0.00000000 </v>
    <v>       0.33333106       0.00000000       0.00000000 </v>
    <v>       0.33333107       0.16666893       0.16666893 </v>
    <v>       0.50000000       0.00000000       0.16666894 </v>
    <v>       0.50000000       0.16666894      -0.00000000 </v>
    <v>       0.66666897       0.00000000      -0.00000000 </v>
    <v>       0.66666896       0.16666893       0.16666893 </v>
    <v>       0.83333104      -0.00000000       0.16666893 </v>
    <v>       0.83333104       0.16666893      -0.00000000 </v>
    <v>       0.00000000       0.33333106       0.00000000 </v>
    <v>      -0.00000000       0.50000000       0.16666894 </v>
    <v>       0.16666893       0.33333107       0.16666893 </v>
    <v>       0.16666894       0.50000000       0.00000000 </v>
    <v>       0.33333107       0.33333107      -0.00000000 </v>
    <v>       0.33333107       0.50000000       0.16666893 </v>
    <v>       0.50000000       0.33333107       0.16666893 </v>
    <v>       0.50000000       0.50000000       0.00000000 </v>
    <v>       0.66666896       0.33333107       0.00000000 </v>
    <v>       0.66666896       0.50000000       0.16666893 </v>
    <v>       0.83333104       0.33333107       0.16666893 </v>
    <v>       0.83333103       0.50000000       0.00000000 </v>
    <v>      -0.00000000       0.66666897       0.00000000 </v>
    <v>      -0.00000000       0.83333104       0.16666893 </v>
    <v>       0.16666893       0.66666896       0.16666893 </v>
    <v>       0.16666893       0.83333104      -0.00000000 </v>
    <v>       0.33333107       0.66666896      -0.00000000 </v>
    <v>       0.33333107       0.83333104       0.16666893 </v>
    <v>       0.50000000       0.66666896       0.16666893 </v>
    <v>       0.50000000       0.83333103       0.00000000 </v>
    <v>       0.66666896       0.66666896      -0.00000000 </v>
    <v>       0.66666896       0.83333104       0.16666893 </v>
    <v>       0.83333104       0.66666896       0.16666893 </v>
    <v>       0.83333104       0.83333104      -0.00000000 </v>
    <v>       0.00000000      -0.00000000       0.33333106 </v>
    <v>       0.00000000       0.16666894       0.50000000 </v>
    <v>       0.16666894      -0.00000000       0.50000000 </v>
    <v>       0.16666893       0.16666893       0.33333107 </v>
    <v>       0.33333107       0.00000000       0.33333107 </v>
    <v>       0.33333107       0.16666893       0.50000000 </v>
    <v>       0.50000000      -0.00000000       0.50000000 </v>
    <v>       0.50000000       0.16666893       0.33333107 </v>
    <v>       0.66666896       0.00000000       0.33333107 </v>
    <v>       0.66666896       0.16666893       0.50000000 </v>
    <v>       0.83333103      -0.00000000       0.50000000 </v>
    <v>       0.83333104       0.16666893       0.33333107 </v>
    <v>       0.00000000       0.33333107       0.33333107 </v>
    <v>       0.00000000       0.50000000       0.50000000 </v>
    <v>       0.16666893       0.33333107       0.50000000 </v>
    <v>       0.16666893       0.50000000       0.33333107 </v>
    <v>       0.33333107       0.33333107       0.33333107 </v>
    <v>       0.33333106       0.50000000       0.50000000 </v>
    <v>       0.50000000       0.33333106       0.50000000 </v>
    <v>       0.50000000       0.50000000       0.33333106 </v>
    <v>       0.66666896       0.33333107       0.33333107 </v>
    <v>       0.66666897       0.50000000       0.50000000 </v>
    <v>       0.83333104       0.33333107       0.50000000 </v>
    <v>       0.83333104       0.50000000       0.33333107 </v>
    <v>       0.00000000       0.66666896       0.33333107 </v>
    <v>       0.00000000       0.83333103       0.50000000 </v>
    <v>       0.16666893       0.66666896       0.50000000 </v>
    <v>       0.16666893       0.83333104       0.33333107 </v>
    <v>       0.33333107       0.66666896       0.33333107 </v>
    <v>       0.33333107       0.83333104       0.50000000 </v>
    <v>       0.50000000       0.66666897       0.50000000 </v>
    <v>       0.50000000       0.83333104       0.33333107 </v>
    <v>       0.66666896       0.66666896       0.33333107 </v>
    <v>       0.66666896       0.83333104       0.50000000 </v>
    <v>       0.83333104       0.66666896       0.50000000 </v>
    <v>       0.83333104       0.83333104       0.33333107 </v>
    <v>      -0.00000000      -0.00000000       0.66666897 </v>
    <v>      -0.00000000       0.16666893       0.83333104 </v>
    <v>       0.16666893       0.00000000       0.83333104 </v>
    <v>       0.16666893       0.16666893       0.66666896 </v>
    <v>       0.33333107       0.00000000       0.66666896 </v>
    <v>       0.33333107       0.16666893       0.83333104 </v>
    <v>       0.50000000      -0.00000000       0.83333103 </v>
    <v>       0.50000000       0.16666893       0.66666896 </v>
    <v>       0.66666896       0.00000000       0.66666896 </v>
    <v>       0.66666896       0.16666893       0.83333104 </v>
    <v>       0.83333104       0.00000000       0.83333104 </v>
    <v>       0.83333104       0.16666893       0.66666896 </v>
    <v>       0.00000000       0.33333107       0.66666896 </v>
    <v>      -0.00000000       0.50000000       0.83333103 </v>
    <v>       0.16666893       0.33333107       0.83333104 </v>
    <v>       0.16666893       0.50000000       0.66666896 </v>
    <v>       0.33333107       0.33333107       0.66666896 </v>
    <v>       0.33333107       0.50000000       0.83333104 </v>
    <v>       0.50000000       0.33333107       0.83333104 </v>
    <v>       0.50000000       0.50000000       0.66666897 </v>
    <v>       0.66666896       0.33333107       0.66666896 </v>
    <v>       0.66666896       0.50000000       0.83333104 </v>
    <v>       0.83333104       0.33333107       0.83333104 </v>
    <v>       0.83333104       0.50000000       0.66666896 </v>
    <v>      -0.00000000       0.66666896       0.66666896 </v>
    <v>      -0.00000000       0.83333104       0.83333104 </v>
    <v>       0.16666893       0.66666896       0.83333104 </v>
    <v>       0.16666893       0.83333104       0.66666896 </v>
    <v>       0.33333107       0.66666896       0.66666896 </v>
    <v>       0.33333107       0.83333104       0.83333104 </v>
    <v>       0.50000000       0.66666896       0.83333104 </v>
    <v>       0.50000000       0.83333104       0.66666896 </v>
    <v>       0.66666896       0.66666896       0.66666896 </v>
    <v>       0.66666896       0.83333104       0.83333104 </v>
    <v>       0.83333104       0.66666896       0.83333104 </v>
    <v>       0.83333104       0.83333104       0.66666896 </v>
   </varray>
  </structure>
  <varray name="forces" >
   <v>      -0.00000000      -0.00000000      -0.00000000 </v>
   <v>       0.00000000       0.00000000       0.00000000 </v>
   <v>       0.00000000      -0.00000000      -0.00000000 </v>
   <v>       0.00000000      -0.00000000      -0.00000000 </v>
   <v>       0.00000000       0.00000000       0.00000000 </v>
   <v>      -0.00000000       0.00000000       0.00000000 </v>
   <v>       0.00000000       0.00000000      -0.00000000 </v>
   <v>      -0.00000000       0.00000000      -0.00000000 </v>
   <v>       0.00000000       0.00000000       0.00000000 </v>
   <v>      -0.00000000      -0.00000000       0.00000000 </v>
   <v>      -0.00000000       0.00000000      -0.00000000 </v>
   <v>       0.00000000      -0.00000000      -0.00000000 </v>
   <v>      -0.00000000       0.00000000      -0.00000000 </v>
   <v>       0.00000000       0.00000000      -0.00000000 </v>
   <v>      -0.00000000       0.00000000       0.00000000 </v>
   <v>       0.00000000      -0.00000000       0.00000000 </v>
   <v>       0.00000000      -0.00000000      -0.00000000 </v>
   <v>       0.00000000       0.00000000      -0.00000000 </v>
   <v>       0.00000000       0.00000000       0.00000000 </v>
   <v>      -0.00000000      -0.00000000       0.00000000 </v>
   <v>       0.00000000      -0.00000000       0.00000000 </v>
   <v>      -0.00000000      -0.00000000       0.00000000 </v>
   <v>       0.00000000       0.00000000      -0.00000000 </v>
   <v>      -0.00000000      -0.00000000       0.00000000 </v>
   <v>      -0.00000000      -0.00000000      -0.00000000 </v>
   <v>       0.00000000      -0.00000000      -0.00000000 </v>
   <v>      -0.00000000      -0.00000000       0.00000000 </v>
   <v>       0.00000000      -0.00000000      -0.00000000 </v>
   <v>       0.00000000       0.00000000       0.00000000 </v>
   <v>      -0.00000000       0.00000000       0.00000000 </v>
   <v>       0.00000000      -0.00000000       0.00000000 </v>
   <v>      -0.00000000      -0.00000000       0.00000000 </v>
   <v>      -0.00000000       0.00000000      -0.00000000 </v>
   <v>      -0.00000000       0.00000000       0.00000000 </v>
   <v>       0.00000000       0.00000000       0.00000000 </v>
   <v>       0.00000000       0.00000000      -0.00000000 </v>
   <v>       0.00000000      -0.00000000      -0.00000000 </v>
   <v>       0.00000000       0.00000000      -0.00000000 </v>
   <v>       0.00000000      -0.00000000      -0.00000000 </v>
   <v>       0.00000000      -0.00000000       0.00000000 </v>
   <v>       0.00000000       0.00000000       0.00000000 </v>
   <v>      -0.00000000      -0.00000000       0.00000000 </v>
   <v>       0.00000000       0.00000000      -0.00000000 </v>
   <v>       0.00000000       0.00000000       0.00000000 </v>
   <v>       0.00000000       0.00000000      -0.00000000 </v>
   <v>      -0.00000000      -0.00000000       0.00000000 </v>
   <v>      -0.00000000      -0.00000000      -0.00000000 </v>
   <v>      -0.00000000      -0.00000000      -0.00000000 </v>
   <v>      -0.00000000       0.00000000       0.00000000 </v>
   <v>       0.00000000       0.00000000      -0.00000000 </v>
   <v>      -0.00000000       0.00000000       0.00000000 </v>
   <v>      -0.00000000      -0.00000000      -0.00000000 </v>
   <v>       0.00000000      -0.00000000       0.00000000 </v>
   <v>       0.00000000       0.00000000      -0.00000000 </v>
   <v>      -0.00000000       0.00000000      -0.00000000 </v>
   <v>      -0.00000000      -0.00000000       0.00000000 </v>
   <v>       0.00000000      -0.00000000       0.00000000 </v>
   <v>      -0.00000000      -0.00000000       0.00000000 </v>
   <v>      -0.00000000       0.00000000       0.00000000 </v>
   <v>       0.00000000      -0.00000000      -0.00000000 </v>
   <v>      -0.00000000      -0.00000000       0.00000000 </v>
   <v>       0.00000000      -0.00000000      -0.00000000 </v>
   <v>      -0.00000000      -0.00000000       0.00000000 </v>
   <v>       0.00000000      -0.00000000       0.00000000 </v>
   <v>       0.00000000       0.00000000       0.00000000 </v>
   <v>       0.00000000       0.00000000       0.00000000 </v>
[...]
       <r>    -1.8079     2.7260     0.3851 </r>
       <r>    -1.7626     3.2556     0.5326 </r>
       <r>    -1.7173     3.6410     0.6977 </r>
       <r>    -1.6720     3.8519     0.8723 </r>
       <r>    -1.6266     3.9306     1.0505 </r>
       <r>    -1.5813     3.9608     1.2300 </r>
       <r>    -1.5360     4.0230     1.4124 </r>
       <r>    -1.4906     4.1716     1.6015 </r>
       <r>    -1.4453     4.4367     1.8026 </r>
       <r>    -1.4000     4.8317     2.0216 </r>
       <r>    -1.3546     5.3542     2.2643 </r>
       <r>    -1.3093     5.9756     2.5352 </r>
       <r>    -1.2640     6.6167     2.8351 </r>
       <r>    -1.2187     7.1299     3.1583 </r>
       <r>    -1.1733     7.3315     3.4907 </r>
       <r>    -1.1280     7.1003     3.8125 </r>
       <r>    -1.0827     6.4851     4.1065 </r>
       <r>    -1.0373     5.7254     4.3660 </r>
       <r>    -0.9920     5.1557     4.5997 </r>
       <r>    -0.9467     5.0536     4.8288 </r>
       <r>    -0.9013     5.5321     5.0796 </r>
       <r>    -0.8560     6.5262     5.3754 </r>
       <r>    -0.8107     7.8528     5.7314 </r>
       <r>    -0.7653     9.2743     6.1518 </r>
       <r>    -0.7200    10.5216     6.6287 </r>
       <r>    -0.6747    11.2977     7.1409 </r>
       <r>    -0.6294    11.3379     7.6548 </r>
       <r>    -0.5840    10.5497     8.1330 </r>
       <r>    -0.5387     9.1435     8.5475 </r>
       <r>    -0.4934     7.6168     8.8928 </r>
       <r>    -0.4480     6.5535     9.1898 </r>
       <r>    -0.4027     6.3578     9.4780 </r>
       <r>    -0.3574     7.0898     9.7994 </r>
       <r>    -0.3120     8.4854    10.1841 </r>
       <r>    -0.2667    10.1091    10.6423 </r>
       <r>    -0.2214    11.5265    11.1648 </r>
       <r>    -0.1761    12.4241    11.7280 </r>
       <r>    -0.1307    12.6746    12.3025 </r>
       <r>    -0.0854    12.3669    12.8631 </r>
       <r>    -0.0401    11.7837    13.3973 </r>
       <r>     0.0053    11.2943    13.9093 </r>
       <r>     0.0506    11.1871    14.4164 </r>
       <r>     0.0959    11.5383    14.9394 </r>
       <r>     0.1413    12.2073    15.4928 </r>
       <r>     0.1866    12.9530    16.0799 </r>
       <r>     0.2319    13.5752    16.6953 </r>
       <r>     0.2772    13.9809    17.3290 </r>
       <r>     0.3226    14.1557    17.9707 </r>
       <r>     0.3679    14.1032    18.6100 </r>
       <r>     0.4132    13.8195    19.2365 </r>
       <r>     0.4586    13.3207    19.8403 </r>
       <r>     0.5039    12.6968    20.4158 </r>
       <r>     0.5492    12.1597    20.9670 </r>
       <r>     0.5946    12.0427    21.5129 </r>
       <r>     0.6399    12.7016    22.0887 </r>
       <r>     0.6852    14.3104    22.7374 </r>
       <r>     0.7305    16.6566    23.4924 </r>
       <r>     0.7759    19.1229    24.3593 </r>
       <r>     0.8212    20.9507    25.3090 </r>
       <r>     0.8665    21.6556    26.2906 </r>
       <r>     0.9119    21.2982    27.2561 </r>
       <r>     0.9572    20.3855    28.1802 </r>
       <r>     1.0025    19.4678    29.0626 </r>
       <r>     1.0479    18.7551    29.9128 </r>
       <r>     1.0932    18.0798    30.7324 </r>
       <r>     1.1385    17.2361    31.5137 </r>
       <r>     1.1838    16.3885    32.2566 </r>
       <r>     1.2292    16.1661    32.9894 </r>
       <r>     1.2745    17.3236    33.7747 </r>
       <r>     1.3198    20.2107    34.6908 </r>
       <r>     1.3652    24.4314    35.7983 </r>
       <r>     1.4105    28.9122    37.1089 </r>
       <r>     1.4558    32.3259    38.5742 </r>
       <r>     1.5012    33.6506    40.0996 </r>
       <r>     1.5465    32.6200    41.5783 </r>
       <r>     1.5918    29.8976    42.9335 </r>
       <r>     1.6371    26.9172    44.1537 </r>
       <r>     1.6825    25.4484    45.3073 </r>
       <r>     1.7278    27.0392    46.5330 </r>
       <r>     1.7731    32.5168    48.0070 </r>
       <r>     1.8185    41.7133    49.8978 </r>
       <r>     1.8638    53.5348    52.3246 </r>
       <r>     1.9091    66.3763    55.3334 </r>
       <r>     1.9545    78.6807    58.9000 </r>
       <r>     1.9998    89.3137    62.9486 </r>
       <r>     2.0451    97.5775    67.3718 </r>
       <r>     2.0904   103.0368    72.0425 </r>
       <r>     2.1358   105.5055    76.8251 </r>
       <r>     2.1811   105.2966    81.5982 </r>
       <r>     2.2264   103.4459    86.2874 </r>
       <r>     2.2718   101.5391    90.8902 </r>
       <r>     2.3171   101.0937    95.4727 </r>
       <r>     2.3624   102.8403   100.1345 </r>
       <r>     2.4078   106.3748   104.9565 </r>
       <r>     2.4531   110.4627   109.9638 </r>
       <r>     2.4984   113.8864   115.1263 </r>
       <r>     2.5437   116.3158   120.3989 </r>
       <r>     2.5891   118.5520   125.7728 </r>
       <r>     2.6344   121.8801   131.2977 </r>
       <r>     2.6797   127.0001   137.0546 </r>
       <r>     2.7251   133.4302   143.1030 </r>
       <r>     2.7704   139.9179   149.4455 </r>
       <r>     2.8157   145.4922   156.0407 </r>
       <r>     2.8611   150.2019   162.8493 </r>
       <r>     2.9064   154.8748   169.8698 </r>
       <r>     2.9517   160.1331   177.1287 </r>
       <r>     2.9970   165.5637   184.6337 </r>
       <r>     3.0424   169.7978   192.3307 </r>
       <r>     3.0877   171.4503   200.1025 </r>
       <r>     3.1330   170.1209   207.8141 </r>
       <r>     3.1784   166.6229   215.3672 </r>
       <r>     3.2237   162.3134   222.7248 </r>
       <r>     3.2690   158.2046   229.8963 </r>
       <r>     3.3144   154.6553   236.9068 </r>
       <r>     3.3597   151.7622   243.7862 </r>
       <r>     3.4050   149.8263   250.5779 </r>
       <r>     3.4504   149.2609   257.3439 </r>
       <r>     3.4957   150.0180   264.1442 </r>
       <r>     3.5410   151.2051   270.9983 </r>
       <r>     3.5863   151.3984   277.8613 </r>
       <r>     3.6317   149.4828   284.6373 </r>
       <r>     3.6770   145.3860   291.2277 </r>
       <r>     3.7223   140.2035   297.5831 </r>
       <r>     3.7677   135.6423   303.7318 </r>
       <r>     3.8130   133.0771   309.7642 </r>
       <r>     3.8583   132.7132   315.7801 </r>
       <r>     3.9037   133.3898   321.8267 </r>
       <r>     3.9490   133.3030   327.8693 </r>
       <r>     3.9943   131.3241   333.8223 </r>
       <r>     4.0396   127.9987   339.6245 </r>
       <r>     4.0850   125.3656   345.3073 </r>
       <r>     4.1303   125.6008   351.0008 </r>
       <r>     4.1756   129.5276   356.8723 </r>
       <r>     4.2210   136.2422   363.0482 </r>
       <r>     4.2663   144.1388   369.5820 </r>
       <r>     4.3116   152.3042   376.4859 </r>
       <r>     4.3570   160.9064   383.7798 </r>
       <r>     4.4023   170.2418   391.4969 </r>
       <r>     4.4476   179.4951   399.6335 </r>
       <r>     4.4929   186.5540   408.0900 </r>
       <r>     4.5383   189.1746   416.6653 </r>
       <r>     4.5836   186.5574   425.1219 </r>
       <r>     4.6289   180.1604   433.2886 </r>
       <r>     4.6743   173.2955   441.1441 </r>
       <r>     4.7196   169.8407   448.8430 </r>
       <r>     4.7649   172.6847   456.6709 </r>
       <r>     4.8103   182.4846   464.9429 </r>
       <r>     4.8556   197.2523   473.8844 </r>
       <r>     4.9009   213.0875   483.5437 </r>
       <r>     4.9462   225.8433   493.7812 </r>
       <r>     4.9916   232.8904   504.3381 </r>
       <r>     5.0369   234.0095   514.9458 </r>
       <r>     5.0822   231.0289   525.4183 </r>
       <r>     5.1276   226.6772   535.6936 </r>
       <r>     5.1729   223.5133   545.8255 </r>
       <r>     5.2182   223.4496   555.9545 </r>
       <r>     5.2636   227.6879   566.2756 </r>
       <r>     5.3089   236.5068   576.9965 </r>
       <r>     5.3542   248.6653   588.2685 </r>
       <r>     5.3995   260.9363   600.0968 </r>
       <r>     5.4449   268.6540   612.2749 </r>
       <r>     5.4902   267.5748   624.4041 </r>
       <r>     5.5355   256.1577   636.0158 </r>
       <r>     5.5809   236.6789   646.7444 </r>
       <r>     5.6262   214.2019   656.4542 </r>
       <r>     5.6715   193.9441   665.2457 </r>
       <r>     5.7169   178.7657   673.3492 </r>
       <r>     5.7622   168.3758   680.9817 </r>
       <r>     5.8075   160.5588   688.2599 </r>
       <r>     5.8528   153.3197   695.2099 </r>
       <r>     5.8982   146.3914   701.8458 </r>
       <r>     5.9435   141.2331   708.2479 </r>
       <r>     5.9888   139.8015   714.5851 </r>
       <r>     6.0342   143.1164   721.0726 </r>
       <r>     6.0795   150.5542   727.8972 </r>
       <r>     6.1248   160.1682   735.1577 </r>
       <r>     6.1702   169.6980   742.8501 </r>
       <r>     6.2155   177.6624   750.9036 </r>
       <r>     6.2608   183.9712   759.2430 </r>
       <r>     6.3061   189.6966   767.8420 </r>
       <r>     6.3515   196.0366   776.7283 </r>
       <r>     6.3968   203.0856   785.9342 </r>
       <r>     6.4421   209.3995   795.4263 </r>
       <r>     6.4875   212.9123   805.0777 </r>
       <r>     6.5328   212.6155   814.7155 </r>
       <r>     6.5781   209.5432   824.2142 </r>
       <r>     6.6235   206.0381   833.5539 </r>
       <r>     6.6688   203.7785   842.7912 </r>
       <r>     6.7141   202.2686   851.9601 </r>
       <r>     6.7594   199.2137   860.9904 </r>
       <r>     6.8048   192.5964   869.7208 </r>
       <r>     6.8501   182.7499   878.0049 </r>
       <r>     6.8954   172.6477   885.8311 </r>
       <r>     6.9408   166.0937   893.3601 </r>
       <r>     6.9861   165.2278   900.8499 </r>
       <r>     7.0314   169.2755   908.5232 </r>
       <r>     7.0768   175.3720   916.4728 </r>
       <r>     7.1221   180.6074   924.6598 </r>
       <r>     7.1674   183.6644   932.9853 </r>
       <r>     7.2128   185.0790   941.3749 </r>
       <r>     7.2581   186.4144   949.8251 </r>
       <r>     7.3034   189.2606   958.4043 </r>
       <r>     7.3487   194.5897   967.2251 </r>
       <r>     7.3941   202.3317   976.3968 </r>
       <r>     7.4394   210.9110   985.9574 </r>
       <r>     7.4847   216.9538   995.7920 </r>
       <r>     7.5301   215.7765  1005.5731 </r>
       <r>     7.5754   202.9932  1014.7748 </r>
       <r>     7.6207   176.7303  1022.7861 </r>
       <r>     7.6661   139.1945  1029.0958 </r>
       <r>     7.7114    96.4210  1033.4665 </r>
       <r>     7.7567    56.0664  1036.0080 </r>
       <r>     7.8020    24.4011  1037.1141 </r>
       <r>     7.8474     4.1902  1037.3041 </r>
       <r>     7.8927    -5.5124  1037.0542 </r>
       <r>     7.9380    -7.9330  1036.6946 </r>
       <r>     7.9834    -6.6684  1036.3923 </r>
       <r>     8.0287    -4.3731  1036.1941 </r>
       <r>     8.0740    -2.4060  1036.0850 </r>
       <r>     8.1194    -1.1436  1036.0332 </r>
       <r>     8.1647    -0.4765  1036.0116 </r>
       <r>     8.2100    -0.1755  1036.0036 </r>
       <r>     8.2553    -0.0575  1036.0010 </r>
       <r>     8.3007    -0.0168  1036.0003 </r>
       <r>     8.3460    -0.0044  1036.0001 </r>
       <r>     8.3913    -0.0010  1036.0000 </r>
       <r>     8.4367    -0.0002  1036.0000 </r>
       <r>     8.4820    -0.0000  1036.0000 </r>
       <r>     8.5273    -0.0000  1036.0000 </r>
       <r>     8.5727    -0.0000  1036.0000 </r>
       <r>     8.6180    -0.0000  1036.0000 </r>
       <r>     8.6633    -0.0000  1036.0000 </r>
       <r>     8.7086    -0.0000  1036.0000 </r>
       <r>     8.7540    -0.0000  1036.0000 </r>
       <r>     8.7993    -0.0000  1036.0000 </r>
       <r>     8.8446    -0.0000  1036.0000 </r>
       <r>     8.8900    -0.0000  1036.0000 </r>
       <r>     8.9353     0.0000  1036.0000 </r>
       <r>     8.9806     0.0000  1036.0000 </r>
       <r>     9.0260     0.0000  1036.0000 </r>
       <r>     9.0713     0.0000  1036.0000 </r>
       <r>     9.1166     0.0000  1036.0000 </r>
       <r>     9.1619     0.0000  1036.0000 </r>
       <r>     9.2073     0.0000  1036.0000 </r>
       <r>     9.2526     0.0000  1036.0000 </r>
       <r>     9.2979     0.0000  1036.0000 </r>
       <r>     9.3433     0.0000  1036.0000 </r>
       <r>     9.3886     0.0000  1036.0000 </r>
       <r>     9.4339     0.0000  1036.0000 </r>
       <r>     9.4793     0.0000  1036.0000 </r>
       <r>     9.5246     0.0000  1036.0000 </r>
       <r>     9.5699     0.0000  1036.0000 </r>
       <r>     9.6152     0.0000  1036.0000 </r>
       <r>     9.6606     0.0000  1036.0000 </r>
      </set>
     </set>
    </array>
   </total>
  </dos>
 </calculation>
 <structure name="finalpos" >
  <crystal>
   <varray name="basis" >
    <v>      10.34314212       0.00000000       0.00000000 </v>
    <v>       0.00000000      10.34314212       0.00000000 </v>
    <v>       0.00000000      -0.00000000      10.34314212 </v>
   </varray>
   <i name="volume">   1106.51543432 </i>
   <varray name="rec_basis" >
    <v>       0.09668242      -0.00000000      -0.00000000 </v>
    <v>      -0.00000000       0.09668242       0.00000000 </v>
    <v>      -0.00000000      -0.00000000       0.09668242 </v>
   </varray>
  </crystal>
  <varray name="positions" >
   <v>       0.00000000       0.00000000       0.00000000 </v>
   <v>       0.00000000       0.16666893       0.16666893 </v>
   <v>       0.16666893      -0.00000000       0.16666893 </v>
   <v>       0.16666893       0.16666893      -0.00000000 </v>
   <v>       0.33333106       0.00000000       0.00000000 </v>
   <v>       0.33333107       0.16666893       0.16666893 </v>
   <v>       0.50000000       0.00000000       0.16666894 </v>
   <v>       0.50000000       0.16666894      -0.00000000 </v>
   <v>       0.66666897       0.00000000      -0.00000000 </v>
   <v>       0.66666896       0.16666893       0.16666893 </v>
   <v>       0.83333104      -0.00000000       0.16666893 </v>
   <v>       0.83333104       0.16666893      -0.00000000 </v>
   <v>       0.00000000       0.33333106       0.00000000 </v>
   <v>      -0.00000000       0.50000000       0.16666894 </v>
   <v>       0.16666893       0.33333107       0.16666893 </v>
   <v>       0.16666894       0.50000000       0.00000000 </v>
   <v>       0.33333107       0.33333107      -0.00000000 </v>
   <v>       0.33333107       0.50000000       0.16666893 </v>
   <v>       0.50000000       0.33333107       0.16666893 </v>
   <v>       0.50000000       0.50000000       0.00000000 </v>
   <v>       0.66666896       0.33333107       0.00000000 </v>
   <v>       0.66666896       0.50000000       0.16666893 </v>
   <v>       0.83333104       0.33333107       0.16666893 </v>
   <v>       0.83333103       0.50000000       0.00000000 </v>
   <v>      -0.00000000       0.66666897       0.00000000 </v>
   <v>      -0.00000000       0.83333104       0.16666893 </v>
   <v>       0.16666893       0.66666896       0.16666893 </v>
   <v>       0.16666893       0.83333104      -0.00000000 </v>
   <v>       0.33333107       0.66666896      -0.00000000 </v>
   <v>       0.33333107       0.83333104       0.16666893 </v>
   <v>       0.50000000       0.66666896       0.16666893 </v>
   <v>       0.50000000       0.83333103       0.00000000 </v>
   <v>       0.66666896       0.66666896      -0.00000000 </v>
   <v>       0.66666896       0.83333104       0.16666893 </v>
   <v>       0.83333104       0.66666896       0.16666893 </v>
   <v>       0.83333104       0.83333104      -0.00000000 </v>
   <v>       0.00000000      -0.00000000       0.33333106 </v>
   <v>       0.00000000       0.16666894       0.50000000 </v>
   <v>       0.16666894      -0.00000000       0.50000000 </v>
   <v>       0.16666893       0.16666893       0.33333107 </v>
   <v>       0.33333107       0.00000000       0.33333107 </v>
   <v>       0.33333107       0.16666893       0.50000000 </v>
   <v>       0.50000000      -0.00000000       0.50000000 </v>
   <v>       0.50000000       0.16666893       0.33333107 </v>
   <v>       0.66666896       0.00000000       0.33333107 </v>
   <v>       0.66666896       0.16666893       0.50000000 </v>
   <v>       0.83333103      -0.00000000       0.50000000 </v>
   <v>       0.83333104       0.16666893       0.33333107 </v>
   <v>       0.00000000       0.33333107       0.33333107 </v>
   <v>       0.00000000       0.50000000       0.50000000 </v>
   <v>       0.16666893       0.33333107       0.50000000 </v>
   <v>       0.16666893       0.50000000       0.33333107 </v>
   <v>       0.33333107       0.33333107       0.33333107 </v>
   <v>       0.33333106       0.50000000       0.50000000 </v>
   <v>       0.50000000       0.33333106       0.50000000 </v>
   <v>       0.50000000       0.50000000       0.33333106 </v>
   <v>       0.66666896       0.33333107       0.33333107 </v>
   <v>       0.66666897       0.50000000       0.50000000 </v>
   <v>       0.83333104       0.33333107       0.50000000 </v>
   <v>       0.83333104       0.50000000       0.33333107 </v>
   <v>       0.00000000       0.66666896       0.33333107 </v>
   <v>       0.00000000       0.83333103       0.50000000 </v>
   <v>       0.16666893       0.66666896       0.50000000 </v>
   <v>       0.16666893       0.83333104       0.33333107 </v>
   <v>       0.33333107       0.66666896       0.33333107 </v>
   <v>       0.33333107       0.83333104       0.50000000 </v>
   <v>       0.50000000       0.66666897       0.50000000 </v>
   <v>       0.50000000       0.83333104       0.33333107 </v>
   <v>       0.66666896       0.66666896       0.33333107 </v>
   <v>       0.66666896       0.83333104       0.50000000 </v>
   <v>       0.83333104       0.66666896       0.50000000 </v>
   <v>       0.83333104       0.83333104       0.33333107 </v>
   <v>      -0.00000000      -0.00000000       0.66666897 </v>
   <v>      -0.00000000       0.16666893       0.83333104 </v>
   <v>       0.16666893       0.00000000       0.83333104 </v>
   <v>       0.16666893       0.16666893       0.66666896 </v>
   <v>       0.33333107       0.00000000       0.66666896 </v>
   <v>       0.33333107       0.16666893       0.83333104 </v>
   <v>       0.50000000      -0.00000000       0.83333103 </v>
   <v>       0.50000000       0.16666893       0.66666896 </v>
   <v>       0.66666896       0.00000000       0.66666896 </v>
   <v>       0.66666896       0.16666893       0.83333104 </v>
   <v>       0.83333104       0.00000000       0.83333104 </v>
   <v>       0.83333104       0.16666893       0.66666896 </v>
   <v>       0.00000000       0.33333107       0.66666896 </v>
   <v>      -0.00000000       0.50000000       0.83333103 </v>
   <v>       0.16666893       0.33333107       0.83333104 </v>
   <v>       0.16666893       0.50000000       0.66666896 </v>
   <v>       0.33333107       0.33333107       0.66666896 </v>
   <v>       0.33333107       0.50000000       0.83333104 </v>
   <v>       0.50000000       0.33333107       0.83333104 </v>
   <v>       0.50000000       0.50000000       0.66666897 </v>
   <v>       0.66666896       0.33333107       0.66666896 </v>
   <v>       0.66666896       0.50000000       0.83333104 </v>
   <v>       0.83333104       0.33333107       0.83333104 </v>
   <v>       0.83333104       0.50000000       0.66666896 </v>
   <v>      -0.00000000       0.66666896       0.66666896 </v>
   <v>      -0.00000000       0.83333104       0.83333104 </v>
   <v>       0.16666893       0.66666896       0.83333104 </v>
   <v>       0.16666893       0.83333104       0.66666896 </v>
   <v>       0.33333107       0.66666896       0.66666896 </v>
   <v>       0.33333107       0.83333104       0.83333104 </v>
   <v>       0.50000000       0.66666896       0.83333104 </v>
   <v>       0.50000000       0.83333104       0.66666896 </v>
   <v>       0.66666896       0.66666896       0.66666896 </v>
   <v>       0.66666896       0.83333104       0.83333104 </v>
   <v>       0.83333104       0.66666896       0.83333104 </v>
   <v>       0.83333104       0.83333104       0.66666896 </v>
  </varray>
 </structure>
</modeling>
