       N       E                     dE             d eps       ncg     rms          rms(c)
DAV:   1     0.750662905560E+04    0.75066E+04   -0.28621E+05 32944   0.183E+03
DAV:   2    -0.251934893755E+02   -0.75318E+04   -0.73640E+04 32896   0.456E+02
DAV:   3    -0.843082436420E+03   -0.81789E+03   -0.69854E+03 33224   0.190E+02
DAV:   4    -0.101759877628E+04   -0.17452E+03   -0.16364E+03 59952   0.570E+01
DAV:   5    -0.103256749127E+04   -0.14969E+02   -0.14110E+02 52592   0.216E+01    0.930E+01
RMM:   6    -0.879491839566E+03    0.15308E+03   -0.13975E+03 32958   0.112E+02    0.377E+01
RMM:   7    -0.113993567420E+04   -0.26044E+03   -0.37185E+02 44607   0.329E+01    0.168E+02
RMM:   8    -0.878855286239E+03    0.26108E+03   -0.18288E+02 32912   0.390E+01    0.442E+01
RMM:   9    -0.870108848204E+03    0.87464E+01   -0.56345E+01 40221   0.134E+01    0.134E+01
RMM:  10    -0.872160843924E+03   -0.20520E+01   -0.22883E+01 43354   0.813E+00    0.215E+01
RMM:  11    -0.869625752792E+03    0.25351E+01   -0.61110E+00 36864   0.581E+00    0.872E+00
RMM:  12    -0.869782049650E+03   -0.15630E+00   -0.54283E+00 49669   0.263E+00    0.869E+00
RMM:  13    -0.869303722390E+03    0.47833E+00   -0.15743E+00 38372   0.271E+00    0.641E+00
RMM:  14    -0.869248517790E+03    0.55205E-01   -0.92140E-01 45740   0.124E+00    0.581E+00
RMM:  15    -0.869166250484E+03    0.82267E-01   -0.26251E-01 40458   0.951E-01    0.493E+00
RMM:  16    -0.869040628215E+03    0.12562E+00   -0.29494E-01 36306   0.134E+00    0.188E+00
RMM:  17    -0.869070832183E+03   -0.30204E-01   -0.27097E-01 44867   0.832E-01    0.282E+00
RMM:  18    -0.869033244690E+03    0.37587E-01   -0.77447E-02 37578   0.621E-01    0.846E-01
RMM:  19    -0.869036750302E+03   -0.35056E-02   -0.57499E-02 51498   0.249E-01    0.100E+00
RMM:  20    -0.869036160835E+03    0.58947E-03   -0.16754E-02 38711   0.281E-01    0.968E-01
RMM:  21    -0.869034462084E+03    0.16988E-02   -0.84224E-03 42452   0.153E-01    0.754E-01
RMM:  22    -0.869033973622E+03    0.48846E-03   -0.60143E-03 38051   0.163E-01    0.662E-01
RMM:  23    -0.869031881122E+03    0.20925E-02   -0.27307E-03 36546   0.131E-01    0.171E-01
RMM:  24    -0.869031961309E+03   -0.80187E-04   -0.19229E-03 51136   0.458E-02    0.135E-01
RMM:  25    -0.869031929194E+03    0.32114E-04   -0.69756E-04 44046   0.373E-02    0.116E-01
RMM:  26    -0.869031876279E+03    0.52915E-04   -0.22752E-04 41696   0.252E-02    0.633E-02
RMM:  27    -0.869031881073E+03   -0.47933E-05   -0.13557E-04 48262   0.150E-02    0.786E-02
RMM:  28    -0.869031838433E+03    0.42640E-04   -0.33192E-05 36589   0.142E-02    0.290E-02
RMM:  29    -0.869031837287E+03    0.11456E-05   -0.27648E-05 45569   0.768E-03    0.279E-02
RMM:  30    -0.869031828848E+03    0.84392E-05   -0.10170E-05 36138   0.609E-03    0.156E-02
RMM:  31    -0.869031827593E+03    0.12556E-05   -0.26525E-06 24964   0.361E-03    0.754E-03
RMM:  32    -0.869031828918E+03   -0.13254E-05   -0.20760E-06 21981   0.337E-03    0.816E-03
RMM:  33    -0.869031829387E+03   -0.46897E-06   -0.12872E-06 20732   0.305E-03
   1 F= -.86903183E+03 E0= -.86901103E+03  d E =-.624063E-01
