 vasp.5.4.4.18Apr17-6-g9f103f2a35 (build Aug 17 2017 06:00:38) complex          
  
 executed on             LinuxIFC date 2019.07.14  02:33:54
 running on    8 total cores
 distrk:  each k-point on    8 cores,    1 groups
 distr:  one band on NCORES_PER_BAND=   4 cores,    2 groups


--------------------------------------------------------------------------------------------------------


 INCAR:
 POTCAR:   PAW_PBE Fe 06Sep2000                   
 POTCAR:   PAW_PBE Fe 06Sep2000                   
   VRHFIN =Fe:  d7 s1                                                           
   LEXCH  = PE                                                                  
   EATOM  =   594.4687 eV,   43.6922 Ry                                         
                                                                                
   TITEL  = PAW_PBE Fe 06Sep2000                                                
   LULTRA =        F    use ultrasoft PP ?                                      
   IUNSCR =        1    unscreen: 0-lin 1-nonlin 2-no                           
   RPACOR =    2.000    partial core radius                                     
   POMASS =   55.847; ZVAL   =    8.000    mass and valenz                      
   RCORE  =    2.300    outmost cutoff radius                                   
   RWIGS  =    2.460; RWIGS  =    1.302    wigner-seitz radius (au A)           
   ENMAX  =  267.883; ENMIN  =  200.912 eV                                      
   RCLOC  =    1.701    cutoff for local pot                                    
   LCOR   =        T    correct aug charges                                     
   LPAW   =        T    paw PP                                                  
   EAUG   =  511.368                                                            
   DEXC   =    -.022                                                            
   RMAX   =    2.817    core radius for proj-oper                               
   RAUG   =    1.300    factor for augmentation sphere                          
   RDEP   =    2.442    radius for radial grids                                 
   QCUT   =   -4.437; QGAM   =    8.874    optimization parameters              
                                                                                
   Description                                                                  
     l     E      TYP  RCUT    TYP  RCUT                                        
     2   .000     23  2.300                                                     
     2   .000     23  2.300                                                     
     0   .000     23  2.300                                                     
     0   .000     23  2.300                                                     
     1  -.200     23  2.300                                                     
     1   .000     23  2.300                                                     
     3   .000      7   .000                                                     
  local pseudopotential read in
  partial core-charges read in
  atomic valenz-charges read in
  non local Contribution for L=           2  read in
    real space projection operators read in
  non local Contribution for L=           2  read in
    real space projection operators read in
  non local Contribution for L=           0  read in
    real space projection operators read in
  non local Contribution for L=           0  read in
    real space projection operators read in
  non local Contribution for L=           1  read in
    real space projection operators read in
  non local Contribution for L=           1  read in
    real space projection operators read in
    PAW grid and wavefunctions read in
 
   number of l-projection  operators is LMAX  =           6
   number of lm-projection operators is LMMAX =          18
 
 Optimization of the real space projectors (new method)

 maximal supplied QI-value         = 16.25
 optimisation between [QCUT,QGAM] = [ 10.24, 20.48] = [ 29.35,117.42] Ry 
 Optimized for a Real-space Cutoff    1.51 Angstroem

   l    n(q)    QCUT    max X(q) W(low)/X(q) W(high)/X(q)  e(spline) 
   2      8    10.239     4.378    0.29E-04    0.57E-04    0.52E-07
   2      8    10.239    23.237    0.44E-03    0.68E-03    0.20E-06
   0      9    10.239    17.641    0.18E-04    0.41E-06    0.72E-08
   0      9    10.239    50.908    0.75E-04    0.38E-04    0.65E-07
   1      9    10.239     6.148    0.18E-04    0.27E-04    0.19E-07
   1      9    10.239     8.345    0.39E-04    0.13E-03    0.98E-07
 PAW_PBE Fe 06Sep2000                   :
 energy of atom  1       EATOM= -594.4687
 kinetic energy error for atom=    0.0088 (will be added to EATOM!!)
 
 
 POSCAR: fcc_Fe_CON_333                          
  positions in direct lattice
  velocities in cartesian coordinates
 exchange correlation table for  LEXCH =        8
   RHO(1)=    0.500       N(1)  =     2000
   RHO(2)=  100.500       N(2)  =     4000
 


--------------------------------------------------------------------------------------------------------


 ion  position               nearest neighbor table
   1  1.000  0.000  0.000- 100 2.43  20 2.43 101 2.43  21 2.43   2 2.43   6 2.43  99 2.43  19 2.43
                            14 2.44  18 2.44 105 2.44  25 2.44
   2  1.000  0.167  0.167-  93 2.43  29 2.43 100 2.43  20 2.43   7 2.43   1 2.43  99 2.43  19 2.43
                             9 2.44  91 2.44   3 2.44  27 2.44
   3  1.000  0.334  1.000-  96 2.43  32 2.43   4 2.43  16 2.43  91 2.44  27 2.44 100 2.44  20 2.44
                            14 2.44   2 2.44  89 2.45  35 2.45
   4  1.000  0.500  0.167-   9 2.43  11 2.43   3 2.43  91 2.43  27 2.43   5 2.43  92 2.43  28 2.43
                           103 2.47  23 2.47  89 2.47  35 2.47
   5  1.000  0.666  1.000-  97 2.43  33 2.43   4 2.43  16 2.43  92 2.44  28 2.44 101 2.44  21 2.44
                            18 2.44   6 2.44  89 2.45  35 2.45
   6  1.000  0.833  0.167-  94 2.43  30 2.43 101 2.43  21 2.43   7 2.43  99 2.43   1 2.43  19 2.43
                            11 2.44  92 2.44   5 2.44  28 2.44
   7  1.000  0.000  0.333-  93 2.43  29 2.43  94 2.43  30 2.43   2 2.43   6 2.43  99 2.43  19 2.43
                             8 2.44  12 2.44  90 2.44  36 2.44
   8  1.000  0.167  0.500- 102 2.43  22 2.43  13 2.43  15 2.43  90 2.44  36 2.44  93 2.44  29 2.44
                             9 2.44   7 2.44  95 2.45  31 2.45
   9  1.000  0.334  0.334- 102 2.43  22 2.43   4 2.43  10 2.43  91 2.44  27 2.44  93 2.44  29 2.44
                             8 2.44   2 2.44 103 2.45  23 2.45
  10  1.000  0.500  0.500-  15 2.43  17 2.43   9 2.43  11 2.43 102 2.44  22 2.44 104 2.44  24 2.44
                           103 2.44  23 2.44 106 2.45  26 2.45
  11  1.000  0.666  0.334- 104 2.43  24 2.43   4 2.43  10 2.43  92 2.44  28 2.44  94 2.44  30 2.44
                            12 2.44   6 2.44 103 2.45  23 2.45
  12  1.000  0.833  0.500- 104 2.43  24 2.43  13 2.43  17 2.43  90 2.44  36 2.44  94 2.44  30 2.44
                            11 2.44   7 2.44  98 2.45  34 2.45
  13  1.000  0.000  0.667-   8 2.43  14 2.43  12 2.43  90 2.43  18 2.43  36 2.43 105 2.43  25 2.43
                            95 2.47  31 2.47  98 2.47  34 2.47
  14  1.000  0.167  0.833-  96 2.43  32 2.43  13 2.43  15 2.43 105 2.44  25 2.44 100 2.44  20 2.44
                             3 2.44   1 2.44  95 2.45  31 2.45
  15  1.000  0.334  0.667-  10 2.43  16 2.43   8 2.43  14 2.43 102 2.44  22 2.44  96 2.44  32 2.44
                            95 2.44  31 2.44 106 2.45  26 2.45
  16  1.000  0.500  0.833-  15 2.43  17 2.43   3 2.43   5 2.43  96 2.44  32 2.44  97 2.44  33 2.44
                            89 2.44  35 2.44 106 2.45  26 2.45
  17  1.000  0.666  0.667-  10 2.43  16 2.43  12 2.43  18 2.43 104 2.44  24 2.44  97 2.44  33 2.44
                            98 2.44  34 2.44 106 2.45  26 2.45
  18  1.000  0.833  0.833-  97 2.43  33 2.43  13 2.43  17 2.43 105 2.44  25 2.44 101 2.44  21 2.44
                             5 2.44   1 2.44  98 2.45  34 2.45
  19  0.167  0.000  0.167-  29 2.43  30 2.43  20 2.43  21 2.43   7 2.43   2 2.43   6 2.43   1 2.43
                            38 2.44  49 2.44  39 2.44  37 2.44
  20  0.166  0.166  0.000-  19 2.43   1 2.43   2 2.43  46 2.44  32 2.44  42 2.44  27 2.44  37 2.44
                             3 2.44  25 2.44  38 2.44  14 2.44
  21  0.166  0.834  0.000-  19 2.43   1 2.43   6 2.43  48 2.44  45 2.44  33 2.44  37 2.44  39 2.44
                            25 2.44  28 2.44  18 2.44   5 2.44
  22  0.167  0.333  0.500-  23 2.42  31 2.42   8 2.43   9 2.43  50 2.44  40 2.44  15 2.44  10 2.44
                            29 2.44  26 2.44  43 2.44 107 2.44
  23  0.169  0.500  0.335- 107 2.42  22 2.42  24 2.42  40 2.42  41 2.42  10 2.44  47 2.44  27 2.45
                            28 2.45   9 2.45  11 2.45   4 2.47
  24  0.167  0.667  0.500-  23 2.42  34 2.42  11 2.43  12 2.43  41 2.44  51 2.44  17 2.44  10 2.44
                            30 2.44  26 2.44  44 2.44 107 2.44
  25  0.167  0.000  0.833-  42 2.43  45 2.43  13 2.43  52 2.43  14 2.44  18 2.44  20 2.44  21 2.44
                            37 2.44   1 2.44  31 2.45  34 2.45
  26  0.169  0.500  0.667-  53 2.42 107 2.42  44 2.42  43 2.42  22 2.44  24 2.44  32 2.44  33 2.44
                            10 2.45  15 2.45  16 2.45  17 2.45
  27  0.167  0.334  0.167-  40 2.43  46 2.43   4 2.43  47 2.43   9 2.44   3 2.44  29 2.44  20 2.44
                            38 2.44   2 2.44  23 2.45  35 2.45
  28  0.167  0.666  0.167-  41 2.43  48 2.43   4 2.43  47 2.43  11 2.44   5 2.44  30 2.44  21 2.44
                            39 2.44   6 2.44  23 2.45  35 2.45
  29  0.166  0.166  0.333-  19 2.43   2 2.43   7 2.43  22 2.44  40 2.44  50 2.44  27 2.44  36 2.44
                            38 2.44  49 2.44   8 2.44   9 2.44
  30  0.166  0.834  0.333-  19 2.43   6 2.43   7 2.43  51 2.44  24 2.44  41 2.44  36 2.44  39 2.44
                            28 2.44  12 2.44  49 2.44  11 2.44
  31  0.169  0.169  0.667-  43 2.42  22 2.42  50 2.42  32 2.42  42 2.42  52 2.44  15 2.44  36 2.45
                            25 2.45   8 2.45  14 2.45  13 2.47
  32  0.167  0.333  0.833-  35 2.42  31 2.42  14 2.43   3 2.43  42 2.44  46 2.44  15 2.44  16 2.44
                            20 2.44  26 2.44  43 2.44  53 2.44
  33  0.167  0.667  0.833-  35 2.42  34 2.42  18 2.43   5 2.43  45 2.44  48 2.44  17 2.44  16 2.44
                            21 2.44  26 2.44  44 2.44  53 2.44
  34  0.169  0.831  0.667-  44 2.42  51 2.42  24 2.42  45 2.42  33 2.42  52 2.44  17 2.44  36 2.45
                            12 2.45  25 2.45  18 2.45  13 2.47
  35  0.169  0.500  0.998-  53 2.42  46 2.42  48 2.42  32 2.42  33 2.42  47 2.44  16 2.44  27 2.45
                             3 2.45  28 2.45   5 2.45   4 2.47
  36  0.167  0.000  0.500-  50 2.43  51 2.43  13 2.43  52 2.43   8 2.44  12 2.44  29 2.44  30 2.44
                            49 2.44   7 2.44  31 2.45  34 2.45
  37  0.334  0.000  1.000-  42 2.43  45 2.43  54 2.43  66 2.43  38 2.44  39 2.44  20 2.44  21 2.44
                            25 2.44  19 2.44  55 2.45  59 2.45
  38  0.334  0.167  0.167-  40 2.43  46 2.43  54 2.43  56 2.43  49 2.44  37 2.44  29 2.44  20 2.44
                            27 2.44  19 2.44  61 2.45  55 2.45
  39  0.334  0.833  0.167-  41 2.43  48 2.43  54 2.43  58 2.43  49 2.44  37 2.44  30 2.44  21 2.44
                            28 2.44  19 2.44  65 2.45  59 2.45
  40  0.333  0.333  0.333-  61 2.42  23 2.42  38 2.43  27 2.43  50 2.44  22 2.44  56 2.44  47 2.44
                            29 2.44  63 2.44  62 2.44 107 2.44
  41  0.333  0.667  0.333-  65 2.42  23 2.42  28 2.43  39 2.43  24 2.44  51 2.44  58 2.44  47 2.44
                            30 2.44  63 2.44  64 2.44 107 2.44
  42  0.333  0.167  0.833-  55 2.42  31 2.42  25 2.43  37 2.43  32 2.44  46 2.44  66 2.44  52 2.44
                            20 2.44  67 2.44  43 2.44  68 2.44
  43  0.334  0.334  0.667-  31 2.42  68 2.42  53 2.42  62 2.42 107 2.42  67 2.42  26 2.42  42 2.44
                            32 2.44  50 2.44  22 2.44
  44  0.334  0.666  0.667-  34 2.42  69 2.42  53 2.42 107 2.42  64 2.42  70 2.42  26 2.42  33 2.44
                            45 2.44  24 2.44  51 2.44
  45  0.333  0.833  0.833-  59 2.42  34 2.42  25 2.43  37 2.43  33 2.44  48 2.44  66 2.44  52 2.44
                            21 2.44  70 2.44  44 2.44  69 2.44
  46  0.333  0.333  0.000-  55 2.42  35 2.42  38 2.43  27 2.43  42 2.44  32 2.44  56 2.44  47 2.44
                            20 2.44  57 2.44  53 2.44  68 2.44
  47  0.334  0.500  0.167-  56 2.43  58 2.43  27 2.43  28 2.43  40 2.44  46 2.44  41 2.44  48 2.44
                            23 2.44  35 2.44  63 2.45  57 2.45
  48  0.333  0.667  0.000-  59 2.42  35 2.42  28 2.43  39 2.43  33 2.44  45 2.44  58 2.44  47 2.44
                            21 2.44  57 2.44  69 2.44  53 2.44
  49  0.334  0.000  0.334-  50 2.43  51 2.43  54 2.43  60 2.43  38 2.44  39 2.44  29 2.44  30 2.44
                            36 2.44  19 2.44  61 2.45  65 2.45
  50  0.333  0.167  0.500-  61 2.42  31 2.42  49 2.43  36 2.43  40 2.44  22 2.44  52 2.44  60 2.44
                            29 2.44  67 2.44  62 2.44  43 2.44
  51  0.333  0.833  0.500-  65 2.42  34 2.42  49 2.43  36 2.43  41 2.44  24 2.44  52 2.44  60 2.44
                            30 2.44  70 2.44  44 2.44  64 2.44
  52  0.334  0.000  0.667-  60 2.43  66 2.43  36 2.43  25 2.43  50 2.44  51 2.44  42 2.44  45 2.44
                            31 2.44  34 2.44  67 2.45  70 2.45
  53  0.334  0.500  0.832-  35 2.42  43 2.42  44 2.42  68 2.42  69 2.42  26 2.42  57 2.42  32 2.44
                            33 2.44  46 2.44  48 2.44
  54  0.500  0.000  0.167-  74 2.43  79 2.43  49 2.43  38 2.43  80 2.43  87 2.43  39 2.43  37 2.43
                            61 2.47  65 2.47  55 2.47  59 2.47
  55  0.500  0.169  0.998-  68 2.42  71 2.42  46 2.42  83 2.42  42 2.42  56 2.44  66 2.44  87 2.45
                            37 2.45  79 2.45  38 2.45  54 2.47
  56  0.500  0.334  0.167-  72 2.43  47 2.43  79 2.43  38 2.43  81 2.44  40 2.44  71 2.44  46 2.44
                            61 2.44  55 2.44  63 2.45  57 2.45
  57  0.500  0.500  0.998-  78 2.42  53 2.42  68 2.42  69 2.42  71 2.44  46 2.44  73 2.44  48 2.44
                            72 2.45  47 2.45  56 2.45  58 2.45
  58  0.500  0.666  0.167-  72 2.43  47 2.43  80 2.43  39 2.43  82 2.44  73 2.44  41 2.44  48 2.44
                            65 2.44  59 2.44  63 2.45  57 2.45
  59  0.500  0.831  0.998-  69 2.42  73 2.42  86 2.42  48 2.42  45 2.42  66 2.44  58 2.44  87 2.45
                            37 2.45  80 2.45  39 2.45  54 2.47
  60  0.500  0.000  0.500-  77 2.43  52 2.43  74 2.43  49 2.43  75 2.44  50 2.44  76 2.44  51 2.44
                            61 2.44  65 2.44  67 2.45  70 2.45
  61  0.500  0.169  0.335-  62 2.42  75 2.42  81 2.42  50 2.42  40 2.42  60 2.44  56 2.44  74 2.45
                            49 2.45  79 2.45  38 2.45  54 2.47
  62  0.500  0.334  0.501-  61 2.42  88 2.42 107 2.42  84 2.42  43 2.42  67 2.42  63 2.42  75 2.44
                            50 2.44  81 2.44  40 2.44
  63  0.500  0.500  0.335- 107 2.42  88 2.42  64 2.42  62 2.42  81 2.44  40 2.44  82 2.44  41 2.44
                            72 2.45  47 2.45  56 2.45  58 2.45
  64  0.500  0.666  0.501-  65 2.42 107 2.42  85 2.42  88 2.42  44 2.42  70 2.42  63 2.42  82 2.44
                            76 2.44  41 2.44  51 2.44
  65  0.500  0.831  0.335-  64 2.42  76 2.42  51 2.42  82 2.42  41 2.42  60 2.44  58 2.44  74 2.45
                            80 2.45  49 2.45  39 2.45  54 2.47
  66  0.500  0.000  0.833-  77 2.43  52 2.43  87 2.43  37 2.43  83 2.44  42 2.44  86 2.44  45 2.44
                            55 2.44  59 2.44  67 2.45  70 2.45
  67  0.500  0.169  0.667-  62 2.42  68 2.42  43 2.42  84 2.42  75 2.44  50 2.44  83 2.44  42 2.44
                            77 2.45  60 2.45  52 2.45  66 2.45
  68  0.500  0.334  0.832-  55 2.42  84 2.42  43 2.42  78 2.42  53 2.42  67 2.42  57 2.42  83 2.44
                            42 2.44  71 2.44  46 2.44
  69  0.500  0.666  0.832-  59 2.42  85 2.42  44 2.42  78 2.42  53 2.42  70 2.42  57 2.42  86 2.44
                            45 2.44  73 2.44  48 2.44
  70  0.500  0.831  0.667-  69 2.42  64 2.42  85 2.42  44 2.42  76 2.44  51 2.44  86 2.44  45 2.44
                            77 2.45  60 2.45  52 2.45  66 2.45
  71  0.667  0.333  0.000-  55 2.42  89 2.42  79 2.43  91 2.43  83 2.44  96 2.44  56 2.44  72 2.44
                           100 2.44  57 2.44  68 2.44  78 2.44
  72  0.666  0.500  0.167-  56 2.43  58 2.43  91 2.43  92 2.43  81 2.44  71 2.44  82 2.44  73 2.44
                           103 2.44  89 2.44  63 2.45  57 2.45
  73  0.667  0.667  0.000-  59 2.42  89 2.42  92 2.43  80 2.43  97 2.44  86 2.44  58 2.44  72 2.44
                           101 2.44  57 2.44  69 2.44  78 2.44
  74  0.666  0.000  0.334-  75 2.43  76 2.43  54 2.43  60 2.43  79 2.44  80 2.44  93 2.44  94 2.44
                            90 2.44  99 2.44  61 2.45  65 2.45
  75  0.667  0.167  0.500-  61 2.42  95 2.42  90 2.43  74 2.43 102 2.44  81 2.44  60 2.44  77 2.44
                            93 2.44  67 2.44  62 2.44  84 2.44
  76  0.667  0.833  0.500-  65 2.42  98 2.42  90 2.43  74 2.43 104 2.44  82 2.44  60 2.44  77 2.44
                            94 2.44  70 2.44  64 2.44  85 2.44
  77  0.666  0.000  0.667-  60 2.43  66 2.43  90 2.43 105 2.43  75 2.44  76 2.44  83 2.44  86 2.44
                            95 2.44  98 2.44  67 2.45  70 2.45
  78  0.666  0.500  0.832-  89 2.42  84 2.42  85 2.42  68 2.42  69 2.42 106 2.42  57 2.42  96 2.44
                            97 2.44  71 2.44  73 2.44
  79  0.666  0.167  0.167-  81 2.43  71 2.43  54 2.43  56 2.43  74 2.44  87 2.44  93 2.44 100 2.44
                            91 2.44  99 2.44  61 2.45  55 2.45
  80  0.666  0.833  0.167-  82 2.43  73 2.43  54 2.43  58 2.43  74 2.44  87 2.44  94 2.44 101 2.44
                            92 2.44  99 2.44  65 2.45  59 2.45
  81  0.667  0.333  0.333-  61 2.42 103 2.42  79 2.43  91 2.43  75 2.44 102 2.44  56 2.44  72 2.44
                            93 2.44  63 2.44  62 2.44  88 2.44
  82  0.667  0.667  0.333-  65 2.42 103 2.42  92 2.43  80 2.43 104 2.44  76 2.44  58 2.44  72 2.44
                            94 2.44  63 2.44  64 2.44  88 2.44
  83  0.667  0.167  0.833-  55 2.42  95 2.42 105 2.43  87 2.43  96 2.44  71 2.44  66 2.44  77 2.44
                           100 2.44  67 2.44  84 2.44  68 2.44
  84  0.666  0.334  0.667-  95 2.42  68 2.42  78 2.42  62 2.42  88 2.42  67 2.42 106 2.42  83 2.44
                            96 2.44  75 2.44 102 2.44
  85  0.666  0.666  0.667-  98 2.42  69 2.42  78 2.42  64 2.42  88 2.42  70 2.42 106 2.42  97 2.44
                            86 2.44 104 2.44  76 2.44
  86  0.667  0.833  0.833-  59 2.42  98 2.42 105 2.43  87 2.43  97 2.44  73 2.44  66 2.44  77 2.44
                           101 2.44  70 2.44  85 2.44  69 2.44
  87  0.666  0.000  1.000-  83 2.43  86 2.43  54 2.43  66 2.43  79 2.44  80 2.44 100 2.44 101 2.44
                           105 2.44  99 2.44  55 2.45  59 2.45
  88  0.666  0.500  0.501- 103 2.42  62 2.42  64 2.42  84 2.42  85 2.42 106 2.42  63 2.42 102 2.44
                            81 2.44 104 2.44  82 2.44
  89  0.831  0.500  0.998-  78 2.42  71 2.42  73 2.42  96 2.42  97 2.42  72 2.44  16 2.44   3 2.45
                            91 2.45   5 2.45  92 2.45   4 2.47
  90  0.833  0.000  0.500-  75 2.43  76 2.43  13 2.43  77 2.43   8 2.44  12 2.44  93 2.44  94 2.44
                            74 2.44   7 2.44  95 2.45  98 2.45
  91  0.833  0.334  0.167-  81 2.43  71 2.43   4 2.43  72 2.43   9 2.44   3 2.44  93 2.44 100 2.44
                            79 2.44   2 2.44 103 2.45  89 2.45
  92  0.833  0.666  0.167-  82 2.43  73 2.43   4 2.43  72 2.43  11 2.44   5 2.44  94 2.44 101 2.44
                            80 2.44   6 2.44 103 2.45  89 2.45
  93  0.834  0.166  0.333-  99 2.43   2 2.43   7 2.43 102 2.44  81 2.44  75 2.44  91 2.44  79 2.44
                            90 2.44  74 2.44   8 2.44   9 2.44
  94  0.834  0.834  0.333-  99 2.43   6 2.43   7 2.43  76 2.44 104 2.44  82 2.44  80 2.44  90 2.44
                            92 2.44  74 2.44  12 2.44  11 2.44
  95  0.831  0.169  0.667-  84 2.42 102 2.42  75 2.42  96 2.42  83 2.42  77 2.44  15 2.44  90 2.45
                             8 2.45 105 2.45  14 2.45  13 2.47
  96  0.833  0.333  0.833-  89 2.42  95 2.42  14 2.43   3 2.43  83 2.44  71 2.44  15 2.44  16 2.44
                           100 2.44 106 2.44  84 2.44  78 2.44
  97  0.833  0.667  0.833-  89 2.42  98 2.42  18 2.43   5 2.43  86 2.44  73 2.44  17 2.44  16 2.44
                           101 2.44 106 2.44  85 2.44  78 2.44
  98  0.831  0.831  0.667-  85 2.42  76 2.42 104 2.42  86 2.42  97 2.42  77 2.44  17 2.44  90 2.45
                            12 2.45 105 2.45  18 2.45  13 2.47
  99  0.833  0.000  0.167-  93 2.43  94 2.43 100 2.43 101 2.43   7 2.43   2 2.43   6 2.43   1 2.43
                            79 2.44  74 2.44  80 2.44  87 2.44
 100  0.834  0.166  0.000-  99 2.43   1 2.43   2 2.43  71 2.44  96 2.44  83 2.44  87 2.44  91 2.44
                            79 2.44   3 2.44 105 2.44  14 2.44
 101  0.834  0.834  0.000-  99 2.43   1 2.43   6 2.43  73 2.44  86 2.44  97 2.44  80 2.44  87 2.44
                            92 2.44 105 2.44   5 2.44  18 2.44
 102  0.833  0.333  0.500- 103 2.42  95 2.42   8 2.43   9 2.43  75 2.44  81 2.44  15 2.44  10 2.44
                            93 2.44 106 2.44  88 2.44  84 2.44
 103  0.831  0.500  0.335-  88 2.42 102 2.42  81 2.42 104 2.42  82 2.42  72 2.44  10 2.44  91 2.45
                            92 2.45   9 2.45  11 2.45   4 2.47
 104  0.833  0.667  0.500- 103 2.42  98 2.42  11 2.43  12 2.43  82 2.44  76 2.44  17 2.44  10 2.44
                            94 2.44 106 2.44  85 2.44  88 2.44
 105  0.833  0.000  0.833-  83 2.43  86 2.43  13 2.43  77 2.43  14 2.44  18 2.44 100 2.44 101 2.44
                            87 2.44   1 2.44  95 2.45  98 2.45
 106  0.831  0.500  0.667-  88 2.42  78 2.42  84 2.42  85 2.42 102 2.44 104 2.44  96 2.44  97 2.44
                            10 2.45  15 2.45  16 2.45  17 2.45
 107  0.334  0.500  0.501-  23 2.42  62 2.42  64 2.42  43 2.42  44 2.42  63 2.42  26 2.42  40 2.44
                            41 2.44  22 2.44  24 2.44
 

IMPORTANT INFORMATION: All symmetrisations will be switched off!
NOSYMM: (Re-)initialisation of all symmetry stuff for point group C_1.

 
 
 KPOINTS: pymatgen generated KPOINTS with grid den

Automatic generation of k-mesh.
Space group operators:
 irot       det(A)        alpha          n_x          n_y          n_z        tau_x        tau_y        tau_z
    1     1.000000     0.000000     1.000000     0.000000     0.000000     0.000000     0.000000     0.000000
 
 Subroutine IBZKPT returns following result:
 ===========================================
 
 Found     32 irreducible k-points:
 
 Following reciprocal coordinates:
            Coordinates               Weight
  0.125000  0.125000  0.125000      2.000000
  0.375000  0.125000  0.125000      2.000000
 -0.375000  0.125000  0.125000      2.000000
 -0.125000  0.125000  0.125000      2.000000
  0.125000  0.375000  0.125000      2.000000
  0.375000  0.375000  0.125000      2.000000
 -0.375000  0.375000  0.125000      2.000000
 -0.125000  0.375000  0.125000      2.000000
  0.125000 -0.375000  0.125000      2.000000
  0.375000 -0.375000  0.125000      2.000000
 -0.375000 -0.375000  0.125000      2.000000
 -0.125000 -0.375000  0.125000      2.000000
  0.125000 -0.125000  0.125000      2.000000
  0.375000 -0.125000  0.125000      2.000000
 -0.375000 -0.125000  0.125000      2.000000
 -0.125000 -0.125000  0.125000      2.000000
  0.125000  0.125000  0.375000      2.000000
  0.375000  0.125000  0.375000      2.000000
 -0.375000  0.125000  0.375000      2.000000
 -0.125000  0.125000  0.375000      2.000000
  0.125000  0.375000  0.375000      2.000000
  0.375000  0.375000  0.375000      2.000000
 -0.375000  0.375000  0.375000      2.000000
 -0.125000  0.375000  0.375000      2.000000
  0.125000 -0.375000  0.375000      2.000000
  0.375000 -0.375000  0.375000      2.000000
 -0.375000 -0.375000  0.375000      2.000000
 -0.125000 -0.375000  0.375000      2.000000
  0.125000 -0.125000  0.375000      2.000000
  0.375000 -0.125000  0.375000      2.000000
 -0.375000 -0.125000  0.375000      2.000000
 -0.125000 -0.125000  0.375000      2.000000
 
 Following cartesian coordinates:
            Coordinates               Weight
  0.012095  0.012095  0.012095      2.000000
  0.036285  0.012095  0.012095      2.000000
 -0.036285  0.012095  0.012095      2.000000
 -0.012095  0.012095  0.012095      2.000000
  0.012095  0.036285  0.012095      2.000000
  0.036285  0.036285  0.012095      2.000000
 -0.036285  0.036285  0.012095      2.000000
 -0.012095  0.036285  0.012095      2.000000
  0.012095 -0.036285  0.012095      2.000000
  0.036285 -0.036285  0.012095      2.000000
 -0.036285 -0.036285  0.012095      2.000000
 -0.012095 -0.036285  0.012095      2.000000
  0.012095 -0.012095  0.012095      2.000000
  0.036285 -0.012095  0.012095      2.000000
 -0.036285 -0.012095  0.012095      2.000000
 -0.012095 -0.012095  0.012095      2.000000
  0.012095  0.012095  0.036285      2.000000
  0.036285  0.012095  0.036285      2.000000
 -0.036285  0.012095  0.036285      2.000000
 -0.012095  0.012095  0.036285      2.000000
  0.012095  0.036285  0.036285      2.000000
  0.036285  0.036285  0.036285      2.000000
 -0.036285  0.036285  0.036285      2.000000
 -0.012095  0.036285  0.036285      2.000000
  0.012095 -0.036285  0.036285      2.000000
  0.036285 -0.036285  0.036285      2.000000
 -0.036285 -0.036285  0.036285      2.000000
 -0.012095 -0.036285  0.036285      2.000000
  0.012095 -0.012095  0.036285      2.000000
  0.036285 -0.012095  0.036285      2.000000
 -0.036285 -0.012095  0.036285      2.000000
 -0.012095 -0.012095  0.036285      2.000000
 


--------------------------------------------------------------------------------------------------------




 Dimension of arrays:
   k-points           NKPTS =     32   k-points in BZ     NKDIM =     32   number of bands    NBANDS=    514
   number of dos      NEDOS =    301   number of ions     NIONS =    107
   non local maximal  LDIM  =      6   non local SUM 2l+1 LMDIM =     18
   total plane-waves  NPLWV = 373248
   max r-space proj   IRMAX =   4912   max aug-charges    IRDMAX=  12243
   dimension x,y,z NGX =    72 NGY =   72 NGZ =   72
   dimension x,y,z NGXF=   144 NGYF=  144 NGZF=  144
   support grid    NGXF=   144 NGYF=  144 NGZF=  144
   ions per type =             107
   NGX,Y,Z   is equivalent  to a cutoff of  11.58, 11.58, 11.58 a.u.
   NGXF,Y,Z  is equivalent  to a cutoff of  23.16, 23.16, 23.16 a.u.

 Based on PREC, I would recommend the following setting:
   dimension x,y,z NGX =    54 NGY =   54 NGZ =   54

 SYSTEM =  Static                                  
 POSCAR =  fcc_Fe_CON_333                          

 Startparameter for this run:
   NWRITE =      2    write-flag & timer
   PREC   = normal    normal or accurate (medium, high low for compatibility)
   ISTART =      0    job   : 0-new  1-cont  2-samecut
   ICHARG =      2    charge: 1-file 2-atom 10-const
   ISPIN  =      1    spin polarized calculation?
   LNONCOLLINEAR =      F non collinear calculations
   LSORBIT =      F    spin-orbit coupling
   INIWAV =      1    electr: 0-lowe 1-rand  2-diag
   LASPH  =      F    aspherical Exc in radial PAW
   METAGGA=      F    non-selfconsistent MetaGGA calc.

 Electronic Relaxation 1
   ENCUT  =  400.0 eV  29.40 Ry    5.42 a.u.  16.85 16.85 16.85*2*pi/ulx,y,z
   ENINI  =  400.0     initial cutoff
   ENAUG  =  511.4 eV  augmentation charge cutoff
   NELM   =    400;   NELMIN=  2; NELMDL= -5     # of ELM steps 
   EDIFF  = 0.1E-05   stopping-criterion for ELM
   LREAL  =      T    real-space projection
   NLSPLINE    = F    spline interpolate recip. space projectors
   LCOMPAT=      F    compatible to vasp.4.4
   GGA_COMPAT  = T    GGA compatible to vasp.4.4-vasp.4.6
   LMAXPAW     = -100 max onsite density
   LMAXMIX     =    2 max onsite mixed and CHGCAR
   VOSKOWN=      0    Vosko Wilk Nusair interpolation
   ROPT   =   -0.00050
 Ionic relaxation
   EDIFFG = 0.1E-04   stopping-criterion for IOM
   NSW    =      1    number of steps for IOM
   NBLOCK =      1;   KBLOCK =      1    inner block; outer block 
   IBRION =     -1    ionic relax: 0-MD 1-quasi-New 2-CG
   NFREE  =      0    steps in history (QN), initial steepest desc. (CG)
   ISIF   =      2    stress and relaxation
   IWAVPR =     10    prediction:  0-non 1-charg 2-wave 3-comb
   ISYM   =      0    0-nonsym 1-usesym 2-fastsym
   LCORR  =      T    Harris-Foulkes like correction to forces

   POTIM  = 0.5000    time-step for ionic-motion
   TEIN   =    0.0    initial temperature
   TEBEG  =    0.0;   TEEND  =   0.0 temperature during run
   SMASS  =  -3.00    Nose mass-parameter (am)
   estimated Nose-frequenzy (Omega)   =  0.10E-29 period in steps =****** mass=  -0.244E-26a.u.
   SCALEE = 1.0000    scale energy and forces
   NPACO  =    256;   APACO  = 16.0  distance and # of slots for P.C.
   PSTRESS=    0.0 pullay stress

  Mass of Ions in am
   POMASS =  55.85
  Ionic Valenz
   ZVAL   =   8.00
  Atomic Wigner-Seitz radii
   RWIGS  =  -1.00
  virtual crystal weights 
   VCA    =   1.00
   NELECT =     856.0000    total number of electrons
   NUPDOWN=      -1.0000    fix difference up-down

 DOS related values:
   EMIN   =  10.00;   EMAX   =-10.00  energy-range for DOS
   EFERMI =   0.00
   ISMEAR =     1;   SIGMA  =   0.20  broadening in eV -4-tet -1-fermi 0-gaus

 Electronic relaxation 2 (details)
   IALGO  =     68    algorithm
   LDIAG  =      T    sub-space diagonalisation (order eigenvalues)
   LSUBROT=      F    optimize rotation matrix (better conditioning)
   TURBO    =      0    0=normal 1=particle mesh
   IRESTART =      0    0=no restart 2=restart with 2 vectors
   NREBOOT  =      0    no. of reboots
   NMIN     =      0    reboot dimension
   EREF     =   0.00    reference energy to select bands
   IMIX   =      4    mixing-type and parameters
     AMIX     =   0.40;   BMIX     =  1.00
     AMIX_MAG =   1.60;   BMIX_MAG =  1.00
     AMIN     =   0.10
     WC   =   100.;   INIMIX=   1;  MIXPRE=   1;  MAXMIX= -45

 Intra band minimization:
   WEIMIN = 0.0000     energy-eigenvalue tresh-hold
   EBREAK =  0.49E-09  absolut break condition
   DEPER  =   0.30     relativ break condition  

   TIME   =   0.40     timestep for ELM

  volume/ion in A,a.u.               =      10.32        69.62
  Fermi-wavevector in a.u.,A,eV,Ry     =   1.504049  2.842241 30.778608  2.262164
  Thomas-Fermi vector in A             =   2.615080
 
 Write flags
   LWAVE        =      F    write WAVECAR
   LDOWNSAMPLE  =      F    k-point downsampling of WAVECAR
   LCHARG       =      F    write CHGCAR
   LVTOT        =      F    write LOCPOT, total local potential
   LVHAR        =      F    write LOCPOT, Hartree potential only
   LELF         =      F    write electronic localiz. function (ELF)
   LORBIT       =      0    0 simple, 1 ext, 2 COOP (PROOUT), +10 PAW based schemes


 Dipole corrections
   LMONO  =      F    monopole corrections only (constant potential shift)
   LDIPOL =      F    correct potential (dipole corrections)
   IDIPOL =      0    1-x, 2-y, 3-z, 4-all directions 
   EPSILON=  1.0000000 bulk dielectric constant

 Exchange correlation treatment:
   GGA     =    --    GGA type
   LEXCH   =     8    internal setting for exchange type
   VOSKOWN=      0    Vosko Wilk Nusair interpolation
   LHFCALC =     F    Hartree Fock is set to
   LHFONE  =     F    Hartree Fock one center treatment
   AEXX    =    0.0000 exact exchange contribution

 Linear response parameters
   LEPSILON=     F    determine dielectric tensor
   LRPA    =     F    only Hartree local field effects (RPA)
   LNABLA  =     F    use nabla operator in PAW spheres
   LVEL    =     F    velocity operator in full k-point grid
   LINTERFAST=   F  fast interpolation
   KINTER  =     0    interpolate to denser k-point grid
   CSHIFT  =0.1000    complex shift for real part using Kramers Kronig
   OMEGAMAX=  -1.0    maximum frequency
   DEG_THRESHOLD= 0.2000000E-02 threshold for treating states as degnerate
   RTIME   =   -0.100 relaxation time in fs
  (WPLASMAI=    0.000 imaginary part of plasma frequency in eV, 0.658/RTIME)
   DFIELD  = 0.0000000 0.0000000 0.0000000 field for delta impulse in time
 
 Orbital magnetization related:
   ORBITALMAG=     F  switch on orbital magnetization
   LCHIMAG   =     F  perturbation theory with respect to B field
   DQ        =  0.001000  dq finite difference perturbation B field
   LLRAUG    =     F  two centre corrections for induced B field



--------------------------------------------------------------------------------------------------------


 Static calculation
 charge density and potential will be updated during run
 non-spin polarized calculation
 RMM-DIIS sequential band-by-band and
  variant of blocked Davidson during initial phase
 perform sub-space diagonalisation
    before iterative eigenvector-optimisation
 modified Broyden-mixing scheme, WC =      100.0
 initial mixing is a Kerker type mixing with AMIX =  0.4000 and BMIX =      1.0000
 Hartree-type preconditioning will be used
 using additional bands           86
 real space projection scheme for non local part
 use partial core corrections
 calculate Harris-corrections to forces 
   (improved forces if not selfconsistent)
 use gradient corrections 
 use of overlap-Matrix (Vanderbilt PP)
 Methfessel and Paxton  Order N= 1 SIGMA  =   0.20


--------------------------------------------------------------------------------------------------------


  energy-cutoff  :      400.00
  volume of cell :     1103.86
      direct lattice vectors                 reciprocal lattice vectors
    10.334847047  0.000000000  0.000000000     0.096760019  0.000000000  0.000000000
     0.000000000 10.334847047  0.000000000     0.000000000  0.096760019  0.000000000
     0.000000000  0.000000000 10.334847047     0.000000000  0.000000000  0.096760019

  length of vectors
    10.334847047 10.334847047 10.334847047     0.096760019  0.096760019  0.096760019


 
 k-points in units of 2pi/SCALE and weight: pymatgen generated KPOINTS with grid den
   0.01209500  0.01209500  0.01209500       0.031
   0.03628501  0.01209500  0.01209500       0.031
  -0.03628501  0.01209500  0.01209500       0.031
  -0.01209500  0.01209500  0.01209500       0.031
   0.01209500  0.03628501  0.01209500       0.031
   0.03628501  0.03628501  0.01209500       0.031
  -0.03628501  0.03628501  0.01209500       0.031
  -0.01209500  0.03628501  0.01209500       0.031
   0.01209500 -0.03628501  0.01209500       0.031
   0.03628501 -0.03628501  0.01209500       0.031
  -0.03628501 -0.03628501  0.01209500       0.031
  -0.01209500 -0.03628501  0.01209500       0.031
   0.01209500 -0.01209500  0.01209500       0.031
   0.03628501 -0.01209500  0.01209500       0.031
  -0.03628501 -0.01209500  0.01209500       0.031
  -0.01209500 -0.01209500  0.01209500       0.031
   0.01209500  0.01209500  0.03628501       0.031
   0.03628501  0.01209500  0.03628501       0.031
  -0.03628501  0.01209500  0.03628501       0.031
  -0.01209500  0.01209500  0.03628501       0.031
   0.01209500  0.03628501  0.03628501       0.031
   0.03628501  0.03628501  0.03628501       0.031
  -0.03628501  0.03628501  0.03628501       0.031
  -0.01209500  0.03628501  0.03628501       0.031
   0.01209500 -0.03628501  0.03628501       0.031
   0.03628501 -0.03628501  0.03628501       0.031
  -0.03628501 -0.03628501  0.03628501       0.031
  -0.01209500 -0.03628501  0.03628501       0.031
   0.01209500 -0.01209500  0.03628501       0.031
   0.03628501 -0.01209500  0.03628501       0.031
  -0.03628501 -0.01209500  0.03628501       0.031
  -0.01209500 -0.01209500  0.03628501       0.031
 
 k-points in reciprocal lattice and weights: pymatgen generated KPOINTS with grid den
   0.12500000  0.12500000  0.12500000       0.031
   0.37500000  0.12500000  0.12500000       0.031
  -0.37500000  0.12500000  0.12500000       0.031
  -0.12500000  0.12500000  0.12500000       0.031
   0.12500000  0.37500000  0.12500000       0.031
   0.37500000  0.37500000  0.12500000       0.031
  -0.37500000  0.37500000  0.12500000       0.031
  -0.12500000  0.37500000  0.12500000       0.031
   0.12500000 -0.37500000  0.12500000       0.031
   0.37500000 -0.37500000  0.12500000       0.031
  -0.37500000 -0.37500000  0.12500000       0.031
  -0.12500000 -0.37500000  0.12500000       0.031
   0.12500000 -0.12500000  0.12500000       0.031
   0.37500000 -0.12500000  0.12500000       0.031
  -0.37500000 -0.12500000  0.12500000       0.031
  -0.12500000 -0.12500000  0.12500000       0.031
   0.12500000  0.12500000  0.37500000       0.031
   0.37500000  0.12500000  0.37500000       0.031
  -0.37500000  0.12500000  0.37500000       0.031
  -0.12500000  0.12500000  0.37500000       0.031
   0.12500000  0.37500000  0.37500000       0.031
   0.37500000  0.37500000  0.37500000       0.031
  -0.37500000  0.37500000  0.37500000       0.031
  -0.12500000  0.37500000  0.37500000       0.031
   0.12500000 -0.37500000  0.37500000       0.031
   0.37500000 -0.37500000  0.37500000       0.031
  -0.37500000 -0.37500000  0.37500000       0.031
  -0.12500000 -0.37500000  0.37500000       0.031
   0.12500000 -0.12500000  0.37500000       0.031
   0.37500000 -0.12500000  0.37500000       0.031
  -0.37500000 -0.12500000  0.37500000       0.031
  -0.12500000 -0.12500000  0.37500000       0.031
 
 position of ions in fractional coordinates (direct lattice) 
   0.99999938  0.00000098  0.00016562
   0.99999934  0.16650171  0.16666795
   0.99999944  0.33376685  0.99980627
   0.99999930  0.49999902  0.16666782
   0.99999934  0.66623220  0.99980624
   0.99999930  0.83349920  0.16666804
   0.99999926  0.00000094  0.33316834
   0.99999929  0.16686131  0.50043282
   0.99999932  0.33376689  0.33352795
   0.99999942  0.49999901  0.50045706
   0.99999924  0.66623220  0.33352798
   0.99999935  0.83313964  0.50043280
   0.99999934  0.00000094  0.66666541
   0.99999937  0.16686130  0.83289896
   0.99999946  0.33379006  0.66666536
   0.99999948  0.49999895  0.83287482
   0.99999946  0.66620903  0.66666528
   0.99999940  0.83313970  0.83289890
   0.16650234  0.00000098  0.16666790
   0.16641578  0.16641522  0.00025253
   0.16641576  0.83358588  0.00025250
   0.16655682  0.33319083  0.49985824
   0.16866287  0.49999901  0.33532981
   0.16655664  0.66680837  0.49985819
   0.16686199  0.00000091  0.83289887
   0.16850551  0.49999888  0.66666533
   0.16686172  0.33376669  0.16666777
   0.16686169  0.66623236  0.16666783
   0.16641583  0.16641530  0.33308135
   0.16641579  0.83358573  0.33308146
   0.16866051  0.16865981  0.66666471
   0.16655674  0.33319051  0.83347364
   0.16655659  0.66680864  0.83347363
   0.16866046  0.83134129  0.66666454
   0.16866304  0.49999894  0.99800449
   0.16686195  0.00000085  0.50043296
   0.33376897  0.00000098  0.99980620
   0.33376876  0.16686111  0.16666781
   0.33376876  0.83313992  0.16666782
   0.33319337  0.33319112  0.33322327
   0.33319325  0.66680797  0.33322314
   0.33319273  0.16655616  0.83347357
   0.33430839  0.33430480  0.66666817
   0.33430668  0.66569446  0.66666883
   0.33319257  0.83344508  0.83347361
   0.33319318  0.33319103  0.00011123
   0.33379238  0.49999892  0.16666764
   0.33319316  0.66680805  0.00011136
   0.33376905  0.00000097  0.33352799
   0.33319309  0.16655633  0.49985827
   0.33319287  0.83344492  0.49985821
   0.33379221  0.00000092  0.66666541
   0.33430824  0.49999881  0.83235635
   0.50000051  0.00000098  0.16666779
   0.50000037  0.16866242  0.99800443
   0.50000050  0.33379024  0.16666768
   0.50000047  0.49999884  0.99816283
   0.50000055  0.66620880  0.16666764
   0.50000048  0.83133868  0.99800433
   0.50000055  0.00000093  0.50045712
   0.50000045  0.16866231  0.33532986
   0.50000156  0.33430527  0.50097546
   0.50000056  0.49999884  0.33517210
   0.50000227  0.66569247  0.50097524
   0.50000054  0.83133880  0.33532973
   0.50000044  0.00000093  0.83287479
   0.50000048  0.16850497  0.66666532
   0.50000144  0.33430502  0.83235656
   0.50000144  0.66569406  0.83235684
   0.50000048  0.83149653  0.66666525
   0.66680710  0.33319110  0.00011134
   0.66620806  0.49999897  0.16666768
   0.66680723  0.66680809  0.00011153
   0.66623142  0.00000089  0.33352798
   0.66680733  0.16655630  0.49985828
   0.66680750  0.83344500  0.49985811
   0.66620819  0.00000091  0.66666527
   0.66569199  0.49999880  0.83235629
   0.66623164  0.16686108  0.16666788
   0.66623167  0.83313991  0.16666786
   0.66680703  0.33319119  0.33322331
   0.66680723  0.66680798  0.33322310
   0.66680763  0.16655615  0.83347349
   0.66569322  0.33430460  0.66666872
   0.66569359  0.66569449  0.66666867
   0.66680775  0.83344513  0.83347367
   0.66623137  0.00000087  0.99980625
   0.66569288  0.49999774  0.50097509
   0.83133624  0.49999904  0.99800452
   0.83313726  0.00000091  0.50043285
   0.83313754  0.33376671  0.16666790
   0.83313752  0.66623237  0.16666792
   0.83358344  0.16641525  0.33308141
   0.83358338  0.83358570  0.33308146
   0.83133880  0.16865969  0.66666452
   0.83344258  0.33319042  0.83347361
   0.83344275  0.66680870  0.83347372
   0.83133882  0.83134137  0.66666436
   0.83349693  0.00000094  0.16666806
   0.83358357  0.16641517  0.00025257
   0.83358347  0.83358583  0.00025260
   0.83344235  0.33319077  0.49985815
   0.83133636  0.49999908  0.33532958
   0.83344258  0.66680837  0.49985799
   0.83313734  0.00000094  0.83289883
   0.83149375  0.49999887  0.66666519
   0.33431120  0.49999883  0.50097605
 
 position of ions in cartesian coordinates  (Angst):
  10.33484065  0.00001017  0.00171168
  10.33484018  1.72076974  1.72248775
  10.33484122  3.44942930 10.33284489
  10.33483985  5.16741340  1.72248641
  10.33484020  6.88540787 10.33284457
  10.33483986  8.61408675  1.72248870
  10.33483943  0.00000976  3.44324385
  10.33483973  1.72448615  5.17189665
  10.33484005  3.44942978  3.44696038
  10.33484100  5.16741328  5.17214715
  10.33483918  6.88540792  3.44696064
  10.33484028  8.61037071  5.17189647
  10.33484022  0.00000974  6.88988507
  10.33484051  1.72448597  8.60788338
  10.33484152  3.44966917  6.88988455
  10.33484167  5.16741269  8.60763391
  10.33484144  6.88516840  6.88988371
  10.33484087  8.61037139  8.60788274
   1.72077621  0.00001015  1.72248728
   1.71988163  1.71987589  0.00260983
   1.71988145  8.61498254  0.00260957
   1.72133925  3.44347629  5.16595845
   1.74310498  5.16741327  3.46558229
   1.72133741  6.89136248  5.16595792
   1.72449313  0.00000938  8.60788243
   1.74147869  5.16741190  6.88988425
   1.72449036  3.44942767  1.72248595
   1.72449007  6.88540952  1.72248655
   1.71988210  1.71987667  3.44234477
   1.71988176  8.61498102  3.44234599
   1.74308056  1.74307337  6.88987783
   1.72133847  3.44347295  8.61382263
   1.72133693  6.89136533  8.61382246
   1.74308001  8.59178511  6.88987602
   1.74310669  5.16741258 10.31422374
   1.72449278  0.00000883  5.17189808
   3.44945130  0.00001009 10.33284415
   3.44944909  1.72448402  1.72248636
   3.44944908  8.61037366  1.72248641
   3.44350257  3.44347926  3.44381157
   3.44350132  6.89135841  3.44381019
   3.44349586  1.72133249  8.61382191
   3.45502612  3.45498898  6.88991358
   3.45500836  6.87985046  6.88992043
   3.44349423  8.61352746  8.61382233
   3.44350058  3.44347834  0.00114951
   3.44969321  5.16741236  1.72248452
   3.44350037  6.89135924  0.00115088
   3.44945205  0.00001000  3.44696073
   3.44349966  1.72133421  5.16595875
   3.44349734  8.61352581  5.16595812
   3.44969143  0.00000948  6.88988502
   3.45502451  5.16741124  8.60227561
   5.16742877  0.00001017  1.72248613
   5.16742734  1.74310036 10.31422312
   5.16742873  3.44967107  1.72248495
   5.16742836  5.16741158 10.31586013
   5.16742924  6.88516610  1.72248456
   5.16742851  8.59175815 10.31422215
   5.16742921  0.00000961  5.17214778
   5.16742822  1.74309922  3.46558283
   5.16743967  3.45499380  5.17750474
   5.16742926  5.16741152  3.46395234
   5.16744696  6.87982990  5.17750244
   5.16742909  8.59175929  3.46558146
   5.16742807  0.00000965  8.60763352
   5.16742849  1.74147314  6.88988407
   5.16743842  3.45499124  8.60227770
   5.16743840  6.87984630  8.60228062
   5.16742843  8.59338945  6.88988342
   6.89134944  3.44347909  0.00115070
   6.88515837  5.16741291  1.72248500
   6.89135070  6.89135959  0.00115269
   6.88539980  0.00000916  3.44696068
   6.89135180  1.72133389  5.16595882
   6.89135355  8.61352664  5.16595713
   6.88515975  0.00000937  6.88988358
   6.87982485  5.16741115  8.60227495
   6.88540206  1.72448375  1.72248706
   6.88540240  8.61037353  1.72248683
   6.89134863  3.44348001  3.44381192
   6.89135072  6.89135846  3.44380981
   6.89135489  1.72133234  8.61382103
   6.87983763  3.45498696  6.88991930
   6.87984144  6.87985072  6.88991877
   6.89135615  8.61352791  8.61382285
   6.88539931  0.00000898 10.33284472
   6.87983405  5.16740018  5.17750097
   8.59173290  5.16741358 10.31422411
   8.61034616  0.00000936  5.17189694
   8.61034903  3.44942793  1.72248722
   8.61034884  6.88540967  1.72248744
   8.61495737  1.71987616  3.44234538
   8.61495674  8.61498072  3.44234594
   8.59175935  1.74307212  6.88987581
   8.61350154  3.44347205  8.61382223
   8.61350339  6.89136590  8.61382345
   8.59175953  8.59178595  6.88987417
   8.61406332  0.00000972  1.72248889
   8.61495868  1.71987534  0.00261028
   8.61495770  8.61498204  0.00261054
   8.61349925  3.44347565  5.16595747
   8.59173413  5.16741403  3.46557992
   8.61350159  6.89136255  5.16595589
   8.61034694  0.00000972  8.60788204
   8.59336076  5.16741188  6.88988275
   3.45505511  5.16741139  5.17751090
 


--------------------------------------------------------------------------------------------------------


 k-point  1 :   0.1250 0.1250 0.1250  plane waves:   19996
 k-point  2 :   0.3750 0.1250 0.1250  plane waves:   20056
 k-point  3 :  -0.3750 0.1250 0.1250  plane waves:   20056
 k-point  4 :  -0.1250 0.1250 0.1250  plane waves:   19996
 k-point  5 :   0.1250 0.3750 0.1250  plane waves:   20056
 k-point  6 :   0.3750 0.3750 0.1250  plane waves:   20045
 k-point  7 :  -0.3750 0.3750 0.1250  plane waves:   20045
 k-point  8 :  -0.1250 0.3750 0.1250  plane waves:   20056
 k-point  9 :   0.1250-0.3750 0.1250  plane waves:   20056
 k-point 10 :   0.3750-0.3750 0.1250  plane waves:   20045
 k-point 11 :  -0.3750-0.3750 0.1250  plane waves:   20045
 k-point 12 :  -0.1250-0.3750 0.1250  plane waves:   20056
 k-point 13 :   0.1250-0.1250 0.1250  plane waves:   19996
 k-point 14 :   0.3750-0.1250 0.1250  plane waves:   20056
 k-point 15 :  -0.3750-0.1250 0.1250  plane waves:   20056
 k-point 16 :  -0.1250-0.1250 0.1250  plane waves:   19996
 k-point 17 :   0.1250 0.1250 0.3750  plane waves:   20056
 k-point 18 :   0.3750 0.1250 0.3750  plane waves:   20045
 k-point 19 :  -0.3750 0.1250 0.3750  plane waves:   20045
 k-point 20 :  -0.1250 0.1250 0.3750  plane waves:   20056
 k-point 21 :   0.1250 0.3750 0.3750  plane waves:   20045
 k-point 22 :   0.3750 0.3750 0.3750  plane waves:   20078
 k-point 23 :  -0.3750 0.3750 0.3750  plane waves:   20078
 k-point 24 :  -0.1250 0.3750 0.3750  plane waves:   20045
 k-point 25 :   0.1250-0.3750 0.3750  plane waves:   20045
 k-point 26 :   0.3750-0.3750 0.3750  plane waves:   20078
 k-point 27 :  -0.3750-0.3750 0.3750  plane waves:   20078
 k-point 28 :  -0.1250-0.3750 0.3750  plane waves:   20045
 k-point 29 :   0.1250-0.1250 0.3750  plane waves:   20056
 k-point 30 :   0.3750-0.1250 0.3750  plane waves:   20045
 k-point 31 :  -0.3750-0.1250 0.3750  plane waves:   20045
 k-point 32 :  -0.1250-0.1250 0.3750  plane waves:   20056

 maximum and minimum number of plane-waves per node :      5066     4975

 maximum number of plane-waves:     20078
 maximum index in each direction: 
   IXMAX=   17   IYMAX=   17   IZMAX=   16
   IXMIN=  -17   IYMIN=  -17   IZMIN=  -17


 real space projection operators:
  total allocation   :      71135.30 KBytes
  max/ min on nodes  :      18089.30      17500.78


 parallel 3D FFT for wavefunctions:
    minimum data exchange during FFTs selected (reduces bandwidth)
 parallel 3D FFT for charge:
    minimum data exchange during FFTs selected (reduces bandwidth)


 total amount of memory used by VASP MPI-rank0   822563. kBytes
=======================================================================

   base      :      30000. kBytes
   nonlr-proj:      31162. kBytes
   fftplans  :      15435. kBytes
   grid      :      21835. kBytes
   one-center:        419. kBytes
   wavefun   :     723712. kBytes
 
     INWAV:  cpu time    0.0000: real time    0.0000
 Broyden mixing: mesh for mixing (old mesh)
   NGX = 33   NGY = 33   NGZ = 33
  (NGX  =144   NGY  =144   NGZ  =144)
  gives a total of  35937 points

 initial charge density was supplied:
 charge density of overlapping atoms calculated
 number of electron     856.0000000 magnetization 
 keeping initial charge density in first step


--------------------------------------------------------------------------------------------------------


 Maximum index for non-local projection operator         1209
 Maximum index for augmentation-charges         1470 (set IRDMAX)


--------------------------------------------------------------------------------------------------------


 First call to EWALD:  gamma=   0.172
 Maximum number of real-space cells 3x 3x 3
 Maximum number of reciprocal cells 3x 3x 3

    FEWALD:  cpu time    0.0102: real time    0.0104


--------------------------------------- Iteration      1(   1)  ---------------------------------------


    POTLOK:  cpu time    0.2717: real time    0.2726
    SETDIJ:  cpu time    0.0503: real time    0.0503
     EDDAV:  cpu time  258.9146: real time  258.9467
       DOS:  cpu time    0.0302: real time    0.0302
    --------------------------------------------
      LOOP:  cpu time  259.2668: real time  259.2997

 eigenvalue-minimisations  : 32944
 total energy-change (2. order) : 0.7506629E+04  (-0.2862085E+05)
 number of electron     856.0000000 magnetization 
 augmentation part      856.0000000 magnetization 

 Free energy of the ion-electron system (eV)
  ---------------------------------------------------
  alpha Z        PSCENC =      7165.75404585
  Ewald energy   TEWEN  =    -65169.07313690
  -Hartree energ DENC   =    -11387.28144545
  -exchange      EXHF   =         0.00000000
  -V(xc)+E(xc)   XCENC  =       440.37528354
  PAW double counting   =     51244.96395782   -52061.72305433
  entropy T*S    EENTRO =         0.00916263
  eigenvalues    EBANDS =     13666.39327742
  atomic energy  EATOM  =     63607.21096501
  Solvation  Ediel_sol  =         0.00000000
  ---------------------------------------------------
  free energy    TOTEN  =      7506.62905560 eV

  energy without entropy =     7506.61989296  energy(sigma->0) =     7506.62600138


--------------------------------------------------------------------------------------------------------




--------------------------------------- Iteration      1(   2)  ---------------------------------------


     EDDAV:  cpu time  256.7943: real time  256.8155
       DOS:  cpu time    0.0460: real time    0.0460
    --------------------------------------------
      LOOP:  cpu time  256.8403: real time  256.8614

 eigenvalue-minimisations  : 32896
 total energy-change (2. order) :-0.7531823E+04  (-0.7364003E+04)
 number of electron     856.0000000 magnetization 
 augmentation part      856.0000000 magnetization 

 Free energy of the ion-electron system (eV)
  ---------------------------------------------------
  alpha Z        PSCENC =      7165.75404585
  Ewald energy   TEWEN  =    -65169.07313690
  -Hartree energ DENC   =    -11387.28144545
  -exchange      EXHF   =         0.00000000
  -V(xc)+E(xc)   XCENC  =       440.37528354
  PAW double counting   =     51244.96395782   -52061.72305433
  entropy T*S    EENTRO =         0.00293013
  eigenvalues    EBANDS =      6134.57696494
  atomic energy  EATOM  =     63607.21096501
  Solvation  Ediel_sol  =         0.00000000
  ---------------------------------------------------
  free energy    TOTEN  =       -25.19348938 eV

  energy without entropy =      -25.19641951  energy(sigma->0) =      -25.19446609


--------------------------------------------------------------------------------------------------------




--------------------------------------- Iteration      1(   3)  ---------------------------------------


     EDDAV:  cpu time  265.5053: real time  265.5258
       DOS:  cpu time    0.0529: real time    0.0529
    --------------------------------------------
      LOOP:  cpu time  265.5582: real time  265.5787

 eigenvalue-minimisations  : 33224
 total energy-change (2. order) :-0.8178889E+03  (-0.6985386E+03)
 number of electron     856.0000000 magnetization 
 augmentation part      856.0000000 magnetization 

 Free energy of the ion-electron system (eV)
  ---------------------------------------------------
  alpha Z        PSCENC =      7165.75404585
  Ewald energy   TEWEN  =    -65169.07313690
  -Hartree energ DENC   =    -11387.28144545
  -exchange      EXHF   =         0.00000000
  -V(xc)+E(xc)   XCENC  =       440.37528354
  PAW double counting   =     51244.96395782   -52061.72305433
  entropy T*S    EENTRO =         0.01777026
  eigenvalues    EBANDS =      5316.67317778
  atomic energy  EATOM  =     63607.21096501
  Solvation  Ediel_sol  =         0.00000000
  ---------------------------------------------------
  free energy    TOTEN  =      -843.08243642 eV

  energy without entropy =     -843.10020668  energy(sigma->0) =     -843.08835984


--------------------------------------------------------------------------------------------------------




--------------------------------------- Iteration      1(   4)  ---------------------------------------


     EDDAV:  cpu time  421.4628: real time  421.4946
       DOS:  cpu time    0.0554: real time    0.0554
    --------------------------------------------
      LOOP:  cpu time  421.5181: real time  421.5500

 eigenvalue-minimisations  : 59952
 total energy-change (2. order) :-0.1745163E+03  (-0.1636370E+03)
 number of electron     856.0000000 magnetization 
 augmentation part      856.0000000 magnetization 

 Free energy of the ion-electron system (eV)
  ---------------------------------------------------
  alpha Z        PSCENC =      7165.75404585
  Ewald energy   TEWEN  =    -65169.07313690
  -Hartree energ DENC   =    -11387.28144545
  -exchange      EXHF   =         0.00000000
  -V(xc)+E(xc)   XCENC  =       440.37528354
  PAW double counting   =     51244.96395782   -52061.72305433
  entropy T*S    EENTRO =        -0.02138339
  eigenvalues    EBANDS =      5142.19599156
  atomic energy  EATOM  =     63607.21096501
  Solvation  Ediel_sol  =         0.00000000
  ---------------------------------------------------
  free energy    TOTEN  =     -1017.59877628 eV

  energy without entropy =    -1017.57739289  energy(sigma->0) =    -1017.59164848


--------------------------------------------------------------------------------------------------------




--------------------------------------- Iteration      1(   5)  ---------------------------------------


     EDDAV:  cpu time  383.4871: real time  383.5157
       DOS:  cpu time    0.0557: real time    0.0557
    CHARGE:  cpu time   12.9798: real time   12.9807
    MIXING:  cpu time    0.0073: real time    0.0073
    --------------------------------------------
      LOOP:  cpu time  396.5300: real time  396.5594

 eigenvalue-minimisations  : 52592
 total energy-change (2. order) :-0.1496871E+02  (-0.1411012E+02)
 number of electron     856.0000596 magnetization 
 augmentation part      379.2725064 magnetization 

 Broyden mixing:
  rms(total) = 0.93043E+01    rms(broyden)= 0.93038E+01
  rms(prec ) = 0.11626E+02
  weight for this iteration     100.00

 Free energy of the ion-electron system (eV)
  ---------------------------------------------------
  alpha Z        PSCENC =      7165.75404585
  Ewald energy   TEWEN  =    -65169.07313690
  -Hartree energ DENC   =    -11387.28144545
  -exchange      EXHF   =         0.00000000
  -V(xc)+E(xc)   XCENC  =       440.37528354
  PAW double counting   =     51244.96395782   -52061.72305433
  entropy T*S    EENTRO =        -0.05201335
  eigenvalues    EBANDS =      5127.25790653
  atomic energy  EATOM  =     63607.21096501
  Solvation  Ediel_sol  =         0.00000000
  ---------------------------------------------------
  free energy    TOTEN  =     -1032.56749127 eV

  energy without entropy =    -1032.51547792  energy(sigma->0) =    -1032.55015349


--------------------------------------------------------------------------------------------------------




--------------------------------------- Iteration      1(   6)  ---------------------------------------


    POTLOK:  cpu time    0.2726: real time    0.2736
    SETDIJ:  cpu time    0.0518: real time    0.0518
    EDDIAG:  cpu time   35.1383: real time   35.1411
  RMM-DIIS:  cpu time  151.7320: real time  151.7427
    ORTHCH:  cpu time    7.9229: real time    7.9237
       DOS:  cpu time    0.0628: real time    0.0628
    CHARGE:  cpu time   13.0725: real time   13.0734
    MIXING:  cpu time    0.0079: real time    0.0079
    --------------------------------------------
      LOOP:  cpu time  208.2608: real time  208.2770

 eigenvalue-minimisations  : 32958
 total energy-change (2. order) : 0.1530757E+03  (-0.1397484E+03)
 number of electron     856.0000652 magnetization 
 augmentation part      444.0973790 magnetization 

 Broyden mixing:
  rms(total) = 0.37711E+01    rms(broyden)= 0.37699E+01
  rms(prec ) = 0.62278E+01
  weight for this iteration     100.00

 eigenvalues of (default mixing * dielectric matrix)
  average eigenvalue GAMMA=   0.8264
  0.8264

 Free energy of the ion-electron system (eV)
  ---------------------------------------------------
  alpha Z        PSCENC =      7165.75404585
  Ewald energy   TEWEN  =    -65169.07313690
  -Hartree energ DENC   =     -9550.09774336
  -exchange      EXHF   =         0.00000000
  -V(xc)+E(xc)   XCENC  =       350.30432282
  PAW double counting   =     51912.67803910   -52487.40136697
  entropy T*S    EENTRO =         0.02190932
  eigenvalues    EBANDS =      3291.11112557
  atomic energy  EATOM  =     63607.21096501
  Solvation  Ediel_sol  =         0.00000000
  ---------------------------------------------------
  free energy    TOTEN  =      -879.49183957 eV

  energy without entropy =     -879.51374889  energy(sigma->0) =     -879.49914267


--------------------------------------------------------------------------------------------------------




--------------------------------------- Iteration      1(   7)  ---------------------------------------


    POTLOK:  cpu time    0.2679: real time    0.2693
    SETDIJ:  cpu time    0.0517: real time    0.0517
    EDDIAG:  cpu time   33.5663: real time   33.5688
  RMM-DIIS:  cpu time  200.2113: real time  200.2263
    ORTHCH:  cpu time    7.1565: real time    7.1569
       DOS:  cpu time    0.0519: real time    0.0519
    CHARGE:  cpu time   12.5402: real time   12.5411
    MIXING:  cpu time    0.0071: real time    0.0071
    --------------------------------------------
      LOOP:  cpu time  253.8529: real time  253.8731

 eigenvalue-minimisations  : 44607
 total energy-change (2. order) :-0.2604438E+03  (-0.3718538E+02)
 number of electron     856.0000758 magnetization 
 augmentation part      461.6450277 magnetization 

 Broyden mixing:
  rms(total) = 0.16788E+02    rms(broyden)= 0.16787E+02
  rms(prec ) = 0.33009E+02
  weight for this iteration     100.00

 eigenvalues of (default mixing * dielectric matrix)
  average eigenvalue GAMMA=   0.5191
  0.9017  0.1364

 Free energy of the ion-electron system (eV)
  ---------------------------------------------------
  alpha Z        PSCENC =      7165.75404585
  Ewald energy   TEWEN  =    -65169.07313690
  -Hartree energ DENC   =     -9579.23919809
  -exchange      EXHF   =         0.00000000
  -V(xc)+E(xc)   XCENC  =       354.59079985
  PAW double counting   =     53367.79036972   -54097.52305445
  entropy T*S    EENTRO =        -0.01532293
  eigenvalues    EBANDS =      3210.56885772
  atomic energy  EATOM  =     63607.21096501
  Solvation  Ediel_sol  =         0.00000000
  ---------------------------------------------------
  free energy    TOTEN  =     -1139.93567420 eV

  energy without entropy =    -1139.92035128  energy(sigma->0) =    -1139.93056656


--------------------------------------------------------------------------------------------------------




--------------------------------------- Iteration      1(   8)  ---------------------------------------


    POTLOK:  cpu time    0.3143: real time    0.3155
    SETDIJ:  cpu time    0.0536: real time    0.0536
    EDDIAG:  cpu time   35.6192: real time   35.6219
  RMM-DIIS:  cpu time  152.0769: real time  152.0879
    ORTHCH:  cpu time    7.2655: real time    7.2660
       DOS:  cpu time    0.0635: real time    0.0635
    CHARGE:  cpu time   14.2638: real time   14.2649
    MIXING:  cpu time    0.0075: real time    0.0075
    --------------------------------------------
      LOOP:  cpu time  209.6643: real time  209.6807

 eigenvalue-minimisations  : 32912
 total energy-change (2. order) : 0.2610804E+03  (-0.1828820E+02)
 number of electron     856.0000649 magnetization 
 augmentation part      442.6729691 magnetization 

 Broyden mixing:
  rms(total) = 0.44239E+01    rms(broyden)= 0.44204E+01
  rms(prec ) = 0.68105E+01
  weight for this iteration     100.00

 eigenvalues of (default mixing * dielectric matrix)
  average eigenvalue GAMMA=   0.3843
  0.9073  0.1542  0.0912

 Free energy of the ion-electron system (eV)
  ---------------------------------------------------
  alpha Z        PSCENC =      7165.75404585
  Ewald energy   TEWEN  =    -65169.07313690
  -Hartree energ DENC   =     -9650.79843656
  -exchange      EXHF   =         0.00000000
  -V(xc)+E(xc)   XCENC  =       357.73053880
  PAW double counting   =     53940.39581383   -54729.57345661
  entropy T*S    EENTRO =        -0.10141130
  eigenvalues    EBANDS =      3599.59979163
  atomic energy  EATOM  =     63607.21096501
  Solvation  Ediel_sol  =         0.00000000
  ---------------------------------------------------
  free energy    TOTEN  =      -878.85528624 eV

  energy without entropy =     -878.75387494  energy(sigma->0) =     -878.82148247


--------------------------------------------------------------------------------------------------------




--------------------------------------- Iteration      1(   9)  ---------------------------------------


    POTLOK:  cpu time    0.2303: real time    0.2313
    SETDIJ:  cpu time    0.0507: real time    0.0507
    EDDIAG:  cpu time   33.2449: real time   33.2476
  RMM-DIIS:  cpu time  186.1835: real time  186.1969
    ORTHCH:  cpu time    7.1605: real time    7.1610
       DOS:  cpu time    0.0633: real time    0.0633
    CHARGE:  cpu time   12.5343: real time   12.5351
    MIXING:  cpu time    0.0079: real time    0.0079
    --------------------------------------------
      LOOP:  cpu time  239.4754: real time  239.4938

 eigenvalue-minimisations  : 40221
 total energy-change (2. order) : 0.8746438E+01  (-0.5634521E+01)
 number of electron     856.0000653 magnetization 
 augmentation part      441.8217096 magnetization 

 Broyden mixing:
  rms(total) = 0.13377E+01    rms(broyden)= 0.13331E+01
  rms(prec ) = 0.21667E+01
  weight for this iteration     100.00

 eigenvalues of (default mixing * dielectric matrix)
  average eigenvalue GAMMA=   0.3945
  0.9136  0.4381  0.1132  0.1132

 Free energy of the ion-electron system (eV)
  ---------------------------------------------------
  alpha Z        PSCENC =      7165.75404585
  Ewald energy   TEWEN  =    -65169.07313690
  -Hartree energ DENC   =     -9651.20764903
  -exchange      EXHF   =         0.00000000
  -V(xc)+E(xc)   XCENC  =       357.80293893
  PAW double counting   =     54136.02765659   -54935.95858271
  entropy T*S    EENTRO =        -0.05258670
  eigenvalues    EBANDS =      3619.38750075
  atomic energy  EATOM  =     63607.21096501
  Solvation  Ediel_sol  =         0.00000000
  ---------------------------------------------------
  free energy    TOTEN  =      -870.10884820 eV

  energy without entropy =     -870.05626150  energy(sigma->0) =     -870.09131930


--------------------------------------------------------------------------------------------------------




--------------------------------------- Iteration      1(  10)  ---------------------------------------


    POTLOK:  cpu time    0.2370: real time    0.2382
    SETDIJ:  cpu time    0.0513: real time    0.0513
    EDDIAG:  cpu time   32.3155: real time   32.3180
  RMM-DIIS:  cpu time  198.7824: real time  198.7974
    ORTHCH:  cpu time    7.6771: real time    7.6777
       DOS:  cpu time    0.0632: real time    0.0632
    CHARGE:  cpu time   12.5444: real time   12.5452
    MIXING:  cpu time    0.0079: real time    0.0079
    --------------------------------------------
      LOOP:  cpu time  251.6788: real time  251.6988

 eigenvalue-minimisations  : 43354
 total energy-change (2. order) :-0.2051996E+01  (-0.2288251E+01)
 number of electron     856.0000646 magnetization 
 augmentation part      441.2402533 magnetization 

 Broyden mixing:
  rms(total) = 0.21549E+01    rms(broyden)= 0.21537E+01
  rms(prec ) = 0.33188E+01
  weight for this iteration     100.00

 eigenvalues of (default mixing * dielectric matrix)
  average eigenvalue GAMMA=   0.4359
  0.9962  0.8431  0.1214  0.1094  0.1094

 Free energy of the ion-electron system (eV)
  ---------------------------------------------------
  alpha Z        PSCENC =      7165.75404585
  Ewald energy   TEWEN  =    -65169.07313690
  -Hartree energ DENC   =     -9646.45030376
  -exchange      EXHF   =         0.00000000
  -V(xc)+E(xc)   XCENC  =       357.86710601
  PAW double counting   =     54658.66591638   -55484.29703767
  entropy T*S    EENTRO =        -0.02798407
  eigenvalues    EBANDS =      3638.18958521
  atomic energy  EATOM  =     63607.21096501
  Solvation  Ediel_sol  =         0.00000000
  ---------------------------------------------------
  free energy    TOTEN  =      -872.16084392 eV

  energy without entropy =     -872.13285986  energy(sigma->0) =     -872.15151590


--------------------------------------------------------------------------------------------------------




--------------------------------------- Iteration      1(  11)  ---------------------------------------


    POTLOK:  cpu time    0.2369: real time    0.2381
    SETDIJ:  cpu time    0.0511: real time    0.0511
    EDDIAG:  cpu time   32.3113: real time   32.3137
  RMM-DIIS:  cpu time  172.8380: real time  172.8506
    ORTHCH:  cpu time    7.1596: real time    7.1601
       DOS:  cpu time    0.0628: real time    0.0628
    CHARGE:  cpu time   12.5293: real time   12.5301
    MIXING:  cpu time    0.0079: real time    0.0079
    --------------------------------------------
      LOOP:  cpu time  225.1968: real time  225.2144

 eigenvalue-minimisations  : 36864
 total energy-change (2. order) : 0.2535091E+01  (-0.6110974E+00)
 number of electron     856.0000650 magnetization 
 augmentation part      440.3982986 magnetization 

 Broyden mixing:
  rms(total) = 0.87237E+00    rms(broyden)= 0.87091E+00
  rms(prec ) = 0.15804E+01
  weight for this iteration     100.00

 eigenvalues of (default mixing * dielectric matrix)
  average eigenvalue GAMMA=   0.4126
  1.0839  0.8589  0.1855  0.1280  0.1280  0.0912

 Free energy of the ion-electron system (eV)
  ---------------------------------------------------
  alpha Z        PSCENC =      7165.75404585
  Ewald energy   TEWEN  =    -65169.07313690
  -Hartree energ DENC   =     -9641.60511815
  -exchange      EXHF   =         0.00000000
  -V(xc)+E(xc)   XCENC  =       357.94949117
  PAW double counting   =     55219.10264201   -56071.74557784
  entropy T*S    EENTRO =        -0.04507688
  eigenvalues    EBANDS =      3662.82601293
  atomic energy  EATOM  =     63607.21096501
  Solvation  Ediel_sol  =         0.00000000
  ---------------------------------------------------
  free energy    TOTEN  =      -869.62575279 eV

  energy without entropy =     -869.58067591  energy(sigma->0) =     -869.61072716


--------------------------------------------------------------------------------------------------------




--------------------------------------- Iteration      1(  12)  ---------------------------------------


    POTLOK:  cpu time    0.2378: real time    0.2389
    SETDIJ:  cpu time    0.0510: real time    0.0510
    EDDIAG:  cpu time   32.6456: real time   32.6480
  RMM-DIIS:  cpu time  229.8722: real time  229.8889
    ORTHCH:  cpu time    7.1599: real time    7.1605
       DOS:  cpu time    0.0633: real time    0.0633
    CHARGE:  cpu time   12.5307: real time   12.5315
    MIXING:  cpu time    0.0087: real time    0.0087
    --------------------------------------------
      LOOP:  cpu time  282.5692: real time  282.5909

 eigenvalue-minimisations  : 49669
 total energy-change (2. order) :-0.1562969E+00  (-0.5428270E+00)
 number of electron     856.0000647 magnetization 
 augmentation part      440.1626381 magnetization 

 Broyden mixing:
  rms(total) = 0.86915E+00    rms(broyden)= 0.86857E+00
  rms(prec ) = 0.16750E+01
  weight for this iteration     100.00

 eigenvalues of (default mixing * dielectric matrix)
  average eigenvalue GAMMA=   0.5124
  1.4976  0.8313  0.8313  0.1208  0.1208  0.0878  0.0976

 Free energy of the ion-electron system (eV)
  ---------------------------------------------------
  alpha Z        PSCENC =      7165.75404585
  Ewald energy   TEWEN  =    -65169.07313690
  -Hartree energ DENC   =     -9637.78687238
  -exchange      EXHF   =         0.00000000
  -V(xc)+E(xc)   XCENC  =       357.88404678
  PAW double counting   =     55434.43442599   -56296.51680185
  entropy T*S    EENTRO =        -0.04917974
  eigenvalues    EBANDS =      3668.36045757
  atomic energy  EATOM  =     63607.21096501
  Solvation  Ediel_sol  =         0.00000000
  ---------------------------------------------------
  free energy    TOTEN  =      -869.78204965 eV

  energy without entropy =     -869.73286991  energy(sigma->0) =     -869.76565640


--------------------------------------------------------------------------------------------------------




--------------------------------------- Iteration      1(  13)  ---------------------------------------


    POTLOK:  cpu time    0.2372: real time    0.2382
    SETDIJ:  cpu time    0.0549: real time    0.0549
    EDDIAG:  cpu time   32.2591: real time   32.2614
  RMM-DIIS:  cpu time  177.5365: real time  177.5491
    ORTHCH:  cpu time    7.1631: real time    7.1636
       DOS:  cpu time    0.0619: real time    0.0619
    CHARGE:  cpu time   12.5510: real time   12.5519
    MIXING:  cpu time    0.0079: real time    0.0079
    --------------------------------------------
      LOOP:  cpu time  229.8716: real time  229.8888

 eigenvalue-minimisations  : 38372
 total energy-change (2. order) : 0.4783273E+00  (-0.1574298E+00)
 number of electron     856.0000653 magnetization 
 augmentation part      439.5772777 magnetization 

 Broyden mixing:
  rms(total) = 0.64116E+00    rms(broyden)= 0.64011E+00
  rms(prec ) = 0.99803E+00
  weight for this iteration     100.00

 eigenvalues of (default mixing * dielectric matrix)
  average eigenvalue GAMMA=   0.4851
  1.6199  0.8531  0.8531  0.1314  0.1314  0.1083  0.1030  0.0807

 Free energy of the ion-electron system (eV)
  ---------------------------------------------------
  alpha Z        PSCENC =      7165.75404585
  Ewald energy   TEWEN  =    -65169.07313690
  -Hartree energ DENC   =     -9616.31028968
  -exchange      EXHF   =         0.00000000
  -V(xc)+E(xc)   XCENC  =       357.33855866
  PAW double counting   =     56395.64714237   -57297.71471067
  entropy T*S    EENTRO =        -0.06282881
  eigenvalues    EBANDS =      3687.90653177
  atomic energy  EATOM  =     63607.21096501
  Solvation  Ediel_sol  =         0.00000000
  ---------------------------------------------------
  free energy    TOTEN  =      -869.30372239 eV

  energy without entropy =     -869.24089358  energy(sigma->0) =     -869.28277945


--------------------------------------------------------------------------------------------------------




--------------------------------------- Iteration      1(  14)  ---------------------------------------


    POTLOK:  cpu time    0.2325: real time    0.2334
    SETDIJ:  cpu time    0.0510: real time    0.0510
    EDDIAG:  cpu time   33.9261: real time   33.9293
  RMM-DIIS:  cpu time  210.2504: real time  210.2655
    ORTHCH:  cpu time    7.1571: real time    7.1576
       DOS:  cpu time    0.0628: real time    0.0628
    CHARGE:  cpu time   12.5417: real time   12.5426
    MIXING:  cpu time    0.0088: real time    0.0088
    --------------------------------------------
      LOOP:  cpu time  264.2304: real time  264.2511

 eigenvalue-minimisations  : 45740
 total energy-change (2. order) : 0.5520460E-01  (-0.9213970E-01)
 number of electron     856.0000650 magnetization 
 augmentation part      439.6230391 magnetization 

 Broyden mixing:
  rms(total) = 0.58136E+00    rms(broyden)= 0.58120E+00
  rms(prec ) = 0.96518E+00
  weight for this iteration     100.00

 eigenvalues of (default mixing * dielectric matrix)
  average eigenvalue GAMMA=   0.4859
  1.7516  0.8913  0.8913  0.3134  0.1274  0.1097  0.1097  0.0893  0.0893

 Free energy of the ion-electron system (eV)
  ---------------------------------------------------
  alpha Z        PSCENC =      7165.75404585
  Ewald energy   TEWEN  =    -65169.07313690
  -Hartree energ DENC   =     -9608.31231914
  -exchange      EXHF   =         0.00000000
  -V(xc)+E(xc)   XCENC  =       357.03495731
  PAW double counting   =     56559.88635950   -57467.66567470
  entropy T*S    EENTRO =        -0.06081558
  eigenvalues    EBANDS =      3685.97710085
  atomic energy  EATOM  =     63607.21096501
  Solvation  Ediel_sol  =         0.00000000
  ---------------------------------------------------
  free energy    TOTEN  =      -869.24851779 eV

  energy without entropy =     -869.18770221  energy(sigma->0) =     -869.22824593


--------------------------------------------------------------------------------------------------------




--------------------------------------- Iteration      1(  15)  ---------------------------------------


    POTLOK:  cpu time    0.2380: real time    0.2390
    SETDIJ:  cpu time    0.0511: real time    0.0512
    EDDIAG:  cpu time   36.4774: real time   36.4805
  RMM-DIIS:  cpu time  186.1965: real time  186.2099
    ORTHCH:  cpu time    7.6866: real time    7.6871
       DOS:  cpu time    0.0629: real time    0.0629
    CHARGE:  cpu time   12.5478: real time   12.5486
    MIXING:  cpu time    0.0088: real time    0.0088
    --------------------------------------------
      LOOP:  cpu time  243.2692: real time  243.2880

 eigenvalue-minimisations  : 40458
 total energy-change (2. order) : 0.8226731E-01  (-0.2625075E-01)
 number of electron     856.0000649 magnetization 
 augmentation part      439.9669743 magnetization 

 Broyden mixing:
  rms(total) = 0.49262E+00    rms(broyden)= 0.49252E+00
  rms(prec ) = 0.82454E+00
  weight for this iteration     100.00

 eigenvalues of (default mixing * dielectric matrix)
  average eigenvalue GAMMA=   0.4927
  1.9363  0.9566  0.9566  0.4425  0.1368  0.1163  0.1163  0.1004  0.0889  0.0761

 Free energy of the ion-electron system (eV)
  ---------------------------------------------------
  alpha Z        PSCENC =      7165.75404585
  Ewald energy   TEWEN  =    -65169.07313690
  -Hartree energ DENC   =     -9593.28093915
  -exchange      EXHF   =         0.00000000
  -V(xc)+E(xc)   XCENC  =       356.40801992
  PAW double counting   =     56747.37841702   -57660.10435925
  entropy T*S    EENTRO =        -0.06075810
  eigenvalues    EBANDS =      3676.60149510
  atomic energy  EATOM  =     63607.21096501
  Solvation  Ediel_sol  =         0.00000000
  ---------------------------------------------------
  free energy    TOTEN  =      -869.16625048 eV

  energy without entropy =     -869.10549239  energy(sigma->0) =     -869.14599779


--------------------------------------------------------------------------------------------------------




--------------------------------------- Iteration      1(  16)  ---------------------------------------


    POTLOK:  cpu time    0.2375: real time    0.2387
    SETDIJ:  cpu time    0.0513: real time    0.0513
    EDDIAG:  cpu time   32.2844: real time   32.2868
  RMM-DIIS:  cpu time  168.4625: real time  168.4745
    ORTHCH:  cpu time    7.1576: real time    7.1582
       DOS:  cpu time    0.0630: real time    0.0630
    CHARGE:  cpu time   12.5120: real time   12.5129
    MIXING:  cpu time    0.0090: real time    0.0090
    --------------------------------------------
      LOOP:  cpu time  220.7773: real time  220.7944

 eigenvalue-minimisations  : 36306
 total energy-change (2. order) : 0.1256223E+00  (-0.2949389E-01)
 number of electron     856.0000651 magnetization 
 augmentation part      440.5359768 magnetization 

 Broyden mixing:
  rms(total) = 0.18769E+00    rms(broyden)= 0.18738E+00
  rms(prec ) = 0.32690E+00
  weight for this iteration     100.00

 eigenvalues of (default mixing * dielectric matrix)
  average eigenvalue GAMMA=   0.5517
  2.1657  0.9255  0.9255  0.8939  0.5415  0.1234  0.1172  0.1172  0.0980  0.0858
  0.0749

 Free energy of the ion-electron system (eV)
  ---------------------------------------------------
  alpha Z        PSCENC =      7165.75404585
  Ewald energy   TEWEN  =    -65169.07313690
  -Hartree energ DENC   =     -9569.56218265
  -exchange      EXHF   =         0.00000000
  -V(xc)+E(xc)   XCENC  =       355.41304970
  PAW double counting   =     57034.93585003   -57954.74694883
  entropy T*S    EENTRO =        -0.06302093
  eigenvalues    EBANDS =      3661.09075051
  atomic energy  EATOM  =     63607.21096501
  Solvation  Ediel_sol  =         0.00000000
  ---------------------------------------------------
  free energy    TOTEN  =      -869.04062821 eV

  energy without entropy =     -868.97760729  energy(sigma->0) =     -869.01962124


--------------------------------------------------------------------------------------------------------




--------------------------------------- Iteration      1(  17)  ---------------------------------------


    POTLOK:  cpu time    0.2380: real time    0.2390
    SETDIJ:  cpu time    0.0513: real time    0.0513
    EDDIAG:  cpu time   32.4036: real time   32.4058
  RMM-DIIS:  cpu time  208.2142: real time  208.2340
    ORTHCH:  cpu time    7.1521: real time    7.1557
       DOS:  cpu time    0.0630: real time    0.0630
    CHARGE:  cpu time   12.5137: real time   12.5146
    MIXING:  cpu time    0.0101: real time    0.0101
    --------------------------------------------
      LOOP:  cpu time  260.6459: real time  260.6735

 eigenvalue-minimisations  : 44867
 total energy-change (2. order) :-0.3020397E-01  (-0.2709671E-01)
 number of electron     856.0000650 magnetization 
 augmentation part      440.7050260 magnetization 

 Broyden mixing:
  rms(total) = 0.28188E+00    rms(broyden)= 0.28175E+00
  rms(prec ) = 0.43183E+00
  weight for this iteration     100.00

 eigenvalues of (default mixing * dielectric matrix)
  average eigenvalue GAMMA=   0.5475
[...]
   -.150E+02 -.244E+02 0.150E+02   0.150E+02 0.244E+02 -.150E+02   0.244E-02 0.122E-01 -.243E-02   -.264E-02 0.423E-02 0.291E-02
   -.958E+02 -.959E+02 -.925E-03   0.959E+02 0.959E+02 -.389E-04   -.682E-01 -.684E-01 0.365E-04   -.225E-02 0.406E-02 0.757E-03
   -.958E+02 0.958E+02 0.222E-02   0.959E+02 -.959E+02 -.360E-02   -.682E-01 0.683E-01 0.757E-04   -.179E-02 -.378E-02 0.104E-02
   -.150E+02 0.244E+02 0.150E+02   0.150E+02 -.244E+02 -.150E+02   0.246E-02 -.122E-01 -.243E-02   -.310E-02 -.452E-02 0.256E-02
   -.150E+02 -.151E+02 0.244E+02   0.150E+02 0.151E+02 -.244E+02   0.240E-02 0.236E-02 -.121E-01   -.255E-02 0.424E-02 0.247E-02
   -.922E+01 -.111E-01 0.106E-01   0.922E+01 0.116E-01 -.980E-02   -.625E-02 -.117E-04 -.997E-05   -.219E-02 -.340E-03 -.878E-03
   -.150E+02 0.151E+02 0.244E+02   0.150E+02 -.150E+02 -.244E+02   0.239E-02 -.236E-02 -.121E-01   -.209E-02 -.415E-02 0.199E-02
   -.803E+01 0.101E-01 -.407E+01   0.804E+01 -.106E-01 0.401E+01   -.155E-01 0.151E-04 0.713E-01   -.472E-02 0.411E-03 -.276E-02
   -.150E+02 -.244E+02 -.150E+02   0.150E+02 0.244E+02 0.150E+02   0.242E-02 0.122E-01 0.239E-02   -.373E-02 0.353E-02 -.310E-02
   -.150E+02 0.245E+02 -.150E+02   0.150E+02 -.244E+02 0.150E+02   0.242E-02 -.121E-01 0.239E-02   -.275E-02 -.349E-02 -.221E-02
   -.922E+01 0.103E-01 -.111E-01   0.923E+01 -.101E-01 0.111E-01   -.631E-02 0.109E-05 -.177E-04   -.351E-02 -.310E-03 0.126E-03
   -.958E+02 -.126E-01 0.958E+02   0.959E+02 0.124E-01 -.959E+02   -.682E-01 0.151E-04 0.681E-01   -.165E-02 0.318E-03 0.301E-02
   0.683E-02 0.107E-01 0.133E-01   -.680E-02 -.104E-01 -.128E-01   -.346E-04 -.306E-05 0.215E-05   -.649E-04 -.306E-03 -.569E-03
   0.589E-02 -.872E+01 0.871E+01   -.629E-02 0.855E+01 -.855E+01   -.241E-04 0.166E+00 -.166E+00   0.373E-03 0.481E-02 0.178E-02
   0.742E-02 -.925E+01 0.117E-01   -.717E-02 0.925E+01 -.109E-01   -.188E-04 -.627E-02 -.209E-04   -.296E-03 0.430E-02 -.859E-03
   0.756E-02 -.124E-01 0.496E+02   -.767E-02 0.121E-01 -.497E+02   0.847E-05 0.998E-05 0.126E+00   0.336E-04 0.342E-03 0.226E-02
   0.703E-02 0.924E+01 0.112E-01   -.782E-02 -.924E+01 -.103E-01   0.581E-05 0.627E-02 -.275E-04   0.694E-03 -.400E-02 -.952E-03
   0.596E-02 0.873E+01 0.871E+01   -.723E-02 -.856E+01 -.855E+01   -.711E-05 -.166E+00 -.166E+00   0.118E-02 -.516E-02 0.183E-02
   0.918E-02 0.114E-01 -.924E+01   -.770E-02 -.112E-01 0.924E+01   -.160E-04 0.872E-05 -.630E-02   -.150E-02 -.223E-03 -.270E-02
   0.854E-02 -.872E+01 -.870E+01   -.738E-02 0.855E+01 0.854E+01   -.471E-04 0.166E+00 0.166E+00   -.116E-02 0.458E-02 -.285E-02
   0.111E-01 -.959E+02 -.958E+02   -.104E-01 0.959E+02 0.959E+02   -.579E-04 -.684E-01 -.683E-01   -.855E-03 0.430E-02 -.268E-02
   0.847E-02 -.128E-01 -.496E+02   -.825E-02 0.126E-01 0.497E+02   -.292E-04 0.975E-06 -.126E+00   -.242E-03 0.336E-03 -.320E-02
   0.133E-01 0.958E+02 -.958E+02   -.124E-01 -.959E+02 0.959E+02   -.375E-04 0.683E-01 -.682E-01   -.108E-02 -.412E-02 -.247E-02
   0.858E-02 0.873E+01 -.870E+01   -.834E-02 -.856E+01 0.854E+01   -.344E-04 -.166E+00 0.166E+00   -.274E-03 -.491E-02 -.283E-02
   0.594E-02 0.104E-01 0.922E+01   -.643E-02 -.103E-01 -.923E+01   -.904E-05 -.240E-04 0.630E-02   0.422E-03 -.230E-03 0.326E-02
   0.821E-02 -.496E+02 -.109E-01   -.756E-02 0.497E+02 0.992E-02   -.221E-04 -.126E+00 -.116E-04   -.680E-03 0.407E-02 0.110E-02
   0.108E-01 -.959E+02 0.958E+02   -.108E-01 0.959E+02 -.959E+02   -.119E-04 -.683E-01 0.682E-01   -.119E-03 0.433E-02 0.353E-02
   0.109E-01 0.958E+02 0.958E+02   -.106E-01 -.959E+02 -.959E+02   0.130E-04 0.683E-01 0.681E-01   -.414E-03 -.413E-02 0.341E-02
   0.896E-02 0.496E+02 -.911E-02   -.794E-02 -.497E+02 0.813E-02   -.131E-04 0.126E+00 0.288E-04   -.107E-02 -.458E-02 0.102E-02
   0.150E+02 -.151E+02 0.244E+02   -.150E+02 0.151E+02 -.244E+02   -.239E-02 0.239E-02 -.121E-01   0.221E-02 0.378E-02 0.205E-02
   0.923E+01 -.116E-01 0.126E-01   -.923E+01 0.110E-01 -.115E-01   0.629E-02 0.105E-04 -.366E-04   0.203E-02 0.678E-03 -.120E-02
   0.150E+02 0.151E+02 0.244E+02   -.150E+02 -.150E+02 -.244E+02   -.237E-02 -.238E-02 -.121E-01   0.256E-02 -.289E-02 0.277E-02
   0.804E+01 0.103E-01 -.407E+01   -.805E+01 -.990E-02 0.400E+01   0.155E-01 0.207E-04 0.713E-01   0.340E-02 -.507E-03 -.412E-02
   0.150E+02 -.244E+02 -.150E+02   -.150E+02 0.244E+02 0.150E+02   -.240E-02 0.121E-01 0.241E-02   0.216E-02 0.429E-02 -.274E-02
   0.150E+02 0.244E+02 -.150E+02   -.150E+02 -.244E+02 0.151E+02   -.241E-02 -.121E-01 0.242E-02   0.113E-02 -.401E-02 -.319E-02
   0.923E+01 0.104E-01 -.145E-01   -.923E+01 -.104E-01 0.125E-01   0.634E-02 0.204E-05 -.854E-05   0.241E-02 -.383E-04 0.210E-02
   0.958E+02 -.131E-01 0.958E+02   -.959E+02 0.132E-01 -.959E+02   0.683E-01 0.274E-04 0.682E-01   0.103E-02 -.391E-05 0.449E-02
   0.804E+01 -.408E+01 0.144E-01   -.805E+01 0.401E+01 -.132E-01   0.155E-01 0.713E-01 -.165E-04   0.396E-02 0.393E-02 -.135E-02
   0.804E+01 0.410E+01 0.145E-01   -.805E+01 -.402E+01 -.129E-01   0.155E-01 -.713E-01 -.393E-04   0.399E-02 -.460E-02 -.176E-02
   0.150E+02 -.151E+02 -.244E+02   -.150E+02 0.151E+02 0.244E+02   -.238E-02 0.239E-02 0.122E-01   0.222E-02 0.411E-02 -.357E-02
   0.150E+02 0.151E+02 -.244E+02   -.150E+02 -.151E+02 0.244E+02   -.238E-02 -.240E-02 0.121E-01   0.124E-02 -.360E-02 -.452E-02
   0.150E+02 -.244E+02 0.150E+02   -.150E+02 0.244E+02 -.150E+02   -.243E-02 0.122E-01 -.245E-02   0.270E-02 0.385E-02 0.409E-02
   0.958E+02 -.959E+02 -.137E-02   -.959E+02 0.959E+02 -.441E-03   0.683E-01 -.684E-01 0.457E-04   0.127E-02 0.352E-02 0.152E-02
   0.958E+02 0.958E+02 -.265E-03   -.959E+02 -.959E+02 -.184E-02   0.682E-01 0.684E-01 0.979E-04   0.473E-03 -.352E-02 0.174E-02
   0.150E+02 0.244E+02 0.150E+02   -.150E+02 -.244E+02 -.150E+02   -.245E-02 -.122E-01 -.242E-02   0.298E-02 -.384E-02 0.494E-02
   0.803E+01 0.103E-01 0.408E+01   -.805E+01 -.949E-02 -.402E+01   0.155E-01 -.654E-05 -.713E-01   0.471E-02 -.886E-03 0.203E-02
   0.958E+02 -.160E-01 -.958E+02   -.959E+02 0.164E-01 0.959E+02   0.683E-01 -.123E-04 -.683E-01   0.495E-03 -.245E-03 -.329E-02
   0.870E+01 -.114E-01 0.871E+01   -.853E+01 0.107E-01 -.855E+01   -.166E+00 0.306E-04 -.166E+00   0.123E-02 0.786E-03 0.296E-02
   0.406E+01 0.880E-02 -.804E+01   -.400E+01 -.969E-02 0.806E+01   -.712E-01 0.296E-04 -.154E-01   0.378E-02 0.763E-03 -.365E-02
   0.406E+01 -.806E+01 0.139E-01   -.400E+01 0.807E+01 -.134E-01   -.713E-01 -.155E-01 -.168E-04   0.271E-02 0.250E-02 -.574E-03
   0.406E+01 0.805E+01 0.155E-01   -.400E+01 -.806E+01 -.136E-01   -.713E-01 0.155E-01 -.321E-04   0.209E-02 -.208E-02 -.199E-02
   0.705E+01 -.708E+01 -.706E+01   -.707E+01 0.708E+01 0.707E+01   0.874E-02 -.873E-02 -.869E-02   0.472E-02 0.310E-02 -.467E-02
   0.706E+01 0.709E+01 -.706E+01   -.707E+01 -.709E+01 0.707E+01   0.874E-02 0.870E-02 -.872E-02   0.306E-02 -.252E-02 -.601E-02
   0.870E+01 -.872E+01 -.145E-01   -.853E+01 0.855E+01 0.132E-01   -.166E+00 0.166E+00 -.432E-04   0.264E-02 0.337E-02 0.148E-02
   0.244E+02 -.151E+02 0.150E+02   -.244E+02 0.151E+02 -.150E+02   -.122E-01 0.238E-02 -.242E-02   0.126E-02 0.260E-02 0.437E-02
   0.244E+02 0.151E+02 0.150E+02   -.244E+02 -.150E+02 -.150E+02   -.122E-01 -.239E-02 -.238E-02   0.160E-02 -.207E-02 0.554E-02
   0.870E+01 0.873E+01 -.164E-01   -.854E+01 -.856E+01 0.138E-01   -.166E+00 -.166E+00 -.161E-04   0.202E-02 -.285E-02 0.274E-02
   0.834E+01 0.104E-01 0.163E-01   -.841E+01 -.101E-01 -.147E-01   0.636E-01 -.357E-05 0.554E-05   0.487E-02 -.410E-03 -.178E-02
   0.706E+01 -.707E+01 0.707E+01   -.707E+01 0.708E+01 -.708E+01   0.873E-02 -.873E-02 0.873E-02   0.311E-02 0.207E-02 0.319E-02
   0.705E+01 0.709E+01 0.707E+01   -.706E+01 -.709E+01 -.708E+01   0.873E-02 0.869E-02 0.873E-02   0.285E-02 -.288E-02 0.327E-02
   0.244E+02 -.151E+02 -.150E+02   -.244E+02 0.151E+02 0.151E+02   -.121E-01 0.236E-02 0.239E-02   0.250E-02 0.270E-02 -.379E-02
   0.870E+01 -.101E-01 -.870E+01   -.853E+01 0.108E-01 0.854E+01   -.166E+00 0.623E-05 0.166E+00   0.164E-02 -.594E-03 -.445E-02
   0.244E+02 0.151E+02 -.151E+02   -.244E+02 -.150E+02 0.151E+02   -.121E-01 -.238E-02 0.236E-02   0.142E-02 -.347E-02 -.354E-02
   0.406E+01 0.106E-01 0.803E+01   -.400E+01 -.102E-01 -.804E+01   -.713E-01 0.913E-05 0.154E-01   0.269E-02 -.531E-03 0.544E-02
   0.496E+02 -.117E-01 -.126E-01   -.497E+02 0.124E-01 0.112E-01   0.126E+00 -.775E-05 0.530E-05   0.141E-02 -.541E-03 0.150E-02
   -.958E+02 -.137E-01 -.958E+02   0.959E+02 0.138E-01 0.959E+02   -.682E-01 -.872E-05 -.682E-01   -.150E-02 -.921E-05 -.214E-02
 -----------------------------------------------------------------------------------------------
   -.132E-02 0.648E-03 0.852E-03   0.199E-12 0.101E-12 0.284E-12   0.375E-04 -.101E-04 0.143E-04   0.125E-02 -.610E-03 -.846E-03
 
 
 POSITION                                       TOTAL-FORCE (eV/Angst)
 -----------------------------------------------------------------------------------
     10.33484      0.00001      0.00171         0.000066     -0.000084      0.002048
     10.33484      1.72077      1.72249         0.000050     -0.002143     -0.000149
     10.33484      3.44943     10.33284         0.000045     -0.003174     -0.003455
     10.33484      5.16741      1.72249         0.000078      0.000091     -0.000112
     10.33484      6.88541     10.33284         0.000065      0.003256     -0.003449
     10.33484      8.61409      1.72249         0.000073      0.002063     -0.000109
     10.33484      0.00001      3.44324         0.000044     -0.000121     -0.002120
     10.33484      1.72449      5.17190         0.000051      0.003313     -0.003104
     10.33484      3.44943      3.44696         0.000046     -0.003165      0.003402
     10.33484      5.16741      5.17215         0.000041      0.000125     -0.003034
     10.33484      6.88541      3.44696         0.000082      0.003284      0.003419
     10.33484      8.61037      5.17190         0.000023     -0.003436     -0.003139
     10.33484      0.00001      6.88989         0.000031     -0.000073      0.000071
     10.33484      1.72449      8.60788         0.000064      0.003311      0.003253
     10.33484      3.44967      6.88988         0.000036     -0.003053      0.000092
     10.33484      5.16741      8.60763         0.000040      0.000100      0.003151
     10.33484      6.88517      6.88988         0.000015      0.003134      0.000069
     10.33484      8.61037      8.60788         0.000032     -0.003402      0.003244
      1.72078      0.00001      1.72249        -0.002142     -0.000105     -0.000139
      1.71988      1.71988      0.00261        -0.001334     -0.001353      0.001190
      1.71988      8.61498      0.00261        -0.001320      0.001233      0.001216
      1.72134      3.44348      5.16596         0.002609      0.000061      0.000061
      1.74310      5.16741      3.46558        -0.000439      0.000138     -0.000390
      1.72134      6.89136      5.16596         0.002623      0.000002      0.000018
      1.72449      0.00001      8.60788         0.003286     -0.000048      0.003296
      1.74148      5.16741      6.88988        -0.004617      0.000125      0.000083
      1.72449      3.44943      1.72249         0.003340     -0.003161     -0.000140
      1.72449      6.88541      1.72249         0.003355      0.003268     -0.000107
      1.71988      1.71988      3.44234        -0.001318     -0.001334     -0.001273
      1.71988      8.61498      3.44235        -0.001319      0.001192     -0.001283
      1.74308      1.74307      6.88988        -0.000287     -0.000276      0.000178
      1.72134      3.44347      8.61382         0.002545      0.000053      0.000112
      1.72134      6.89137      8.61382         0.002564     -0.000013      0.000125
      1.74308      8.59179      6.88988        -0.000319      0.000159      0.000163
      1.74311      5.16741     10.31422        -0.000494      0.000118      0.000343
      1.72449      0.00001      5.17190         0.003292     -0.000079     -0.003154
      3.44945      0.00001     10.33284        -0.003307     -0.000079     -0.003412
      3.44945      1.72448      1.72249        -0.003274      0.003314     -0.000157
      3.44945      8.61037      1.72249        -0.003300     -0.003427     -0.000132
      3.44350      3.44348      3.44381        -0.000074      0.000057      0.002720
      3.44350      6.89136      3.44381        -0.000110      0.000043      0.002730
      3.44350      1.72133      8.61382        -0.000106      0.002541      0.000160
      3.45503      3.45499      6.88991         0.005736      0.006016     -0.000170
      3.45501      6.87985      6.88992         0.005894     -0.005916     -0.000262
      3.44349      8.61353      8.61382        -0.000070     -0.002659      0.000158
      3.44350      3.44348      0.00115        -0.000103      0.000014     -0.002756
      3.44969      5.16741      1.72248        -0.003210      0.000116     -0.000100
      3.44350      6.89136      0.00115        -0.000124      0.000060     -0.002757
      3.44945      0.00001      3.44696        -0.003318     -0.000106      0.003354
      3.44350      1.72133      5.16596        -0.000114      0.002606      0.000028
      3.44350      8.61353      5.16596        -0.000068     -0.002772      0.000014
      3.44969      0.00001      6.88989        -0.003206     -0.000072      0.000098
      3.45502      5.16741      8.60228         0.005947      0.000121     -0.005697
      5.16743      0.00001      1.72249        -0.000066     -0.000084     -0.000124
      5.16743      1.74310     10.31422        -0.000057     -0.000566      0.000415
      5.16743      3.44967      1.72248        -0.000064     -0.003089     -0.000130
      5.16743      5.16741     10.31586        -0.000068      0.000105      0.004313
      5.16743      6.88517      1.72248        -0.000092      0.003165     -0.000109
      5.16743      8.59176     10.31422        -0.000095      0.000468      0.000433
      5.16743      0.00001      5.17215        -0.000043     -0.000090     -0.003087
      5.16743      1.74310      3.46558        -0.000043     -0.000534     -0.000480
      5.16744      3.45499      5.17750        -0.000141      0.006085      0.005841
      5.16743      5.16741      3.46395        -0.000050      0.000117     -0.004479
      5.16745      6.87983      5.17750        -0.000205     -0.005867      0.005897
      5.16743      8.59176      3.46558        -0.000069      0.000400     -0.000471
      5.16743      0.00001      8.60763        -0.000071     -0.000081      0.003214
      5.16743      1.74147      6.88988        -0.000049     -0.004636      0.000099
      5.16744      3.45499      8.60228        -0.000158      0.006149     -0.005656
      5.16744      6.87985      8.60228        -0.000166     -0.006041     -0.005710
      5.16743      8.59339      6.88988        -0.000059      0.004474      0.000074
      6.89135      3.44348      0.00115         0.000087      0.000015     -0.002723
      6.88516      5.16741      1.72248         0.003163      0.000088     -0.000133
      6.89135      6.89136      0.00115         0.000074      0.000020     -0.002774
      6.88540      0.00001      3.44696         0.003281     -0.000065      0.003370
      6.89135      1.72133      5.16596         0.000110      0.002562      0.000024
      6.89135      8.61353      5.16596         0.000103     -0.002704      0.000046
      6.88516      0.00001      6.88988         0.003191     -0.000088      0.000074
      6.87982      5.16741      8.60227        -0.005962      0.000127     -0.005733
      6.88540      1.72448      1.72249         0.003228      0.003308     -0.000142
      6.88540      8.61037      1.72249         0.003228     -0.003398     -0.000116
      6.89135      3.44348      3.44381         0.000073      0.000029      0.002692
      6.89135      6.89136      3.44381         0.000064      0.000017      0.002768
      6.89135      1.72133      8.61382         0.000060      0.002517      0.000144
      6.87984      3.45499      6.88992        -0.005861      0.006044     -0.000245
      6.87984      6.87985      6.88992        -0.005869     -0.005938     -0.000270
      6.89136      8.61353      8.61382         0.000051     -0.002659      0.000092
      6.88540      0.00001     10.33284         0.003244     -0.000043     -0.003400
      6.87983      5.16740      5.17750        -0.005986      0.000231      0.005927
      8.59173      5.16741     10.31422         0.000577      0.000081      0.000318
      8.61035      0.00001      5.17190        -0.003232     -0.000100     -0.003135
      8.61035      3.44943      1.72249        -0.003260     -0.003169     -0.000150
      8.61035      6.88541      1.72249        -0.003241      0.003253     -0.000122
      8.61496      1.71988      3.44235         0.001368     -0.001346     -0.001276
      8.61496      8.61498      3.44235         0.001404      0.001234     -0.001247
      8.59176      1.74307      6.88988         0.000366     -0.000282      0.000159
      8.61350      3.44347      8.61382        -0.002452      0.000083      0.000112
      8.61350      6.89137      8.61382        -0.002473     -0.000020      0.000080
      8.59176      8.59179      6.88987         0.000394      0.000153      0.000138
      8.61406      0.00001      1.72249         0.002205     -0.000083     -0.000119
      8.61496      1.71988      0.00261         0.001403     -0.001342      0.001215
      8.61496      8.61498      0.00261         0.001431      0.001257      0.001207
      8.61350      3.44348      5.16596        -0.002503      0.000039      0.000070
      8.59173      5.16741      3.46558         0.000553      0.000103     -0.000388
      8.61350      6.89136      5.16596        -0.002545      0.000032      0.000070
      8.61035      0.00001      8.60788        -0.003202     -0.000069      0.003249
      8.59336      5.16741      6.88988         0.004658      0.000130      0.000098
      3.45506      5.16741      5.17751         0.005666      0.000143      0.005885
 -----------------------------------------------------------------------------------
    total drift:                               -0.000032      0.000028      0.000020


--------------------------------------------------------------------------------------------------------



  FREE ENERGIE OF THE ION-ELECTRON SYSTEM (eV)
  ---------------------------------------------------
  free  energy   TOTEN  =      -869.03182939 eV

  energy  without entropy=     -868.96942314  energy(sigma->0) =     -869.01102730
 


--------------------------------------------------------------------------------------------------------


    POTLOK:  cpu time    0.2865: real time    0.2866


--------------------------------------------------------------------------------------------------------


     LOOP+:  cpu time 8511.5777: real time 8512.2326
    4ORBIT:  cpu time    0.0000: real time    0.0000

 total amount of memory used by VASP MPI-rank0   822563. kBytes
=======================================================================

   base      :      30000. kBytes
   nonlr-proj:      31162. kBytes
   fftplans  :      15435. kBytes
   grid      :      21835. kBytes
   one-center:        419. kBytes
   wavefun   :     723712. kBytes
 
  
  
 General timing and accounting informations for this job:
 ========================================================
  
                  Total CPU time used (sec):     8565.863
                            User time (sec):     8557.977
                          System time (sec):        7.886
                         Elapsed time (sec):     8566.521
  
                   Maximum memory used (kb):      935000.
                   Average memory used (kb):           0.
  
                          Minor page faults:       670693
                          Major page faults:            3
                 Voluntary context switches:          861
