 108 108   0   0
  0.1022088E+02  0.1033485E-08  0.1033485E-08  0.1033485E-08  0.5000000E-15
  1.000000000000000E-004
  CAR 
 Opt                                     
      9.81735113     -4.00055504  301      6.80696509      1.00000000
     -4.001  0.0000E+00  0.0000E+00
     -3.954  0.0000E+00  0.0000E+00
     -3.908  0.0000E+00  0.0000E+00
     -3.862  0.0000E+00  0.0000E+00
     -3.816  0.0000E+00  0.0000E+00
     -3.770  0.0000E+00  0.0000E+00
     -3.724  0.0000E+00  0.0000E+00
     -3.678  0.0000E+00  0.0000E+00
     -3.632 -0.3660E-31 -0.1686E-32
     -3.586 -0.2067E-29 -0.9690E-31
     -3.540 -0.7849E-28 -0.3712E-29
     -3.494 -0.2574E-26 -0.1223E-27
     -3.448 -0.7605E-25 -0.3625E-26
     -3.402 -0.2023E-23 -0.9679E-25
     -3.356 -0.4843E-22 -0.2327E-23
     -3.310 -0.1044E-20 -0.5040E-22
     -3.264 -0.2025E-19 -0.9830E-21
     -3.218 -0.3536E-18 -0.1727E-19
     -3.171 -0.5487E-17 -0.2700E-18
     -3.125 -0.7673E-16 -0.3804E-17
     -3.079 -0.9678E-15 -0.4838E-16
     -3.033 -0.1107E-13 -0.5582E-15
     -2.987 -0.1138E-12 -0.5798E-14
     -2.941 -0.1052E-11 -0.5424E-13
     -2.895 -0.8741E-11 -0.4569E-12
     -2.849 -0.6531E-10 -0.3465E-11
     -2.803 -0.4385E-09 -0.2366E-10
     -2.757 -0.2644E-08 -0.1455E-09
     -2.711 -0.1432E-07 -0.8048E-09
     -2.665 -0.6954E-07 -0.4008E-08
     -2.619 -0.3028E-06 -0.1795E-07
     -2.573 -0.1181E-05 -0.7234E-07
     -2.527 -0.4118E-05 -0.2620E-06
     -2.481 -0.1282E-04 -0.8527E-06
     -2.435 -0.3555E-04 -0.2490E-05
     -2.388 -0.8743E-04 -0.6518E-05
     -2.342 -0.1895E-03 -0.1525E-04
     -2.296 -0.3584E-03 -0.3176E-04
     -2.250 -0.5792E-03 -0.5843E-04
     -2.204 -0.7643E-03 -0.9364E-04
     -2.158 -0.7156E-03 -0.1266E-03
     -2.112 -0.1268E-03 -0.1324E-03
     -2.066  0.1343E-02 -0.7057E-04
     -2.020  0.3936E-02  0.1107E-03
     -1.974  0.7660E-02  0.4635E-03
     -1.928  0.1225E-01  0.1028E-02
     -1.882  0.1724E-01  0.1822E-02
     -1.836  0.2217E-01  0.2843E-02
     -1.790  0.2670E-01  0.4072E-02
     -1.744  0.3067E-01  0.5485E-02
     -1.698  0.3406E-01  0.7054E-02
     -1.652  0.3697E-01  0.8757E-02
     -1.605  0.3959E-01  0.1058E-01
     -1.559  0.4214E-01  0.1252E-01
     -1.513  0.4478E-01  0.1458E-01
     -1.467  0.4739E-01  0.1677E-01
     -1.421  0.4973E-01  0.1906E-01
     -1.375  0.5164E-01  0.2144E-01
     -1.329  0.5332E-01  0.2389E-01
     -1.283  0.5526E-01  0.2644E-01
     -1.237  0.5778E-01  0.2910E-01
     -1.191  0.6070E-01  0.3189E-01
     -1.145  0.6338E-01  0.3481E-01
     -1.099  0.6527E-01  0.3782E-01
     -1.053  0.6640E-01  0.4088E-01
     -1.007  0.6735E-01  0.4398E-01
     -0.961  0.6882E-01  0.4715E-01
     -0.915  0.7118E-01  0.5043E-01
     -0.868  0.7431E-01  0.5385E-01
     -0.822  0.7767E-01  0.5743E-01
     -0.776  0.8056E-01  0.6114E-01
     -0.730  0.8233E-01  0.6493E-01
     -0.684  0.8281E-01  0.6874E-01
     -0.638  0.8262E-01  0.7255E-01
     -0.592  0.8302E-01  0.7637E-01
     -0.546  0.8523E-01  0.8030E-01
     -0.500  0.8947E-01  0.8442E-01
     -0.454  0.9462E-01  0.8878E-01
     -0.408  0.9881E-01  0.9333E-01
     -0.362  0.1006E+00  0.9796E-01
     -0.316  0.1001E+00  0.1026E+00
     -0.270  0.9882E-01  0.1071E+00
     -0.224  0.9866E-01  0.1117E+00
     -0.178  0.1009E+00  0.1163E+00
     -0.132  0.1054E+00  0.1212E+00
     -0.085  0.1107E+00  0.1263E+00
     -0.039  0.1151E+00  0.1316E+00
      0.007  0.1179E+00  0.1370E+00
      0.053  0.1192E+00  0.1425E+00
      0.099  0.1201E+00  0.1480E+00
      0.145  0.1211E+00  0.1536E+00
      0.191  0.1225E+00  0.1592E+00
      0.237  0.1241E+00  0.1650E+00
      0.283  0.1261E+00  0.1708E+00
      0.329  0.1293E+00  0.1767E+00
      0.375  0.1341E+00  0.1829E+00
      0.421  0.1401E+00  0.1894E+00
      0.467  0.1459E+00  0.1961E+00
      0.513  0.1496E+00  0.2030E+00
      0.559  0.1504E+00  0.2099E+00
      0.605  0.1491E+00  0.2168E+00
      0.651  0.1479E+00  0.2236E+00
      0.698  0.1497E+00  0.2305E+00
      0.744  0.1557E+00  0.2376E+00
      0.790  0.1648E+00  0.2452E+00
      0.836  0.1742E+00  0.2532E+00
      0.882  0.1807E+00  0.2616E+00
      0.928  0.1829E+00  0.2700E+00
      0.974  0.1820E+00  0.2784E+00
      1.020  0.1814E+00  0.2867E+00
      1.066  0.1844E+00  0.2952E+00
      1.112  0.1923E+00  0.3041E+00
      1.158  0.2034E+00  0.3135E+00
      1.204  0.2140E+00  0.3233E+00
      1.250  0.2213E+00  0.3335E+00
      1.296  0.2249E+00  0.3439E+00
      1.342  0.2274E+00  0.3543E+00
      1.388  0.2326E+00  0.3651E+00
      1.434  0.2424E+00  0.3762E+00
      1.481  0.2556E+00  0.3880E+00
      1.527  0.2684E+00  0.4004E+00
      1.573  0.2779E+00  0.4132E+00
      1.619  0.2845E+00  0.4263E+00
      1.665  0.2931E+00  0.4398E+00
      1.711  0.3112E+00  0.4541E+00
      1.757  0.3456E+00  0.4700E+00
      1.803  0.4007E+00  0.4885E+00
      1.849  0.4775E+00  0.5105E+00
      1.895  0.5734E+00  0.5369E+00
      1.941  0.6819E+00  0.5683E+00
      1.987  0.7925E+00  0.6048E+00
      2.033  0.8922E+00  0.6459E+00
      2.079  0.9699E+00  0.6906E+00
      2.125  0.1020E+01  0.7376E+00
      2.171  0.1046E+01  0.7857E+00
      2.218  0.1055E+01  0.8343E+00
      2.264  0.1056E+01  0.8829E+00
      2.310  0.1056E+01  0.9316E+00
      2.356  0.1058E+01  0.9803E+00
      2.402  0.1063E+01  0.1029E+01
      2.448  0.1072E+01  0.1079E+01
      2.494  0.1087E+01  0.1129E+01
      2.540  0.1111E+01  0.1180E+01
      2.586  0.1146E+01  0.1233E+01
      2.632  0.1196E+01  0.1288E+01
      2.678  0.1256E+01  0.1346E+01
      2.724  0.1320E+01  0.1406E+01
      2.770  0.1382E+01  0.1470E+01
      2.816  0.1441E+01  0.1536E+01
      2.862  0.1496E+01  0.1605E+01
      2.908  0.1548E+01  0.1677E+01
      2.954  0.1595E+01  0.1750E+01
      3.001  0.1634E+01  0.1825E+01
      3.047  0.1663E+01  0.1902E+01
      3.093  0.1679E+01  0.1979E+01
      3.139  0.1679E+01  0.2057E+01
      3.185  0.1665E+01  0.2133E+01
      3.231  0.1640E+01  0.2209E+01
      3.277  0.1607E+01  0.2283E+01
      3.323  0.1571E+01  0.2355E+01
      3.369  0.1536E+01  0.2426E+01
      3.415  0.1507E+01  0.2495E+01
      3.461  0.1486E+01  0.2564E+01
      3.507  0.1476E+01  0.2632E+01
      3.553  0.1474E+01  0.2700E+01
      3.599  0.1476E+01  0.2768E+01
      3.645  0.1474E+01  0.2836E+01
      3.691  0.1463E+01  0.2903E+01
      3.737  0.1443E+01  0.2969E+01
      3.784  0.1413E+01  0.3035E+01
      3.830  0.1376E+01  0.3098E+01
      3.876  0.1335E+01  0.3159E+01
      3.922  0.1294E+01  0.3219E+01
      3.968  0.1262E+01  0.3277E+01
      4.014  0.1242E+01  0.3334E+01
      4.060  0.1239E+01  0.3391E+01
      4.106  0.1254E+01  0.3449E+01
      4.152  0.1290E+01  0.3509E+01
      4.198  0.1345E+01  0.3571E+01
      4.244  0.1414E+01  0.3636E+01
      4.290  0.1488E+01  0.3704E+01
      4.336  0.1560E+01  0.3776E+01
      4.382  0.1622E+01  0.3851E+01
      4.428  0.1671E+01  0.3928E+01
      4.474  0.1711E+01  0.4007E+01
      4.520  0.1747E+01  0.4087E+01
      4.567  0.1783E+01  0.4169E+01
      4.613  0.1815E+01  0.4253E+01
      4.659  0.1835E+01  0.4337E+01
      4.705  0.1841E+01  0.4422E+01
      4.751  0.1840E+01  0.4507E+01
      4.797  0.1851E+01  0.4592E+01
      4.843  0.1891E+01  0.4679E+01
      4.889  0.1965E+01  0.4770E+01
      4.935  0.2060E+01  0.4865E+01
      4.981  0.2155E+01  0.4964E+01
      5.027  0.2225E+01  0.5066E+01
      5.073  0.2260E+01  0.5170E+01
      5.119  0.2264E+01  0.5275E+01
      5.165  0.2259E+01  0.5379E+01
      5.211  0.2267E+01  0.5483E+01
      5.257  0.2307E+01  0.5589E+01
      5.304  0.2385E+01  0.5699E+01
      5.350  0.2488E+01  0.5814E+01
      5.396  0.2588E+01  0.5933E+01
      5.442  0.2649E+01  0.6055E+01
      5.488  0.2642E+01  0.6177E+01
      5.534  0.2553E+01  0.6294E+01
      5.580  0.2396E+01  0.6405E+01
      5.626  0.2204E+01  0.6506E+01
      5.672  0.2014E+01  0.6599E+01
      5.718  0.1853E+01  0.6684E+01
      5.764  0.1731E+01  0.6764E+01
      5.810  0.1643E+01  0.6840E+01
      5.856  0.1578E+01  0.6912E+01
      5.902  0.1528E+01  0.6983E+01
      5.948  0.1491E+01  0.7052E+01
      5.994  0.1469E+01  0.7119E+01
      6.040  0.1466E+01  0.7187E+01
      6.087  0.1484E+01  0.7255E+01
      6.133  0.1524E+01  0.7325E+01
      6.179  0.1584E+01  0.7398E+01
      6.225  0.1662E+01  0.7475E+01
      6.271  0.1751E+01  0.7555E+01
      6.317  0.1843E+01  0.7640E+01
      6.363  0.1933E+01  0.7729E+01
      6.409  0.2013E+01  0.7822E+01
      6.455  0.2080E+01  0.7918E+01
      6.501  0.2129E+01  0.8016E+01
      6.547  0.2152E+01  0.8115E+01
      6.593  0.2146E+01  0.8214E+01
      6.639  0.2109E+01  0.8311E+01
      6.685  0.2050E+01  0.8405E+01
      6.731  0.1981E+01  0.8497E+01
      6.777  0.1914E+01  0.8585E+01
      6.823  0.1858E+01  0.8670E+01
      6.870  0.1815E+01  0.8754E+01
      6.916  0.1786E+01  0.8836E+01
      6.962  0.1765E+01  0.8918E+01
      7.008  0.1750E+01  0.8998E+01
      7.054  0.1739E+01  0.9078E+01
      7.100  0.1733E+01  0.9158E+01
      7.146  0.1735E+01  0.9238E+01
      7.192  0.1745E+01  0.9318E+01
      7.238  0.1763E+01  0.9400E+01
      7.284  0.1789E+01  0.9482E+01
      7.330  0.1821E+01  0.9566E+01
      7.376  0.1860E+01  0.9651E+01
      7.422  0.1906E+01  0.9739E+01
      7.468  0.1954E+01  0.9829E+01
      7.514  0.1988E+01  0.9921E+01
      7.560  0.1983E+01  0.1001E+02
      7.606  0.1910E+01  0.1010E+02
      7.653  0.1744E+01  0.1018E+02
      7.699  0.1481E+01  0.1025E+02
      7.745  0.1146E+01  0.1030E+02
      7.791  0.7860E+00  0.1034E+02
      7.837  0.4576E+00  0.1036E+02
      7.883  0.2038E+00  0.1037E+02
      7.929  0.4207E-01  0.1037E+02
      7.975 -0.3707E-01  0.1037E+02
      8.021 -0.5896E-01  0.1037E+02
      8.067 -0.5124E-01  0.1036E+02
      8.113 -0.3447E-01  0.1036E+02
      8.159 -0.1944E-01  0.1036E+02
      8.205 -0.9493E-02  0.1036E+02
      8.251 -0.4076E-02  0.1036E+02
      8.297 -0.1552E-02  0.1036E+02
      8.343 -0.5273E-03  0.1036E+02
      8.390 -0.1603E-03  0.1036E+02
      8.436 -0.4374E-04  0.1036E+02
      8.482 -0.1073E-04  0.1036E+02
      8.528 -0.2367E-05  0.1036E+02
      8.574 -0.4706E-06  0.1036E+02
      8.620 -0.8431E-07  0.1036E+02
      8.666 -0.1362E-07  0.1036E+02
      8.712 -0.1984E-08  0.1036E+02
      8.758 -0.2607E-09  0.1036E+02
      8.804 -0.3090E-10  0.1036E+02
      8.850 -0.3303E-11  0.1036E+02
      8.896 -0.3184E-12  0.1036E+02
      8.942 -0.2765E-13  0.1036E+02
      8.988 -0.2178E-14  0.1036E+02
      9.034 -0.1282E-15  0.1036E+02
      9.080 -0.6746E-17  0.1036E+02
      9.126  0.0000E+00  0.1036E+02
      9.173  0.0000E+00  0.1036E+02
      9.219  0.0000E+00  0.1036E+02
      9.265  0.0000E+00  0.1036E+02
      9.311  0.0000E+00  0.1036E+02
      9.357  0.0000E+00  0.1036E+02
      9.403  0.0000E+00  0.1036E+02
      9.449  0.0000E+00  0.1036E+02
      9.495  0.0000E+00  0.1036E+02
      9.541  0.0000E+00  0.1036E+02
      9.587  0.0000E+00  0.1036E+02
      9.633  0.0000E+00  0.1036E+02
      9.679  0.0000E+00  0.1036E+02
      9.725  0.0000E+00  0.1036E+02
      9.771  0.0000E+00  0.1036E+02
      9.817  0.0000E+00  0.1036E+02
