  108  108  100    1
  0.1022088E+02  0.1033485E-08  0.1033485E-08  0.1033485E-08  0.5000000E-15
  1.000000000000000E-004
  CAR 
 Opt                                     
    864     20    518
 
  0.0000000E+00  0.0000000E+00  0.0000000E+00  0.2915452E-02
    1       -2.000555   1.000000
    2       -0.508890   1.000000
    3       -0.508890   1.000000
    4       -0.508890   1.000000
    5       -0.507816   1.000000
    6       -0.507816   1.000000
    7       -0.507816   1.000000
    8        0.782056   1.000000
    9        0.782056   1.000000
   10        0.782056   1.000000
   11        0.783053   1.000000
   12        0.783053   1.000000
   13        0.783053   1.000000
   14        0.783053   1.000000
   15        0.783053   1.000000
   16        0.783053   1.000000
   17        0.784050   1.000000
   18        0.784050   1.000000
   19        0.784050   1.000000
   20        1.421532   1.000000
   21        1.422196   1.000000
   22        1.422196   1.000000
   23        1.422196   1.000000
   24        1.422860   1.000000
   25        1.422860   1.000000
   26        1.422860   1.000000
   27        1.423523   1.000000
   28        1.866191   1.000000
   29        1.866191   1.000000
   30        1.866191   1.000000
   31        1.898675   1.000000
   32        1.898675   1.000000
   33        1.898675   1.000000
   34        1.899304   1.000000
   35        1.899304   1.000000
   36        1.899304   1.000000
   37        2.593581   1.000000
   38        2.593581   1.000000
   39        2.593581   1.000000
   40        2.593584   1.000000
   41        2.593585   1.000000
   42        2.593585   1.000000
   43        2.593586   1.000000
   44        2.593586   1.000000
   45        2.593586   1.000000
   46        2.593594   1.000000
   47        2.593594   1.000000
   48        2.593594   1.000000
   49        2.593756   1.000000
   50        2.593756   1.000000
   51        2.593756   1.000000
   52        2.593763   1.000000
   53        2.593763   1.000000
   54        2.593763   1.000000
   55        2.593764   1.000000
   56        2.593764   1.000000
   57        2.593765   1.000000
   58        2.593768   1.000000
   59        2.593768   1.000000
   60        2.593768   1.000000
   61        2.608114   1.000000
   62        2.608114   1.000000
   63        2.608114   1.000000
   64        2.667837   1.000000
   65        2.667837   1.000000
   66        2.667837   1.000000
   67        2.667837   1.000000
   68        2.667837   1.000000
   69        2.667837   1.000000
   70        2.668801   1.000000
   71        2.668801   1.000000
   72        2.668801   1.000000
   73        2.668802   1.000000
   74        2.668802   1.000000
   75        2.668802   1.000000
   76        2.881773   1.000000
   77        2.881773   1.000000
   78        2.881773   1.000000
   79        2.881773   1.000000
   80        2.881773   1.000000
   81        2.881773   1.000000
   82        2.882251   1.000000
   83        2.882251   1.000000
   84        2.882251   1.000000
   85        2.882251   1.000000
   86        2.882251   1.000000
   87        2.882251   1.000000
   88        2.882712   1.000000
   89        2.882712   1.000000
   90        2.882712   1.000000
   91        2.882712   1.000000
   92        2.882712   1.000000
   93        2.882712   1.000000
   94        2.883190   1.000000
   95        2.883190   1.000000
   96        2.883190   1.000000
   97        2.883190   1.000000
   98        2.883190   1.000000
   99        2.883190   1.000000
  100        3.186462   1.000000
  101        3.186462   1.000000
  102        3.186462   1.000000
  103        3.187496   1.000000
  104        3.187496   1.000000
  105        3.187496   1.000000
  106        3.314073   1.000000
  107        3.314073   1.000000
  108        3.314073   1.000000
  109        3.314194   1.000000
  110        3.314194   1.000000
  111        3.314194   1.000000
  112        3.314194   1.000000
  113        3.314194   1.000000
  114        3.314194   1.000000
  115        3.314310   1.000000
  116        3.314310   1.000000
  117        3.314311   1.000000
  118        3.324057   1.000000
  119        3.324057   1.000000
  120        3.324057   1.000000
  121        3.324057   1.000000
  122        3.324057   1.000000
  123        3.324057   1.000000
  124        3.325020   1.000000
  125        3.325020   1.000000
  126        3.325020   1.000000
  127        3.325020   1.000000
  128        3.325020   1.000000
  129        3.325020   1.000000
  130        3.570775   1.000000
  131        3.570775   1.000000
  132        3.570776   1.000000
  133        3.570787   1.000000
  134        3.570787   1.000000
  135        3.570787   1.000000
  136        3.570787   1.000000
  137        3.570787   1.000000
  138        3.570787   1.000000
  139        3.570805   1.000000
  140        3.570805   1.000000
  141        3.570805   1.000000
  142        3.693459   1.000000
  143        3.693459   1.000000
  144        3.693459   1.000000
  145        3.693460   1.000000
  146        3.693460   1.000000
  147        3.693460   1.000000
  148        3.694311   1.000000
  149        3.694311   1.000000
  150        3.694311   1.000000
  151        3.694312   1.000000
  152        3.694312   1.000000
  153        3.694312   1.000000
  154        3.694397   1.000000
  155        3.694397   1.000000
  156        3.694397   1.000000
  157        3.694397   1.000000
  158        3.694397   1.000000
  159        3.694397   1.000000
  160        3.695249   1.000000
  161        3.695249   1.000000
  162        3.695249   1.000000
  163        3.695249   1.000000
  164        3.695249   1.000000
  165        3.695249   1.000000
  166        4.299588   1.000000
  167        4.299588   1.000000
  168        4.299588   1.000000
  169        4.300377   1.000000
  170        4.300377   1.000000
  171        4.300377   1.000000
  172        4.300377   1.000000
  173        4.300377   1.000000
  174        4.300377   1.000000
  175        4.300446   1.000000
  176        4.300446   1.000000
  177        4.300446   1.000000
  178        4.301167   1.000000
  179        4.301167   1.000000
  180        4.301167   1.000000
  181        4.301235   1.000000
  182        4.301235   1.000000
  183        4.301236   1.000000
  184        4.301236   1.000000
  185        4.301236   1.000000
  186        4.301236   1.000000
  187        4.302025   1.000000
  188        4.302025   1.000000
  189        4.302025   1.000000
  190        4.351314   1.000000
  191        4.351314   1.000000
  192        4.351314   1.000000
  193        4.351488   1.000000
  194        4.351488   1.000000
  195        4.351488   1.000000
  196        4.351488   1.000000
  197        4.351488   1.000000
  198        4.351488   1.000000
  199        4.351664   1.000000
  200        4.351664   1.000000
  201        4.351664   1.000000
  202        4.464589   1.000000
  203        4.464589   1.000000
  204        4.464589   1.000000
  205        4.465228   1.000000
  206        4.465228   1.000000
  207        4.465228   1.000000
  208        4.641614   1.000000
  209        4.641614   1.000000
  210        4.641614   1.000000
  211        4.641615   1.000000
  212        4.641615   1.000000
  213        4.641615   1.000000
  214        4.641718   1.000000
  215        4.641718   1.000000
  216        4.641719   1.000000
  217        4.641719   1.000000
  218        4.641720   1.000000
  219        4.641720   1.000000
  220        4.641759   1.000000
  221        4.641759   1.000000
  222        4.641759   1.000000
  223        4.641759   1.000000
  224        4.641759   1.000000
  225        4.641759   1.000000
  226        4.641863   1.000000
  227        4.641863   1.000000
  228        4.641863   1.000000
  229        4.641863   1.000000
  230        4.641863   1.000000
  231        4.641863   1.000000
  232        4.874851   1.000000
  233        4.874851   1.000000
  234        4.874852   1.000000
  235        4.875291   1.000000
  236        4.875291   1.000000
  237        4.875291   1.000000
  238        4.875291   1.000000
  239        4.875291   1.000000
  240        4.875291   1.000000
  241        4.875730   1.000000
  242        4.875730   1.000000
  243        4.875730   1.000000
  244        5.040460   1.000000
  245        5.040478   1.000000
  246        5.040478   1.000000
  247        5.040478   1.000000
  248        5.040496   1.000000
  249        5.040496   1.000000
  250        5.040496   1.000000
  251        5.040516   1.000000
  252        5.178007   1.000000
  253        5.178007   1.000000
  254        5.178007   1.000000
  255        5.230754   1.000000
  256        5.230754   1.000000
  257        5.230754   1.000000
  258        5.230962   1.000000
  259        5.230963   1.000000
  260        5.230963   1.000000
  261        5.230963   1.000000
  262        5.230963   1.000000
  263        5.230963   1.000000
  264        5.230995   1.000000
  265        5.230995   1.000000
  266        5.230995   1.000000
  267        5.231172   1.000000
  268        5.231172   1.000000
  269        5.231172   1.000000
  270        5.231204   1.000000
  271        5.231204   1.000000
  272        5.231205   1.000000
  273        5.231205   1.000000
  274        5.231205   1.000000
  275        5.231205   1.000000
  276        5.231414   1.000000
  277        5.231414   1.000000
  278        5.231414   1.000000
  279        5.302909   1.000000
  280        5.302909   1.000000
  281        5.302921   1.000000
  282        5.302921   1.000000
  283        5.302921   1.000000
  284        5.303148   1.000000
  285        5.303148   1.000000
  286        5.303148   1.000000
  287        5.303349   1.000000
  288        5.303349   1.000000
  289        5.303349   1.000000
  290        5.303574   1.000000
  291        5.303574   1.000000
  292        5.303574   1.000000
  293        5.303586   1.000000
  294        5.303586   1.000000
  295        5.327674   1.000000
  296        5.327674   1.000000
  297        5.327674   1.000000
  298        5.327825   1.000000
  299        5.327825   1.000000
  300        5.327825   1.000000
  301        5.327825   1.000000
  302        5.327825   1.000000
  303        5.327825   1.000000
  304        5.327976   1.000000
  305        5.327976   1.000000
  306        5.327976   1.000000
  307        5.442578   1.000000
  308        5.442578   1.000000
  309        5.442578   1.000000
  310        5.442578   1.000000
  311        5.442578   1.000000
  312        5.442578   1.000000
  313        5.442701   1.000000
  314        5.442701   1.000000
  315        5.442701   1.000000
  316        5.442704   1.000000
  317        5.442704   1.000000
  318        5.442704   1.000000
  319        5.680893   1.000000
  320        5.680893   1.000000
  321        5.680894   1.000000
  322        5.681152   1.000000
  323        5.681152   1.000000
  324        5.681152   1.000000
  325        5.681354   1.000000
  326        5.681354   1.000000
  327        5.681354   1.000000
  328        5.681354   1.000000
  329        5.681354   1.000000
  330        5.681354   1.000000
  331        5.681613   1.000000
  332        5.681613   1.000000
  333        5.681613   1.000000
  334        5.681613   1.000000
  335        5.681613   1.000000
  336        5.681613   1.000000
  337        5.681815   1.000000
  338        5.681815   1.000000
  339        5.681815   1.000000
  340        5.682073   1.000000
  341        5.682073   1.000000
  342        5.682073   1.000000
  343        5.741661   1.000000
  344        5.741661   1.000000
  345        5.741661   1.000000
  346        5.741661   1.000000
  347        5.741661   1.000000
  348        5.741661   1.000000
  349        5.742595   1.000000
  350        5.742595   1.000000
  351        5.742595   1.000000
  352        5.742595   1.000000
  353        5.742595   1.000000
  354        5.742595   1.000000
  355        5.949988   1.000000
  356        5.949988   1.000000
  357        5.949988   1.000000
  358        5.950090   1.000000
  359        5.950090   1.000000
  360        5.950090   1.000000
  361        5.950090   1.000000
  362        5.950090   1.000000
  363        5.950090   1.000000
  364        5.950191   1.000000
  365        5.950191   1.000000
  366        5.950191   1.000000
  367        6.110835   1.000005
  368        6.110835   1.000005
  369        6.110835   1.000005
  370        6.111375   1.000005
  371        6.111375   1.000005
  372        6.111375   1.000005
  373        6.125756   1.000008
  374        6.125756   1.000008
  375        6.125756   1.000008
  376        6.126480   1.000008
  377        6.126480   1.000008
  378        6.126480   1.000008
  379        6.126480   1.000008
  380        6.126480   1.000008
  381        6.126480   1.000008
  382        6.127203   1.000008
  383        6.127203   1.000008
  384        6.127203   1.000008
  385        6.533919   1.032964
  386        6.533919   1.032964
  387        6.533919   1.032964
  388        6.534630   1.033077
  389        6.534630   1.033077
  390        6.534630   1.033077
  391        6.534633   1.033077
  392        6.534633   1.033077
  393        6.534633   1.033077
  394        6.535343   1.033187
  395        6.535343   1.033187
  396        6.535348   1.033188
  397        6.619485   1.017352
  398        6.619485   1.017352
  399        6.619485   1.017352
  400        6.619507   1.017336
  401        6.619511   1.017333
  402        6.619511   1.017333
  403        6.737196   0.776248
  404        6.737196   0.776248
  405        6.737196   0.776248
  406        6.737196   0.776248
  407        6.737196   0.776248
  408        6.737196   0.776248
  409        6.737873   0.773912
  410        6.737873   0.773912
  411        6.737873   0.773912
  412        6.737873   0.773912
  413        6.737873   0.773912
  414        6.737873   0.773912
  415        6.737886   0.773867
  416        6.737886   0.773867
  417        6.737886   0.773867
  418        6.737888   0.773860
  419        6.737888   0.773860
  420        6.737888   0.773860
  421        6.737899   0.773821
  422        6.737899   0.773821
  423        6.738563   0.771519
  424        6.738564   0.771519
  425        6.738564   0.771519
  426        6.738564   0.771517
  427        6.738564   0.771517
  428        6.738564   0.771517
  429        6.958712   0.021276
  430        6.958712   0.021276
  431        6.958712   0.021276
  432        6.958712   0.021275
  433        6.958712   0.021275
  434        6.958712   0.021275
  435        6.959335   0.020366
  436        6.959335   0.020366
  437        6.959335   0.020366
  438        6.959335   0.020366
  439        6.959335   0.020366
  440        6.959335   0.020366
  441        6.987892  -0.012191
  442        6.987892  -0.012191
  443        6.987892  -0.012191
  444        6.988832  -0.012981
  445        6.988832  -0.012981
  446        6.988832  -0.012981
  447        7.147108  -0.018516
  448        7.147108  -0.018516
  449        7.147108  -0.018516
  450        7.147109  -0.018516
  451        7.147109  -0.018516
  452        7.147109  -0.018516
  453        7.147703  -0.018387
  454        7.147703  -0.018387
  455        7.147703  -0.018387
  456        7.147703  -0.018387
  457        7.147703  -0.018387
  458        7.147703  -0.018387
  459        7.148968  -0.018113
  460        7.148968  -0.018113
  461        7.148968  -0.018113
  462        7.148968  -0.018113
  463        7.148968  -0.018113
  464        7.148968  -0.018113
  465        7.149434  -0.018013
  466        7.149434  -0.018013
  467        7.149434  -0.018013
  468        7.149435  -0.018012
  469        7.149435  -0.018012
  470        7.149435  -0.018012
  471        7.149616  -0.017973
  472        7.149616  -0.017973
  473        7.149616  -0.017973
  474        7.149617  -0.017973
  475        7.149617  -0.017973
  476        7.149617  -0.017973
  477        7.150083  -0.017873
  478        7.150083  -0.017873
  479        7.150083  -0.017873
  480        7.150083  -0.017873
  481        7.150083  -0.017873
  482        7.150083  -0.017873
  483        7.275044  -0.002293
  484        7.275044  -0.002293
  485        7.275058  -0.002292
  486        7.275058  -0.002292
  487        7.275058  -0.002292
  488        7.275292  -0.002281
  489        7.275292  -0.002281
  490        7.275293  -0.002281
  491        7.275498  -0.002272
  492        7.275498  -0.002272
  493        7.275498  -0.002272
  494        7.275732  -0.002261
  495        7.275732  -0.002261
  496        7.275732  -0.002261
  497        7.275746  -0.002260
  498        7.275746  -0.002260
  499        7.410602  -0.000084
  500        7.410747  -0.000084
  501        7.411295  -0.000083
  502        7.412108  -0.000081
  503        7.412762  -0.000079
  504        7.413706  -0.000077
  505        7.419195  -0.000066
  506        7.421868  -0.000061
  507        7.424899  -0.000056
  508        7.440109  -0.000036
  509        7.445879  -0.000030
  510        7.466918  -0.000016
  511        7.513617  -0.000003
  512        7.516878  -0.000003
  513        7.526139  -0.000002
  514        7.543911  -0.000001
  515        7.569761  -0.000000
  516        7.581509  -0.000000
  517        7.593139  -0.000000
  518        7.601387  -0.000000
 
  0.1428571E+00  0.0000000E+00  0.0000000E+00  0.1749271E-01
    1       -1.968123   1.000000
    2       -0.882935   1.000000
    3       -0.480423   1.000000
    4       -0.480423   1.000000
    5       -0.479350   1.000000
    6       -0.479350   1.000000
    7       -0.099397   1.000000
    8        0.461814   1.000000
    9        0.461814   1.000000
   10        0.462833   1.000000
   11        0.462833   1.000000
   12        0.797630   1.000000
   13        0.798620   1.000000
   14        0.798620   1.000000
   15        0.799610   1.000000
   16        1.130734   1.000000
   17        1.130734   1.000000
   18        1.131704   1.000000
   19        1.131704   1.000000
   20        1.273464   1.000000
   21        1.274212   1.000000
   22        1.274212   1.000000
   23        1.274960   1.000000
   24        1.578773   1.000000
   25        1.579346   1.000000
   26        1.579346   1.000000
   27        1.579918   1.000000
   28        1.744288   1.000000
   29        1.874358   1.000000
   30        1.886371   1.000000
   31        1.886371   1.000000
   32        1.922184   1.000000
   33        1.922184   1.000000
   34        1.922811   1.000000
   35        1.922811   1.000000
   36        1.970558   1.000000
   37        2.422758   1.000000
   38        2.422852   1.000000
   39        2.422852   1.000000
   40        2.422947   1.000000
   41        2.495796   1.000000
   42        2.495797   1.000000
   43        2.553478   1.000000
   44        2.553478   1.000000
   45        2.553496   1.000000
   46        2.553496   1.000000
   47        2.553606   1.000000
   48        2.553606   1.000000
   49        2.553623   1.000000
   50        2.553623   1.000000
   51        2.620674   1.000000
   52        2.622759   1.000000
   53        2.622759   1.000000
   54        2.643247   1.000000
   55        2.643247   1.000000
   56        2.643291   1.000000
   57        2.643291   1.000000
   58        2.643474   1.000000
   59        2.643474   1.000000
   60        2.643518   1.000000
   61        2.643518   1.000000
   62        2.657288   1.000000
   63        2.657288   1.000000
   64        2.657822   1.000000
   65        2.657822   1.000000
   66        2.680547   1.000000
   67        2.680547   1.000000
   68        2.681511   1.000000
   69        2.681511   1.000000
   70        2.684471   1.000000
   71        2.684471   1.000000
   72        2.685427   1.000000
   73        2.685428   1.000000
   74        2.743327   1.000000
   75        2.743327   1.000000
   76        2.744232   1.000000
   77        2.744232   1.000000
   78        2.760105   1.000000
   79        2.760202   1.000000
   80        2.760202   1.000000
   81        2.760300   1.000000
   82        2.826214   1.000000
   83        2.826214   1.000000
   84        2.873093   1.000000
   85        2.873093   1.000000
   86        2.873558   1.000000
   87        2.873558   1.000000
   88        2.873960   1.000000
   89        2.873960   1.000000
   90        2.874426   1.000000
   91        2.874426   1.000000
   92        2.925080   1.000000
   93        2.925080   1.000000
   94        2.926045   1.000000
   95        2.926045   1.000000
   96        3.040812   1.000000
   97        3.104681   1.000000
   98        3.104681   1.000000
   99        3.105071   1.000000
  100        3.105072   1.000000
  101        3.134424   1.000000
  102        3.134424   1.000000
  103        3.175350   1.000000
  104        3.175350   1.000000
  105        3.175802   1.000000
  106        3.175802   1.000000
  107        3.197271   1.000000
  108        3.197271   1.000000
  109        3.198303   1.000000
  110        3.198303   1.000000
  111        3.303974   1.000000
  112        3.303987   1.000000
  113        3.303987   1.000000
  114        3.303994   1.000000
  115        3.328523   1.000000
  116        3.328523   1.000000
  117        3.329476   1.000000
  118        3.329476   1.000000
  119        3.332268   1.000000
  120        3.332268   1.000000
  121        3.333229   1.000000
  122        3.333229   1.000000
  123        3.349229   1.000000
  124        3.446733   1.000000
  125        3.446733   1.000000
  126        3.447095   1.000000
  127        3.447095   1.000000
  128        3.505775   1.000000
  129        3.505775   1.000000
  130        3.506151   1.000000
  131        3.506151   1.000000
  132        3.543494   1.000000
  133        3.543494   1.000000
  134        3.563168   1.000000
  135        3.563168   1.000000
  136        3.564133   1.000000
  137        3.564133   1.000000
  138        3.576561   1.000000
  139        3.576684   1.000000
  140        3.576684   1.000000
  141        3.576812   1.000000
  142        3.602972   1.000000
  143        3.602972   1.000000
  144        3.603858   1.000000
  145        3.603858   1.000000
  146        3.635035   1.000000
  147        3.635035   1.000000
  148        3.635533   1.000000
  149        3.635534   1.000000
  150        3.707718   1.000000
  151        3.707718   1.000000
  152        3.708463   1.000000
  153        3.708463   1.000000
  154        3.708654   1.000000
  155        3.708654   1.000000
  156        3.709399   1.000000
  157        3.709399   1.000000
  158        3.792375   1.000000
  159        3.792375   1.000000
  160        3.793183   1.000000
  161        3.793183   1.000000
  162        3.840970   1.000000
  163        3.840970   1.000000
  164        3.841872   1.000000
  165        3.841872   1.000000
  166        4.110478   1.000000
  167        4.111264   1.000000
  168        4.111264   1.000000
  169        4.112052   1.000000
  170        4.177950   1.000000
  171        4.177950   1.000000
  172        4.178624   1.000000
  173        4.178624   1.000000
  174        4.178834   1.000000
  175        4.178834   1.000000
  176        4.179507   1.000000
  177        4.179507   1.000000
  178        4.281519   1.000000
  179        4.281519   1.000000
  180        4.281858   1.000000
  181        4.281858   1.000000
  182        4.282140   1.000000
  183        4.365681   1.000000
  184        4.365850   1.000000
  185        4.365850   1.000000
  186        4.366020   1.000000
  187        4.400472   1.000000
  188        4.400472   1.000000
  189        4.401305   1.000000
  190        4.401305   1.000000
  191        4.401310   1.000000
  192        4.401310   1.000000
  193        4.402144   1.000000
  194        4.402144   1.000000
  195        4.404143   1.000000
  196        4.404144   1.000000
  197        4.404211   1.000000
  198        4.404211   1.000000
  199        4.404215   1.000000
  200        4.404215   1.000000
  201        4.404221   1.000000
  202        4.404221   1.000000
  203        4.465364   1.000000
  204        4.465364   1.000000
  205        4.465986   1.000000
  206        4.465986   1.000000
  207        4.498220   1.000000
  208        4.498998   1.000000
  209        4.498998   1.000000
  210        4.499776   1.000000
  211        4.635470   1.000000
  212        4.635470   1.000000
  213        4.635654   1.000000
  214        4.635654   1.000000
  215        4.635802   1.000000
  216        4.659418   1.000000
  217        4.659418   1.000000
  218        4.659493   1.000000
  219        4.659493   1.000000
  220        4.659549   1.000000
  221        4.659549   1.000000
  222        4.659624   1.000000
  223        4.659624   1.000000
  224        4.708494   1.000000
  225        4.708494   1.000000
  226        4.709045   1.000000
  227        4.709045   1.000000
  228        4.728321   1.000000
  229        4.728321   1.000000
  230        4.728353   1.000000
  231        4.728353   1.000000
  232        4.877069   1.000000
  233        4.877082   1.000000
  234        4.877082   1.000000
  235        4.877097   1.000000
  236        4.887381   1.000000
  237        4.887788   1.000000
  238        4.887788   1.000000
  239        4.888195   1.000000
  240        4.901674   1.000000
  241        4.901675   1.000000
  242        4.901858   1.000000
  243        4.901858   1.000000
  244        5.025702   1.000000
  245        5.025702   1.000000
  246        5.026022   1.000000
  247        5.026022   1.000000
  248        5.060019   1.000000
  249        5.060019   1.000000
  250        5.110014   1.000000
  251        5.110014   1.000000
  252        5.110187   1.000000
  253        5.110187   1.000000
  254        5.110277   1.000000
  255        5.110277   1.000000
  256        5.110450   1.000000
  257        5.110450   1.000000
  258        5.161435   1.000000
  259        5.168413   1.000000
  260        5.168541   1.000000
  261        5.168541   1.000000
  262        5.168670   1.000000
  263        5.180150   1.000000
  264        5.180326   1.000000
  265        5.180326   1.000000
  266        5.180502   1.000000
  267        5.189865   1.000000
  268        5.189865   1.000000
  269        5.238976   1.000000
  270        5.238976   1.000000
  271        5.238990   1.000000
  272        5.238990   1.000000
  273        5.257041   1.000000
  274        5.257103   1.000000
  275        5.257103   1.000000
  276        5.257168   1.000000
  277        5.285807   1.000000
  278        5.286074   1.000000
  279        5.286074   1.000000
  280        5.286342   1.000000
  281        5.286529   1.000000
  282        5.286879   1.000000
  283        5.286879   1.000000
  284        5.287226   1.000000
  285        5.329602   1.000000
  286        5.329749   1.000000
  287        5.329749   1.000000
  288        5.329895   1.000000
  289        5.331836   1.000000
  290        5.331873   1.000000
  291        5.331873   1.000000
  292        5.331914   1.000000
  293        5.343525   1.000000
  294        5.343844   1.000000
  295        5.343844   1.000000
  296        5.344157   1.000000
  297        5.346330   1.000000
  298        5.346330   1.000000
  299        5.346409   1.000000
  300        5.346410   1.000000
  301        5.346613   1.000000
  302        5.346614   1.000000
  303        5.346694   1.000000
  304        5.346694   1.000000
  305        5.391944   1.000000
  306        5.391944   1.000000
  307        5.392209   1.000000
  308        5.392209   1.000000
  309        5.411665   1.000000
  310        5.411665   1.000000
  311        5.411784   1.000000
  312        5.411784   1.000000
  313        5.431695   1.000000
  314        5.431695   1.000000
  315        5.431804   1.000000
  316        5.431807   1.000000
  317        5.562305   1.000000
  318        5.562744   1.000000
  319        5.562744   1.000000
  320        5.563182   1.000000
  321        5.595952   1.000000
  322        5.595952   1.000000
  323        5.598571   1.000000
  324        5.598571   1.000000
  325        5.598850   1.000000
  326        5.598850   1.000000
  327        5.598950   1.000000
  328        5.598950   1.000000
  329        5.599229   1.000000
  330        5.599229   1.000000
  331        5.711001   1.000000
  332        5.711001   1.000000
  333        5.711821   1.000000
  334        5.711821   1.000000
  335        5.742021   1.000000
  336        5.742021   1.000000
  337        5.742937   1.000000
  338        5.742937   1.000000
  339        5.792653   1.000000
  340        5.792653   1.000000
  341        5.792910   1.000000
  342        5.792910   1.000000
  343        5.793176   1.000000
  344        5.793176   1.000000
  345        5.793433   1.000000
  346        5.793433   1.000000
  347        5.815078   1.000000
  348        5.815564   1.000000
  349        5.815564   1.000000
  350        5.816049   1.000000
  351        5.847985   1.000000
  352        5.847985   1.000000
  353        5.857473   1.000000
  354        5.857594   1.000000
  355        5.857594   1.000000
  356        5.857713   1.000000
  357        5.865052   1.000000
  358        5.865052   1.000000
  359        5.865338   1.000000
  360        5.865338   1.000000
  361        5.906809   1.000000
  362        5.906809   1.000000
  363        5.979727   1.000000
  364        6.062427   1.000001
  365        6.062427   1.000001
  366        6.062496   1.000001
  367        6.062496   1.000001
  368        6.103521   1.000004
  369        6.103521   1.000004
  370        6.104214   1.000004
  371        6.104214   1.000004
  372        6.142458   1.000014
  373        6.142458   1.000014
  374        6.142909   1.000014
  375        6.142909   1.000014
  376        6.180857   1.000044
  377        6.180857   1.000044
  378        6.181564   1.000045
  379        6.181564   1.000045
  380        6.218136   1.000127
  381        6.229840   1.000175