       N       E                     dE             d eps       ncg     rms          rms(c)
DAV:   1     0.759772635081E+04    0.75977E+04   -0.28857E+05 20760   0.184E+03
DAV:   2    -0.229612461499E+02   -0.76207E+04   -0.74518E+04 20720   0.457E+02
DAV:   3    -0.851461812825E+03   -0.82850E+03   -0.70854E+03 20904   0.191E+02
DAV:   4    -0.102986235085E+04   -0.17840E+03   -0.16734E+03 37528   0.573E+01
DAV:   5    -0.104507727538E+04   -0.15215E+02   -0.14362E+02 33080   0.219E+01    0.934E+01
RMM:   6    -0.877450122859E+03    0.16763E+03   -0.13536E+03 20721   0.110E+02    0.900E+00
RMM:   7    -0.880275244144E+03   -0.28251E+01   -0.10997E+02 22603   0.237E+01    0.328E+00
RMM:   8    -0.879398310650E+03    0.87693E+00   -0.12749E+01 22069   0.100E+01    0.472E+00
RMM:   9    -0.879704396469E+03   -0.30609E+00   -0.44566E+00 28237   0.198E+00    0.319E+00
RMM:  10    -0.879527374062E+03    0.17702E+00   -0.88473E-01 26342   0.121E+00    0.593E-01
RMM:  11    -0.879539776892E+03   -0.12403E-01   -0.13219E-01 29040   0.364E-01    0.500E-01
RMM:  12    -0.879535771011E+03    0.40059E-02   -0.21697E-02 23367   0.343E-01    0.138E-01
RMM:  13    -0.879536004964E+03   -0.23395E-03   -0.10685E-02 27524   0.116E-01    0.367E-02
RMM:  14    -0.879536078740E+03   -0.73776E-04   -0.78167E-04 27811   0.408E-02    0.944E-03
RMM:  15    -0.879536071019E+03    0.77205E-05    0.12887E-04 25910   0.204E-02    0.113E-02
RMM:  16    -0.879536030348E+03    0.40671E-04    0.20065E-04 25031   0.108E-02    0.186E-04
RMM:  17    -0.879536009273E+03    0.21075E-04    0.19867E-04 20005   0.207E-03    0.162E-04
RMM:  18    -0.879535986894E+03    0.22380E-04    0.21287E-04 13582   0.117E-03    0.879E-05
RMM:  19    -0.879535967830E+03    0.19064E-04    0.17333E-04 13127   0.994E-04    0.373E-04
RMM:  20    -0.879535954757E+03    0.13072E-04    0.12019E-04 12384   0.943E-04    0.520E-05
RMM:  21    -0.879535942044E+03    0.12713E-04    0.12090E-04 12180   0.868E-04    0.400E-04
RMM:  22    -0.879535931023E+03    0.11021E-04    0.10335E-04 11283   0.735E-04    0.103E-04
RMM:  23    -0.879535922771E+03    0.82525E-05    0.80259E-05 10031   0.637E-04    0.335E-04
RMM:  24    -0.879535913431E+03    0.93396E-05    0.88904E-05  9795   0.583E-04    0.716E-05
RMM:  25    -0.879535904845E+03    0.85861E-05    0.78817E-05  7068   0.451E-04    0.174E-04
RMM:  26    -0.879535898025E+03    0.68197E-05    0.64529E-05  6865   0.437E-04    0.724E-05
RMM:  27    -0.879535891218E+03    0.68071E-05    0.63653E-05  5983   0.373E-04    0.103E-04
RMM:  28    -0.879535885700E+03    0.55177E-05    0.52615E-05  5414   0.361E-04    0.585E-05
RMM:  29    -0.879535880264E+03    0.54362E-05    0.52446E-05  4848   0.326E-04    0.727E-05
RMM:  30    -0.879535875961E+03    0.43037E-05    0.41452E-05  4706   0.317E-04    0.476E-05
RMM:  31    -0.879535872107E+03    0.38532E-05    0.37686E-05  4285   0.309E-04    0.671E-05
RMM:  32    -0.879535867823E+03    0.42840E-05    0.41549E-05  4429   0.317E-04    0.697E-05
RMM:  33    -0.879535864346E+03    0.34769E-05    0.33039E-05  4030   0.296E-04    0.680E-05
RMM:  34    -0.879535861376E+03    0.29707E-05    0.28919E-05  3812   0.302E-04    0.599E-05
RMM:  35    -0.879535858631E+03    0.27446E-05    0.27057E-05  3634   0.284E-04    0.448E-05
RMM:  36    -0.879535856183E+03    0.24485E-05    0.24045E-05  3549   0.275E-04    0.338E-05
RMM:  37    -0.879535853949E+03    0.22341E-05    0.22006E-05  3662   0.260E-04    0.142E-05
RMM:  38    -0.879535851763E+03    0.21859E-05    0.21512E-05  3358   0.252E-04    0.751E-06
RMM:  39    -0.879535849894E+03    0.18686E-05    0.18386E-05  3254   0.246E-04    0.400E-06
RMM:  40    -0.879535848120E+03    0.17745E-05    0.17494E-05  3152   0.243E-04    0.320E-06
RMM:  41    -0.879535846548E+03    0.15716E-05    0.15443E-05  3054   0.241E-04    0.500E-06
RMM:  42    -0.879535845116E+03    0.14322E-05    0.14111E-05  3008   0.240E-04    0.678E-06
RMM:  43    -0.879535843812E+03    0.13043E-05    0.12881E-05  2930   0.239E-04    0.832E-06
RMM:  44    -0.879535842463E+03    0.13481E-05    0.13298E-05  2896   0.239E-04    0.110E-05
RMM:  45    -0.879535841381E+03    0.10822E-05    0.10630E-05  2809   0.238E-04    0.126E-05
RMM:  46    -0.879535840394E+03    0.98720E-06    0.97477E-06  2765   0.238E-04
   1 F= -.87953584E+03 E0= -.87955413E+03  d E =-.879536E+03
