 vasp.5.4.4.18Apr17-6-g9f103f2a35 (build Aug 17 2017 06:00:38) complex          
  
 executed on             LinuxIFC date 2019.07.13  00:38:01
 running on    8 total cores
 distrk:  each k-point on    8 cores,    1 groups
 distr:  one band on NCORES_PER_BAND=   4 cores,    2 groups


--------------------------------------------------------------------------------------------------------


 INCAR:
 POTCAR:   PAW_PBE Fe 06Sep2000                   
 POTCAR:   PAW_PBE Fe 06Sep2000                   
   VRHFIN =Fe:  d7 s1                                                           
   LEXCH  = PE                                                                  
   EATOM  =   594.4687 eV,   43.6922 Ry                                         
                                                                                
   TITEL  = PAW_PBE Fe 06Sep2000                                                
   LULTRA =        F    use ultrasoft PP ?                                      
   IUNSCR =        1    unscreen: 0-lin 1-nonlin 2-no                           
   RPACOR =    2.000    partial core radius                                     
   POMASS =   55.847; ZVAL   =    8.000    mass and valenz                      
   RCORE  =    2.300    outmost cutoff radius                                   
   RWIGS  =    2.460; RWIGS  =    1.302    wigner-seitz radius (au A)           
   ENMAX  =  267.883; ENMIN  =  200.912 eV                                      
   RCLOC  =    1.701    cutoff for local pot                                    
   LCOR   =        T    correct aug charges                                     
   LPAW   =        T    paw PP                                                  
   EAUG   =  511.368                                                            
   DEXC   =    -.022                                                            
   RMAX   =    2.817    core radius for proj-oper                               
   RAUG   =    1.300    factor for augmentation sphere                          
   RDEP   =    2.442    radius for radial grids                                 
   QCUT   =   -4.437; QGAM   =    8.874    optimization parameters              
                                                                                
   Description                                                                  
     l     E      TYP  RCUT    TYP  RCUT                                        
     2   .000     23  2.300                                                     
     2   .000     23  2.300                                                     
     0   .000     23  2.300                                                     
     0   .000     23  2.300                                                     
     1  -.200     23  2.300                                                     
     1   .000     23  2.300                                                     
     3   .000      7   .000                                                     
  local pseudopotential read in
  partial core-charges read in
  atomic valenz-charges read in
  non local Contribution for L=           2  read in
    real space projection operators read in
  non local Contribution for L=           2  read in
    real space projection operators read in
  non local Contribution for L=           0  read in
    real space projection operators read in
  non local Contribution for L=           0  read in
    real space projection operators read in
  non local Contribution for L=           1  read in
    real space projection operators read in
  non local Contribution for L=           1  read in
    real space projection operators read in
    PAW grid and wavefunctions read in
 
   number of l-projection  operators is LMAX  =           6
   number of lm-projection operators is LMMAX =          18
 
 Optimization of the real space projectors (new method)

 maximal supplied QI-value         = 16.25
 optimisation between [QCUT,QGAM] = [ 10.24, 20.48] = [ 29.35,117.42] Ry 
 Optimized for a Real-space Cutoff    1.51 Angstroem

   l    n(q)    QCUT    max X(q) W(low)/X(q) W(high)/X(q)  e(spline) 
   2      8    10.239     4.378    0.29E-04    0.57E-04    0.52E-07
   2      8    10.239    23.237    0.44E-03    0.68E-03    0.20E-06
   0      9    10.239    17.641    0.18E-04    0.41E-06    0.72E-08
   0      9    10.239    50.908    0.75E-04    0.38E-04    0.65E-07
   1      9    10.239     6.148    0.18E-04    0.27E-04    0.19E-07
   1      9    10.239     8.345    0.39E-04    0.13E-03    0.98E-07
 PAW_PBE Fe 06Sep2000                   :
 energy of atom  1       EATOM= -594.4687
 kinetic energy error for atom=    0.0088 (will be added to EATOM!!)
 
 
 POSCAR: fcc_Fe_CON_333                          
  positions in direct lattice
  velocities in cartesian coordinates
 exchange correlation table for  LEXCH =        8
   RHO(1)=    0.500       N(1)  =     2000
   RHO(2)=  100.500       N(2)  =     4000
 


--------------------------------------------------------------------------------------------------------


 ion  position               nearest neighbor table
   1  0.000  0.000  0.000-   2 2.44   3 2.44   4 2.44  11 2.44  12 2.44  26 2.44  28 2.44  74 2.44
                            75 2.44  36 2.44  83 2.44  98 2.44
   2  0.000  0.167  0.167-  49 2.44  37 2.44  13 2.44  40 2.44  15 2.44  48 2.44  23 2.44   3 2.44
                             4 2.44   1 2.44  12 2.44  11 2.44
   3  0.167  0.000  0.167-  41 2.44  37 2.44   5 2.44  40 2.44   6 2.44  30 2.44  64 2.44   2 2.44
                             4 2.44   1 2.44  28 2.44  26 2.44
   4  0.167  0.167  0.000-  17 2.44  13 2.44   5 2.44  15 2.44   6 2.44  78 2.44  87 2.44   2 2.44
                             3 2.44   1 2.44  74 2.44  75 2.44
   5  0.333  0.000  0.000-   3 2.44   4 2.44  28 2.44  75 2.44   6 2.44   7 2.44   8 2.44  30 2.44
                            78 2.44  32 2.44  79 2.44 102 2.44
   6  0.333  0.167  0.167-  15 2.44  40 2.44  53 2.44  17 2.44  19 2.44   4 2.44  41 2.44  44 2.44
                             3 2.44   7 2.44   8 2.44   5 2.44
   7  0.500  0.000  0.167-  41 2.44  44 2.44  45 2.44  68 2.44   6 2.44   5 2.44   8 2.44  10 2.44
                            30 2.44   9 2.44  32 2.44  34 2.44
   8  0.500  0.167  0.000-  17 2.44  19 2.44  21 2.44  91 2.44   6 2.44   5 2.44   7 2.44  78 2.44
                            10 2.44  79 2.44   9 2.44  82 2.44
   9  0.667  0.000  0.000-  11 2.44  12 2.44  36 2.44  83 2.44  10 2.44  82 2.44  34 2.44   8 2.44
                             7 2.44 106 2.44  79 2.44  32 2.44
  10  0.667  0.167  0.167-  23 2.44  48 2.44  57 2.44  12 2.44  11 2.44  21 2.44  45 2.44  44 2.44
                            19 2.44   9 2.44   7 2.44   8 2.44
  11  0.833  0.000  0.167-  45 2.44   9 2.44  10 2.44  34 2.44  48 2.44  37 2.44  72 2.44  12 2.44
                             2 2.44  36 2.44   1 2.44  26 2.44
  12  0.833  0.167  0.000-  21 2.44   9 2.44  10 2.44  82 2.44  23 2.44  13 2.44  95 2.44  11 2.44
                             1 2.44  83 2.44   2 2.44  74 2.44
  13  0.000  0.333  0.000-   2 2.44   4 2.44  12 2.44  74 2.44  15 2.44  16 2.44  14 2.44  23 2.44
                            87 2.44  86 2.44  24 2.44  95 2.44
  14  0.000  0.500  0.167-  49 2.44  52 2.44  60 2.44  61 2.44  15 2.44  13 2.44  16 2.44  23 2.44
                            27 2.44  25 2.44  24 2.44  35 2.44
  15  0.167  0.333  0.167-   6 2.44  40 2.44  53 2.44  17 2.44  18 2.44   4 2.44  49 2.44  52 2.44
                             2 2.44  13 2.44  14 2.44  16 2.44
  16  0.167  0.500  0.000-  17 2.44  18 2.44  29 2.44  90 2.44  15 2.44  14 2.44  13 2.44  87 2.44
                            27 2.44  25 2.44  86 2.44  99 2.44
  17  0.333  0.333  0.000-   4 2.44   8 2.44  16 2.44  15 2.44   6 2.44  78 2.44  87 2.44  20 2.44
                            18 2.44  19 2.44  90 2.44  91 2.44
  18  0.333  0.500  0.167-  52 2.44  16 2.44  56 2.44  53 2.44  15 2.44  27 2.44  65 2.44  20 2.44
                            17 2.44  19 2.44  29 2.44  31 2.44
  19  0.500  0.333  0.167-  44 2.44   8 2.44  56 2.44  53 2.44   6 2.44  10 2.44  57 2.44  18 2.44
                            20 2.44  17 2.44  21 2.44  22 2.44
  20  0.500  0.500  0.000-  17 2.44  18 2.44  19 2.44  21 2.44  22 2.44  29 2.44  31 2.44  90 2.44
                            91 2.44  33 2.44  94 2.44 103 2.44
  21  0.667  0.333  0.000-  12 2.44  24 2.44  23 2.44  95 2.44  10 2.44   8 2.44  82 2.44  22 2.44
                            20 2.44  94 2.44  19 2.44  91 2.44
  22  0.667  0.500  0.167-  60 2.44  24 2.44  23 2.44  35 2.44  57 2.44  56 2.44  69 2.44  21 2.44
                            33 2.44  20 2.44  19 2.44  31 2.44
  23  0.833  0.333  0.167-  10 2.44  57 2.44  48 2.44  21 2.44  22 2.44  12 2.44  60 2.44   2 2.44
                            49 2.44  24 2.44  14 2.44  13 2.44
  24  0.833  0.500  0.000-  21 2.44  22 2.44  33 2.44  94 2.44  23 2.44  35 2.44  95 2.44  14 2.44
                            13 2.44 107 2.44  86 2.44  25 2.44
  25  0.000  0.667  0.000-  26 2.44  28 2.44  36 2.44  98 2.44  27 2.44  35 2.44  99 2.44  16 2.44
                            14 2.44 107 2.44  86 2.44  24 2.44
  26  0.000  0.833  0.167-  61 2.44  25 2.44  27 2.44  35 2.44  64 2.44  37 2.44  72 2.44  28 2.44
                             3 2.44  36 2.44   1 2.44  11 2.44
  27  0.167  0.667  0.167-  30 2.44  64 2.44  65 2.44  28 2.44  26 2.44  29 2.44  61 2.44  52 2.44
                            18 2.44  25 2.44  14 2.44  16 2.44
  28  0.167  0.833  0.000-  29 2.44  25 2.44  27 2.44  99 2.44  30 2.44   5 2.44 102 2.44  26 2.44
                            98 2.44   1 2.44   3 2.44  75 2.44
  29  0.333  0.667  0.000-  28 2.44  32 2.44  30 2.44 102 2.44  27 2.44  16 2.44  99 2.44  31 2.44
                            20 2.44  18 2.44 103 2.44  90 2.44
  30  0.333  0.833  0.167-  27 2.44  65 2.44  64 2.44  29 2.44  31 2.44  28 2.44  68 2.44  41 2.44
                             3 2.44  32 2.44   7 2.44   5 2.44
  31  0.500  0.667  0.167-  68 2.44  32 2.44  30 2.44  34 2.44  65 2.44  56 2.44  69 2.44  29 2.44
                            33 2.44  20 2.44  18 2.44  22 2.44
  32  0.500  0.833  0.000-  29 2.44  31 2.44  33 2.44 103 2.44  30 2.44 102 2.44  34 2.44   7 2.44
                             5 2.44 106 2.44  79 2.44   9 2.44
  33  0.667  0.667  0.000-  36 2.44  35 2.44  34 2.44  32 2.44  24 2.44 106 2.44 107 2.44  22 2.44
                            31 2.44 103 2.44  20 2.44  94 2.44
  34  0.667  0.833  0.167-  35 2.44  69 2.44  72 2.44  33 2.44  36 2.44  31 2.44  11 2.44  45 2.44
                            68 2.44  32 2.44   9 2.44   7 2.44
  35  0.833  0.667  0.167-  34 2.44  69 2.44  72 2.44  33 2.44  36 2.44  26 2.44  22 2.44  60 2.44
                            61 2.44  24 2.44  25 2.44  14 2.44
  36  0.833  0.833  0.000-  33 2.44  34 2.44  35 2.44  25 2.44   9 2.44 106 2.44 107 2.44  26 2.44
                            11 2.44  98 2.44   1 2.44  83 2.44
  37  0.000  0.000  0.333-   2 2.44   3 2.44  11 2.44  26 2.44  40 2.44  39 2.44  38 2.44  48 2.44
                            64 2.44  62 2.44  47 2.44  72 2.44
  38  0.000  0.167  0.500-  49 2.44  51 2.44  59 2.44  85 2.44  40 2.44  39 2.44  37 2.44  76 2.44
                            48 2.44  47 2.44  73 2.44  84 2.44
  39  0.167  0.000  0.500-  41 2.44  42 2.44  66 2.44  77 2.44  40 2.44  38 2.44  37 2.44  76 2.44
                            64 2.44  62 2.44  73 2.44 100 2.44
  40  0.167  0.167  0.333-   6 2.44  15 2.44  53 2.44   3 2.44  41 2.44  42 2.44  49 2.44  51 2.44
                             2 2.44  39 2.44  37 2.44  38 2.44
  41  0.333  0.000  0.333-   3 2.44   7 2.44  39 2.44   6 2.44  40 2.44  30 2.44  64 2.44  43 2.44
                            44 2.44  42 2.44  66 2.44  68 2.44
  42  0.333  0.167  0.500-  51 2.44  39 2.44  55 2.44  53 2.44  40 2.44  76 2.44  89 2.44  44 2.44
                            41 2.44  43 2.44  80 2.44  77 2.44
  43  0.500  0.000  0.500-  41 2.44  42 2.44  44 2.44  45 2.44  46 2.44  66 2.44  68 2.44  77 2.44
                            80 2.44  70 2.44  81 2.44 104 2.44
  44  0.500  0.167  0.333-  19 2.44   7 2.44  55 2.44  53 2.44   6 2.44  10 2.44  57 2.44  41 2.44
                            42 2.44  43 2.44  46 2.44  45 2.44
  45  0.667  0.000  0.333-  11 2.44  47 2.44  48 2.44  72 2.44  10 2.44   7 2.44  34 2.44  46 2.44
                            43 2.44  70 2.44  44 2.44  68 2.44
  46  0.667  0.167  0.500-  59 2.44  47 2.44  48 2.44  84 2.44  57 2.44  55 2.44  93 2.44  45 2.44
                            81 2.44  43 2.44  44 2.44  80 2.44
  47  0.833  0.000  0.500-  45 2.44  46 2.44  70 2.44  81 2.44  48 2.44  72 2.44  84 2.44  38 2.44
                            37 2.44 108 2.44  73 2.44  62 2.44
  48  0.833  0.167  0.333-  10 2.44  57 2.44  23 2.44  46 2.44  45 2.44  11 2.44  59 2.44   2 2.44
                            49 2.44  47 2.44  37 2.44  38 2.44
  49  0.000  0.333  0.333-   2 2.44  14 2.44  38 2.44  15 2.44  40 2.44  23 2.44  48 2.44  50 2.44
                            51 2.44  52 2.44  59 2.44  60 2.44
  50  0.000  0.500  0.500-  49 2.44  51 2.44  52 2.44  59 2.44  60 2.44  61 2.44  63 2.44  85 2.44
                            88 2.44  71 2.44  96 2.44  97 2.44
  51  0.167  0.333  0.500-  42 2.44  38 2.44  54 2.44  53 2.44  40 2.44  76 2.44  89 2.44  50 2.44
                            52 2.44  49 2.44  88 2.44  85 2.44
  52  0.167  0.500  0.333-  18 2.44  14 2.44  54 2.44  53 2.44  15 2.44  27 2.44  65 2.44  49 2.44
                            50 2.44  51 2.44  63 2.44  61 2.44
  53  0.333  0.333  0.333-   6 2.44  15 2.44  40 2.44  19 2.44  18 2.44  42 2.44  44 2.44  51 2.44
                            52 2.44  54 2.44  55 2.44  56 2.44
  54  0.333  0.500  0.500-  51 2.44  52 2.44  63 2.44  88 2.44  53 2.44  55 2.44  56 2.44  65 2.44
                            89 2.44  67 2.44  92 2.44 101 2.44
  55  0.500  0.333  0.500-  42 2.44  44 2.44  46 2.44  80 2.44  53 2.44  56 2.44  54 2.44  57 2.44
                            89 2.44  58 2.44  92 2.44  93 2.44
  56  0.500  0.500  0.333-  18 2.44  19 2.44  22 2.44  31 2.44  53 2.44  54 2.44  55 2.44  57 2.44
                            65 2.44  58 2.44  67 2.44  69 2.44
  57  0.667  0.333  0.333-  23 2.44  48 2.44  10 2.44  59 2.44  60 2.44  46 2.44  22 2.44  19 2.44
                            44 2.44  58 2.44  56 2.44  55 2.44
  58  0.667  0.500  0.500-  59 2.44  60 2.44  71 2.44  96 2.44  57 2.44  93 2.44  69 2.44  56 2.44
                            55 2.44 105 2.44  92 2.44  67 2.44
  59  0.833  0.333  0.500-  46 2.44  58 2.44  57 2.44  93 2.44  48 2.44  38 2.44  84 2.44  60 2.44
                            50 2.44  49 2.44  96 2.44  85 2.44
  60  0.833  0.500  0.333-  22 2.44  58 2.44  57 2.44  69 2.44  23 2.44  14 2.44  35 2.44  59 2.44
                            49 2.44  50 2.44  71 2.44  61 2.44
  61  0.000  0.667  0.333-  26 2.44  62 2.44  64 2.44  72 2.44  27 2.44  14 2.44  35 2.44  63 2.44
                            50 2.44  71 2.44  52 2.44  60 2.44
  62  0.000  0.833  0.500-  61 2.44  63 2.44  71 2.44  97 2.44  64 2.44  72 2.44 100 2.44  39 2.44
                            37 2.44 108 2.44  73 2.44  47 2.44
  63  0.167  0.667  0.500-  66 2.44  62 2.44  64 2.44 100 2.44  65 2.44  54 2.44 101 2.44  61 2.44
                            97 2.44  50 2.44  52 2.44  88 2.44
  64  0.167  0.833  0.333-  27 2.44  65 2.44  30 2.44  63 2.44  61 2.44  26 2.44  66 2.44   3 2.44
                            41 2.44  62 2.44  37 2.44  39 2.44
  65  0.333  0.667  0.333-  30 2.44  64 2.44  27 2.44  66 2.44  68 2.44  63 2.44  31 2.44  18 2.44
                            52 2.44  67 2.44  56 2.44  54 2.44
  66  0.333  0.833  0.500-  63 2.44  67 2.44  65 2.44 101 2.44  64 2.44  39 2.44 100 2.44  68 2.44
                            43 2.44  41 2.44 104 2.44  77 2.44
  67  0.500  0.667  0.500-  66 2.44  68 2.44  70 2.44 104 2.44  65 2.44 101 2.44  69 2.44  56 2.44
                            54 2.44 105 2.44  92 2.44  58 2.44
  68  0.500  0.833  0.333-  31 2.44  67 2.44  65 2.44  69 2.44  30 2.44   7 2.44  34 2.44  66 2.44
                            41 2.44  43 2.44  70 2.44  45 2.44
  69  0.667  0.667  0.333-  72 2.44  35 2.44  34 2.44  71 2.44  70 2.44  68 2.44  60 2.44  31 2.44
                            22 2.44  58 2.44  67 2.44  56 2.44
  70  0.667  0.833  0.500-  71 2.44  69 2.44  72 2.44  67 2.44  47 2.44 105 2.44 108 2.44  68 2.44
                            45 2.44 104 2.44  43 2.44  81 2.44
  71  0.833  0.667  0.500-  70 2.44  69 2.44  72 2.44  62 2.44  58 2.44 105 2.44 108 2.44  60 2.44
                            61 2.44  97 2.44  50 2.44  96 2.44
  72  0.833  0.833  0.333-  69 2.44  35 2.44  34 2.44  70 2.44  71 2.44  61 2.44  45 2.44  26 2.44
                            11 2.44  62 2.44  47 2.44  37 2.44
  73  0.000  0.000  0.667-  74 2.44  75 2.44  83 2.44  98 2.44  76 2.44  84 2.44 100 2.44  39 2.44
                            38 2.44 108 2.44  47 2.44  62 2.44
  74  0.000  0.167  0.833-  85 2.44  73 2.44  76 2.44  84 2.44  87 2.44  13 2.44  95 2.44  75 2.44
                             4 2.44  83 2.44   1 2.44  12 2.44
  75  0.167  0.000  0.833-  77 2.44  73 2.44  76 2.44 100 2.44  78 2.44   5 2.44 102 2.44  74 2.44
                            98 2.44   1 2.44   4 2.44  28 2.44
  76  0.167  0.167  0.667-  78 2.44  87 2.44  89 2.44  75 2.44  74 2.44  77 2.44  85 2.44  51 2.44
                            42 2.44  73 2.44  38 2.44  39 2.44
  77  0.333  0.000  0.667-  75 2.44  79 2.44  78 2.44 102 2.44  76 2.44  39 2.44 100 2.44  80 2.44
                            43 2.44  42 2.44 104 2.44  66 2.44
  78  0.333  0.167  0.833-  76 2.44  89 2.44  87 2.44  77 2.44  80 2.44  75 2.44  91 2.44  17 2.44
                             4 2.44  79 2.44   8 2.44   5 2.44
  79  0.500  0.000  0.833-  77 2.44  80 2.44  81 2.44 104 2.44  78 2.44 102 2.44  82 2.44   8 2.44
                             5 2.44 106 2.44   9 2.44  32 2.44
  80  0.500  0.167  0.667-  91 2.44  79 2.44  78 2.44  82 2.44  89 2.44  55 2.44  93 2.44  77 2.44
                            43 2.44  81 2.44  42 2.44  46 2.44
  81  0.667  0.000  0.667-  83 2.44  82 2.44  84 2.44  79 2.44  47 2.44 106 2.44 108 2.44  80 2.44
                            46 2.44 104 2.44  70 2.44  43 2.44
  82  0.667  0.167  0.833-  84 2.44  93 2.44  95 2.44  83 2.44  81 2.44  80 2.44  12 2.44  21 2.44
                            91 2.44  79 2.44   9 2.44   8 2.44
  83  0.833  0.000  0.833-  81 2.44  82 2.44  84 2.44  73 2.44   9 2.44 106 2.44 108 2.44  74 2.44
                            12 2.44  98 2.44  36 2.44   1 2.44
  84  0.833  0.167  0.667-  82 2.44  93 2.44  95 2.44  81 2.44  83 2.44  74 2.44  46 2.44  59 2.44
                            85 2.44  73 2.44  47 2.44  38 2.44
  85  0.000  0.333  0.667-  74 2.44  86 2.44  87 2.44  95 2.44  76 2.44  38 2.44  84 2.44  88 2.44
                            51 2.44  50 2.44  96 2.44  59 2.44
  86  0.000  0.500  0.833-  85 2.44  88 2.44  96 2.44  97 2.44  87 2.44  95 2.44  99 2.44  16 2.44
                            13 2.44 107 2.44  24 2.44  25 2.44
  87  0.167  0.333  0.833-  76 2.44  89 2.44  78 2.44  88 2.44  85 2.44  74 2.44  90 2.44  17 2.44
                             4 2.44  86 2.44  16 2.44  13 2.44
  88  0.167  0.500  0.667-  90 2.44  86 2.44  87 2.44  99 2.44  89 2.44  54 2.44 101 2.44  85 2.44
                            97 2.44  50 2.44  51 2.44  63 2.44
  89  0.333  0.333  0.667-  78 2.44  87 2.44  76 2.44  90 2.44  91 2.44  80 2.44  88 2.44  51 2.44
                            42 2.44  92 2.44  54 2.44  55 2.44
  90  0.333  0.500  0.833-  88 2.44  92 2.44  89 2.44 101 2.44  87 2.44  16 2.44  99 2.44  91 2.44
                            20 2.44  17 2.44 103 2.44  29 2.44
  91  0.500  0.333  0.833-  80 2.44  92 2.44  89 2.44  93 2.44  78 2.44   8 2.44  82 2.44  90 2.44
                            20 2.44  17 2.44  94 2.44  21 2.44
  92  0.500  0.500  0.667-  90 2.44  91 2.44  94 2.44 103 2.44  89 2.44 101 2.44  93 2.44  55 2.44
                            54 2.44 105 2.44  58 2.44  67 2.44
  93  0.667  0.333  0.667-  95 2.44  84 2.44  82 2.44  94 2.44  96 2.44  91 2.44  59 2.44  46 2.44
                            80 2.44  92 2.44  58 2.44  55 2.44
  94  0.667  0.500  0.833-  96 2.44  95 2.44  93 2.44  92 2.44  24 2.44 105 2.44 107 2.44  21 2.44
                            91 2.44 103 2.44  33 2.44  20 2.44
  95  0.833  0.333  0.833-  93 2.44  84 2.44  82 2.44  94 2.44  96 2.44  85 2.44  21 2.44  12 2.44
                            74 2.44  86 2.44  24 2.44  13 2.44
  96  0.833  0.500  0.667-  94 2.44  93 2.44  95 2.44  86 2.44  58 2.44 105 2.44 107 2.44  59 2.44
                            85 2.44  97 2.44  71 2.44  50 2.44
  97  0.000  0.667  0.667-  98 2.44  99 2.44 100 2.44  86 2.44  62 2.44 107 2.44 108 2.44  88 2.44
                            63 2.44  96 2.44  50 2.44  71 2.44
  98  0.000  0.833  0.833-  97 2.44  99 2.44 100 2.44  73 2.44  25 2.44 107 2.44 108 2.44  75 2.44
                            28 2.44  83 2.44   1 2.44  36 2.44
  99  0.167  0.667  0.833- 100 2.44 101 2.44 102 2.44  98 2.44  97 2.44  88 2.44  28 2.44  90 2.44
                            29 2.44  86 2.44  25 2.44  16 2.44
 100  0.167  0.833  0.667-  99 2.44 101 2.44 102 2.44  98 2.44  97 2.44  75 2.44  63 2.44  77 2.44
                            66 2.44  73 2.44  62 2.44  39 2.44
 101  0.333  0.667  0.667- 102 2.44 100 2.44  99 2.44 103 2.44 104 2.44  90 2.44  66 2.44  63 2.44
                            88 2.44  92 2.44  67 2.44  54 2.44
 102  0.333  0.833  0.833- 101 2.44 100 2.44  99 2.44 103 2.44 104 2.44  77 2.44  29 2.44  28 2.44
                            75 2.44  79 2.44  32 2.44   5 2.44
 103  0.500  0.667  0.833- 104 2.44 102 2.44 101 2.44  92 2.44  32 2.44 105 2.44 106 2.44  29 2.44
                            90 2.44  94 2.44  20 2.44  33 2.44
 104  0.500  0.833  0.667- 103 2.44 102 2.44 101 2.44  79 2.44  67 2.44 105 2.44 106 2.44  66 2.44
                            77 2.44  81 2.44  43 2.44  70 2.44
 105  0.667  0.667  0.667- 106 2.44 107 2.44 108 2.44  96 2.44 103 2.44 104 2.44  70 2.44  71 2.44
                            94 2.44  67 2.44  92 2.44  58 2.44
 106  0.667  0.833  0.833- 105 2.44 107 2.44 108 2.44  83 2.44 103 2.44 104 2.44  33 2.44  36 2.44
                            81 2.44  32 2.44  79 2.44   9 2.44
 107  0.833  0.667  0.833- 105 2.44 106 2.44 108 2.44  96 2.44  97 2.44  98 2.44  33 2.44  36 2.44
                            94 2.44  25 2.44  86 2.44  24 2.44
 108  0.833  0.833  0.667- 105 2.44 106 2.44 107 2.44  83 2.44  97 2.44  98 2.44  70 2.44  71 2.44
                            81 2.44  62 2.44  73 2.44  47 2.44
 
  LATTYP: Found a simple cubic cell.
 ALAT       =    10.3348470474
  
  Lattice vectors:
  
 A1 = (  10.3348470474,   0.0000000000,   0.0000000000)
 A2 = (   0.0000000000,  10.3348470474,   0.0000000000)
 A3 = (   0.0000000000,   0.0000000000,  10.3348470474)


Analysis of symmetry for initial positions (statically):
=====================================================================
 Subroutine PRICEL returns following result:
 
  LATTYP: Found a simple cubic cell.
 ALAT       =     3.4449252899
  
  Lattice vectors:
  
 A1 = (   3.4449252899,   0.0000000000,   0.0000000000)
 A2 = (   0.0000000000,   3.4449252899,   0.0000000000)
 A3 = (   0.0000000000,   0.0000000000,   3.4449252443)
 
  27 primitive cells build up your supercell.
 

 Routine SETGRP: Setting up the symmetry group for a 
 simple cubic supercell.


 Subroutine GETGRP returns: Found 48 space group operations
 (whereof 48 operations were pure point group operations)
 out of a pool of 48 trial point group operations.


The static configuration has the point symmetry O_h .


Analysis of symmetry for dynamics (positions and initial velocities):
=====================================================================
 Subroutine PRICEL returns following result:
 
  LATTYP: Found a simple cubic cell.
 ALAT       =     3.4449252899
  
  Lattice vectors:
  
 A1 = (   3.4449252899,   0.0000000000,   0.0000000000)
 A2 = (   0.0000000000,   3.4449252899,   0.0000000000)
 A3 = (   0.0000000000,   0.0000000000,   3.4449252443)
 
  27 primitive cells build up your supercell.
 

 Routine SETGRP: Setting up the symmetry group for a 
 simple cubic supercell.


 Subroutine GETGRP returns: Found 48 space group operations
 (whereof 48 operations were pure point group operations)
 out of a pool of 48 trial point group operations.


The dynamic configuration has the point symmetry O_h .


 Subroutine INISYM returns: Found 48 space group operations
 (whereof 48 operations are pure point group operations),
 and found    27 'primitive' translations

 
 
 KPOINTS: pymatgen generated KPOINTS with grid den

Automatic generation of k-mesh.
Space group operators:
 irot       det(A)        alpha          n_x          n_y          n_z        tau_x        tau_y        tau_z
    1     1.000000     0.000000     1.000000     0.000000     0.000000     0.000000     0.000000     0.000000
    2    -1.000000     0.000000     1.000000     0.000000     0.000000     0.000000     0.000000     0.000000
    3     1.000000   120.000000    -0.577350    -0.577350    -0.577350     0.000000     0.000000     0.000000
    4    -1.000000   120.000000    -0.577350    -0.577350    -0.577350     0.000000     0.000000     0.000000
    5     1.000000   120.000000     0.577350     0.577350     0.577350     0.000000     0.000000     0.000000
    6    -1.000000   120.000000     0.577350     0.577350     0.577350     0.000000     0.000000     0.000000
    7     1.000000    90.000000     0.000000     0.000000    -1.000000     0.000000     0.000000     0.000000
    8    -1.000000    90.000000     0.000000     0.000000    -1.000000     0.000000     0.000000     0.000000
    9     1.000000   180.000000     0.000000     0.707107     0.707107     0.000000     0.000000     0.000000
   10    -1.000000   180.000000     0.000000     0.707107     0.707107     0.000000     0.000000     0.000000
   11     1.000000    90.000000     0.000000     1.000000     0.000000     0.000000     0.000000     0.000000
   12    -1.000000    90.000000     0.000000     1.000000     0.000000     0.000000     0.000000     0.000000
   13     1.000000   180.000000     0.000000     0.000000     1.000000     0.000000     0.000000     0.000000
   14    -1.000000   180.000000     0.000000     0.000000     1.000000     0.000000     0.000000     0.000000
   15     1.000000   120.000000    -0.577350     0.577350     0.577350     0.000000     0.000000     0.000000
   16    -1.000000   120.000000    -0.577350     0.577350     0.577350     0.000000     0.000000     0.000000
   17     1.000000   120.000000    -0.577350     0.577350    -0.577350     0.000000     0.000000     0.000000
   18    -1.000000   120.000000    -0.577350     0.577350    -0.577350     0.000000     0.000000     0.000000
   19     1.000000    90.000000     0.000000     0.000000     1.000000     0.000000     0.000000     0.000000
   20    -1.000000    90.000000     0.000000     0.000000     1.000000     0.000000     0.000000     0.000000
   21     1.000000    90.000000    -1.000000     0.000000     0.000000     0.000000     0.000000     0.000000
   22    -1.000000    90.000000    -1.000000     0.000000     0.000000     0.000000     0.000000     0.000000
   23     1.000000   180.000000     0.707107     0.000000     0.707107     0.000000     0.000000     0.000000
   24    -1.000000   180.000000     0.707107     0.000000     0.707107     0.000000     0.000000     0.000000
   25     1.000000   120.000000     0.577350    -0.577350     0.577350     0.000000     0.000000     0.000000
   26    -1.000000   120.000000     0.577350    -0.577350     0.577350     0.000000     0.000000     0.000000
   27     1.000000   120.000000    -0.577350    -0.577350     0.577350     0.000000     0.000000     0.000000
   28    -1.000000   120.000000    -0.577350    -0.577350     0.577350     0.000000     0.000000     0.000000
   29     1.000000   180.000000     1.000000     0.000000     0.000000     0.000000     0.000000     0.000000
   30    -1.000000   180.000000     1.000000     0.000000     0.000000     0.000000     0.000000     0.000000
   31     1.000000    90.000000     0.000000    -1.000000     0.000000     0.000000     0.000000     0.000000
   32    -1.000000    90.000000     0.000000    -1.000000     0.000000     0.000000     0.000000     0.000000
   33     1.000000   180.000000     0.707107     0.707107     0.000000     0.000000     0.000000     0.000000
   34    -1.000000   180.000000     0.707107     0.707107     0.000000     0.000000     0.000000     0.000000
   35     1.000000    90.000000     1.000000     0.000000     0.000000     0.000000     0.000000     0.000000
   36    -1.000000    90.000000     1.000000     0.000000     0.000000     0.000000     0.000000     0.000000
   37     1.000000   120.000000     0.577350    -0.577350    -0.577350     0.000000     0.000000     0.000000
   38    -1.000000   120.000000     0.577350    -0.577350    -0.577350     0.000000     0.000000     0.000000
   39     1.000000   180.000000     0.000000     1.000000     0.000000     0.000000     0.000000     0.000000
   40    -1.000000   180.000000     0.000000     1.000000     0.000000     0.000000     0.000000     0.000000
   41     1.000000   120.000000     0.577350     0.577350    -0.577350     0.000000     0.000000     0.000000
   42    -1.000000   120.000000     0.577350     0.577350    -0.577350     0.000000     0.000000     0.000000
   43     1.000000   180.000000     0.000000    -0.707107     0.707107     0.000000     0.000000     0.000000
   44    -1.000000   180.000000     0.000000    -0.707107     0.707107     0.000000     0.000000     0.000000
   45     1.000000   180.000000     0.707107    -0.707107     0.000000     0.000000     0.000000     0.000000
   46    -1.000000   180.000000     0.707107    -0.707107     0.000000     0.000000     0.000000     0.000000
   47     1.000000   180.000000     0.707107     0.000000    -0.707107     0.000000     0.000000     0.000000
   48    -1.000000   180.000000     0.707107     0.000000    -0.707107     0.000000     0.000000     0.000000
 
 Subroutine IBZKPT returns following result:
 ===========================================
 
 Found     20 irreducible k-points:
 
 Following reciprocal coordinates:
            Coordinates               Weight
  0.000000  0.000000  0.000000      1.000000
  0.142857  0.000000  0.000000      6.000000
  0.285714  0.000000  0.000000      6.000000
  0.428571  0.000000  0.000000      6.000000
  0.142857  0.142857  0.000000     12.000000
  0.285714  0.142857  0.000000     24.000000
  0.428571  0.142857  0.000000     24.000000
  0.285714  0.285714  0.000000     12.000000
  0.428571  0.285714  0.000000     24.000000
  0.428571  0.428571  0.000000     12.000000
  0.142857  0.142857  0.142857      8.000000
  0.285714  0.142857  0.142857     24.000000
  0.428571  0.142857  0.142857     24.000000
  0.285714  0.285714  0.142857     24.000000
  0.428571  0.285714  0.142857     48.000000
  0.428571  0.428571  0.142857     24.000000
  0.285714  0.285714  0.285714      8.000000
  0.428571  0.285714  0.285714     24.000000
  0.428571  0.428571  0.285714     24.000000
  0.428571  0.428571  0.428571      8.000000
 
 Following cartesian coordinates:
            Coordinates               Weight
  0.000000  0.000000  0.000000      1.000000
  0.013823  0.000000  0.000000      6.000000
  0.027646  0.000000  0.000000      6.000000
  0.041469  0.000000  0.000000      6.000000
  0.013823  0.013823  0.000000     12.000000
  0.027646  0.013823  0.000000     24.000000
  0.041469  0.013823  0.000000     24.000000
  0.027646  0.027646  0.000000     12.000000
  0.041469  0.027646  0.000000     24.000000
  0.041469  0.041469  0.000000     12.000000
  0.013823  0.013823  0.013823      8.000000
  0.027646  0.013823  0.013823     24.000000
  0.041469  0.013823  0.013823     24.000000
  0.027646  0.027646  0.013823     24.000000
  0.041469  0.027646  0.013823     48.000000
  0.041469  0.041469  0.013823     24.000000
  0.027646  0.027646  0.027646      8.000000
  0.041469  0.027646  0.027646     24.000000
  0.041469  0.041469  0.027646     24.000000
  0.041469  0.041469  0.041469      8.000000
 


--------------------------------------------------------------------------------------------------------




 Dimension of arrays:
   k-points           NKPTS =     20   k-points in BZ     NKDIM =     20   number of bands    NBANDS=    518
   number of dos      NEDOS =    301   number of ions     NIONS =    108
   non local maximal  LDIM  =      6   non local SUM 2l+1 LMDIM =     18
   total plane-waves  NPLWV = 373248
   max r-space proj   IRMAX =   4912   max aug-charges    IRDMAX=  12243
   dimension x,y,z NGX =    72 NGY =   72 NGZ =   72
   dimension x,y,z NGXF=   144 NGYF=  144 NGZF=  144
   support grid    NGXF=   144 NGYF=  144 NGZF=  144
   ions per type =             108
   NGX,Y,Z   is equivalent  to a cutoff of  11.58, 11.58, 11.58 a.u.
   NGXF,Y,Z  is equivalent  to a cutoff of  23.16, 23.16, 23.16 a.u.

 Based on PREC, I would recommend the following setting:
   dimension x,y,z NGX =    54 NGY =   54 NGZ =   54

 SYSTEM =  Opt                                     
 POSCAR =  fcc_Fe_CON_333                          

 Startparameter for this run:
   NWRITE =      2    write-flag & timer
   PREC   = normal    normal or accurate (medium, high low for compatibility)
   ISTART =      0    job   : 0-new  1-cont  2-samecut
   ICHARG =      2    charge: 1-file 2-atom 10-const
   ISPIN  =      1    spin polarized calculation?
   LNONCOLLINEAR =      F non collinear calculations
   LSORBIT =      F    spin-orbit coupling
   INIWAV =      1    electr: 0-lowe 1-rand  2-diag
   LASPH  =      F    aspherical Exc in radial PAW
   METAGGA=      F    non-selfconsistent MetaGGA calc.

 Electronic Relaxation 1
   ENCUT  =  400.0 eV  29.40 Ry    5.42 a.u.  16.85 16.85 16.85*2*pi/ulx,y,z
   ENINI  =  400.0     initial cutoff
   ENAUG  =  511.4 eV  augmentation charge cutoff
   NELM   =    400;   NELMIN=  2; NELMDL= -5     # of ELM steps 
   EDIFF  = 0.1E-05   stopping-criterion for ELM
   LREAL  =      T    real-space projection
   NLSPLINE    = F    spline interpolate recip. space projectors
   LCOMPAT=      F    compatible to vasp.4.4
   GGA_COMPAT  = T    GGA compatible to vasp.4.4-vasp.4.6
   LMAXPAW     = -100 max onsite density
   LMAXMIX     =    2 max onsite mixed and CHGCAR
   VOSKOWN=      0    Vosko Wilk Nusair interpolation
   ROPT   =   -0.00050
 Ionic relaxation
   EDIFFG = -.1E-01   stopping-criterion for IOM
   NSW    =    100    number of steps for IOM
   NBLOCK =      1;   KBLOCK =    100    inner block; outer block 
   IBRION =      2    ionic relax: 0-MD 1-quasi-New 2-CG
   NFREE  =      1    steps in history (QN), initial steepest desc. (CG)
   ISIF   =      3    stress and relaxation
   IWAVPR =     11    prediction:  0-non 1-charg 2-wave 3-comb
   ISYM   =      2    0-nonsym 1-usesym 2-fastsym
   LCORR  =      T    Harris-Foulkes like correction to forces

   POTIM  = 0.5000    time-step for ionic-motion
   TEIN   =    0.0    initial temperature
   TEBEG  =    0.0;   TEEND  =   0.0 temperature during run
   SMASS  =  -3.00    Nose mass-parameter (am)
   estimated Nose-frequenzy (Omega)   =  0.10E-29 period in steps =****** mass=  -0.244E-26a.u.
   SCALEE = 1.0000    scale energy and forces
   NPACO  =    256;   APACO  = 16.0  distance and # of slots for P.C.
   PSTRESS=    0.0 pullay stress

  Mass of Ions in am
   POMASS =  55.85
  Ionic Valenz
   ZVAL   =   8.00
  Atomic Wigner-Seitz radii
   RWIGS  =  -1.00
  virtual crystal weights 
   VCA    =   1.00
   NELECT =     864.0000    total number of electrons
   NUPDOWN=      -1.0000    fix difference up-down

 DOS related values:
   EMIN   =  10.00;   EMAX   =-10.00  energy-range for DOS
   EFERMI =   0.00
   ISMEAR =     1;   SIGMA  =   0.20  broadening in eV -4-tet -1-fermi 0-gaus

 Electronic relaxation 2 (details)
   IALGO  =     68    algorithm
   LDIAG  =      T    sub-space diagonalisation (order eigenvalues)
   LSUBROT=      F    optimize rotation matrix (better conditioning)
   TURBO    =      0    0=normal 1=particle mesh
   IRESTART =      0    0=no restart 2=restart with 2 vectors
   NREBOOT  =      0    no. of reboots
   NMIN     =      0    reboot dimension
   EREF     =   0.00    reference energy to select bands
   IMIX   =      4    mixing-type and parameters
     AMIX     =   0.40;   BMIX     =  1.00
     AMIX_MAG =   1.60;   BMIX_MAG =  1.00
     AMIN     =   0.10
     WC   =   100.;   INIMIX=   1;  MIXPRE=   1;  MAXMIX= -45

 Intra band minimization:
   WEIMIN = 0.0010     energy-eigenvalue tresh-hold
   EBREAK =  0.48E-09  absolut break condition
   DEPER  =   0.30     relativ break condition  

   TIME   =   0.40     timestep for ELM

  volume/ion in A,a.u.               =      10.22        68.97
  Fermi-wavevector in a.u.,A,eV,Ry     =   1.508720  2.851068 30.970078  2.276236
  Thomas-Fermi vector in A             =   2.619137
 
 Write flags
   LWAVE        =      F    write WAVECAR
   LDOWNSAMPLE  =      F    k-point downsampling of WAVECAR
   LCHARG       =      F    write CHGCAR
   LVTOT        =      F    write LOCPOT, total local potential
   LVHAR        =      F    write LOCPOT, Hartree potential only
   LELF         =      F    write electronic localiz. function (ELF)
   LORBIT       =      0    0 simple, 1 ext, 2 COOP (PROOUT), +10 PAW based schemes


 Dipole corrections
   LMONO  =      F    monopole corrections only (constant potential shift)
   LDIPOL =      F    correct potential (dipole corrections)
   IDIPOL =      0    1-x, 2-y, 3-z, 4-all directions 
   EPSILON=  1.0000000 bulk dielectric constant

 Exchange correlation treatment:
   GGA     =    --    GGA type
   LEXCH   =     8    internal setting for exchange type
   VOSKOWN=      0    Vosko Wilk Nusair interpolation
   LHFCALC =     F    Hartree Fock is set to
   LHFONE  =     F    Hartree Fock one center treatment
   AEXX    =    0.0000 exact exchange contribution

 Linear response parameters
   LEPSILON=     F    determine dielectric tensor
   LRPA    =     F    only Hartree local field effects (RPA)
   LNABLA  =     F    use nabla operator in PAW spheres
   LVEL    =     F    velocity operator in full k-point grid
   LINTERFAST=   F  fast interpolation
   KINTER  =     0    interpolate to denser k-point grid
   CSHIFT  =0.1000    complex shift for real part using Kramers Kronig
   OMEGAMAX=  -1.0    maximum frequency
   DEG_THRESHOLD= 0.2000000E-02 threshold for treating states as degnerate
   RTIME   =   -0.100 relaxation time in fs
  (WPLASMAI=    0.000 imaginary part of plasma frequency in eV, 0.658/RTIME)
   DFIELD  = 0.0000000 0.0000000 0.0000000 field for delta impulse in time
 
 Orbital magnetization related:
   ORBITALMAG=     F  switch on orbital magnetization
   LCHIMAG   =     F  perturbation theory with respect to B field
   DQ        =  0.001000  dq finite difference perturbation B field
   LLRAUG    =     F  two centre corrections for induced B field



--------------------------------------------------------------------------------------------------------


 conjugate gradient relaxation of ions
 charge density and potential will be updated during run
 non-spin polarized calculation
 RMM-DIIS sequential band-by-band and
  variant of blocked Davidson during initial phase
 perform sub-space diagonalisation
    before iterative eigenvector-optimisation
 modified Broyden-mixing scheme, WC =      100.0
 initial mixing is a Kerker type mixing with AMIX =  0.4000 and BMIX =      1.0000
 Hartree-type preconditioning will be used
 using additional bands           86
 real space projection scheme for non local part
 use partial core corrections
 calculate Harris-corrections to forces 
   (improved forces if not selfconsistent)
 use gradient corrections 
 use of overlap-Matrix (Vanderbilt PP)
 Methfessel and Paxton  Order N= 1 SIGMA  =   0.20


--------------------------------------------------------------------------------------------------------


  energy-cutoff  :      400.00
  volume of cell :     1103.86
      direct lattice vectors                 reciprocal lattice vectors
    10.334847047  0.000000000  0.000000000     0.096760019  0.000000000  0.000000000
     0.000000000 10.334847047  0.000000000     0.000000000  0.096760019  0.000000000
     0.000000000  0.000000000 10.334847047     0.000000000  0.000000000  0.096760019

  length of vectors
    10.334847047 10.334847047 10.334847047     0.096760019  0.096760019  0.096760019


 
 k-points in units of 2pi/SCALE and weight: pymatgen generated KPOINTS with grid den
   0.00000000  0.00000000  0.00000000       0.003
   0.01382286  0.00000000  0.00000000       0.017
   0.02764572  0.00000000  0.00000000       0.017
   0.04146858  0.00000000  0.00000000       0.017
   0.01382286  0.01382286  0.00000000       0.035
   0.02764572  0.01382286  0.00000000       0.070
   0.04146858  0.01382286  0.00000000       0.070
   0.02764572  0.02764572  0.00000000       0.035
   0.04146858  0.02764572  0.00000000       0.070
   0.04146858  0.04146858  0.00000000       0.035
   0.01382286  0.01382286  0.01382286       0.023
   0.02764572  0.01382286  0.01382286       0.070
   0.04146858  0.01382286  0.01382286       0.070
   0.02764572  0.02764572  0.01382286       0.070
   0.04146858  0.02764572  0.01382286       0.140
   0.04146858  0.04146858  0.01382286       0.070
   0.02764572  0.02764572  0.02764572       0.023
   0.04146858  0.02764572  0.02764572       0.070
   0.04146858  0.04146858  0.02764572       0.070
   0.04146858  0.04146858  0.04146858       0.023
 
 k-points in reciprocal lattice and weights: pymatgen generated KPOINTS with grid den
   0.00000000  0.00000000  0.00000000       0.003
   0.14285714  0.00000000  0.00000000       0.017
   0.28571429  0.00000000  0.00000000       0.017
   0.42857143  0.00000000  0.00000000       0.017
   0.14285714  0.14285714  0.00000000       0.035
   0.28571429  0.14285714  0.00000000       0.070
   0.42857143  0.14285714  0.00000000       0.070
   0.28571429  0.28571429  0.00000000       0.035
   0.42857143  0.28571429  0.00000000       0.070
   0.42857143  0.42857143  0.00000000       0.035
   0.14285714  0.14285714  0.14285714       0.023
   0.28571429  0.14285714  0.14285714       0.070
   0.42857143  0.14285714  0.14285714       0.070
   0.28571429  0.28571429  0.14285714       0.070
   0.42857143  0.28571429  0.14285714       0.140
   0.42857143  0.42857143  0.14285714       0.070
   0.28571429  0.28571429  0.28571429       0.023
   0.42857143  0.28571429  0.28571429       0.070
   0.42857143  0.42857143  0.28571429       0.070
   0.42857143  0.42857143  0.42857143       0.023
 
 position of ions in fractional coordinates (direct lattice) 
   0.00000000  0.00000000  0.00000000
   0.00000000  0.16666893  0.16666893
   0.16666893  0.00000000  0.16666893
   0.16666893  0.16666893  0.00000000
   0.33333106  0.00000000  0.00000000
   0.33333107  0.16666893  0.16666893
   0.50000000  0.00000000  0.16666894
   0.50000000  0.16666894  0.00000000
   0.66666897  0.00000000  0.00000000
   0.66666896  0.16666893  0.16666893
   0.83333104  0.00000000  0.16666893
   0.83333104  0.16666893  0.00000000
   0.00000000  0.33333106  0.00000000
   0.00000000  0.50000000  0.16666894
   0.16666893  0.33333107  0.16666893
   0.16666894  0.50000000  0.00000000
   0.33333107  0.33333107  0.00000000
   0.33333107  0.50000000  0.16666893
   0.50000000  0.33333107  0.16666893
   0.50000000  0.50000000  0.00000000
   0.66666896  0.33333107  0.00000000
   0.66666896  0.50000000  0.16666893
   0.83333104  0.33333107  0.16666893
   0.83333103  0.50000000  0.00000000
   0.00000000  0.66666897  0.00000000
   0.00000000  0.83333104  0.16666893
   0.16666893  0.66666896  0.16666893
   0.16666893  0.83333104  0.00000000
   0.33333107  0.66666896  0.00000000
   0.33333107  0.83333104  0.16666893
   0.50000000  0.66666896  0.16666893
   0.50000000  0.83333103  0.00000000
   0.66666896  0.66666896  0.00000000
   0.66666896  0.83333104  0.16666893
   0.83333104  0.66666896  0.16666893
   0.83333104  0.83333104  0.00000000
   0.00000000  0.00000000  0.33333106
   0.00000000  0.16666894  0.50000000
   0.16666894  0.00000000  0.50000000
   0.16666893  0.16666893  0.33333107
   0.33333107  0.00000000  0.33333107
   0.33333107  0.16666893  0.50000000
   0.50000000  0.00000000  0.50000000
   0.50000000  0.16666893  0.33333107
   0.66666896  0.00000000  0.33333107
   0.66666896  0.16666893  0.50000000
   0.83333103  0.00000000  0.50000000
   0.83333104  0.16666893  0.33333107
   0.00000000  0.33333107  0.33333107
   0.00000000  0.50000000  0.50000000
   0.16666893  0.33333107  0.50000000
   0.16666893  0.50000000  0.33333107
   0.33333107  0.33333107  0.33333107
   0.33333106  0.50000000  0.50000000
   0.50000000  0.33333106  0.50000000
   0.50000000  0.50000000  0.33333106
   0.66666896  0.33333107  0.33333107
   0.66666897  0.50000000  0.50000000
   0.83333104  0.33333107  0.50000000
   0.83333104  0.50000000  0.33333107
   0.00000000  0.66666896  0.33333107
   0.00000000  0.83333103  0.50000000
   0.16666893  0.66666896  0.50000000
   0.16666893  0.83333104  0.33333107
   0.33333107  0.66666896  0.33333107
   0.33333107  0.83333104  0.50000000
   0.50000000  0.66666897  0.50000000
   0.50000000  0.83333104  0.33333107
   0.66666896  0.66666896  0.33333107
   0.66666896  0.83333104  0.50000000
   0.83333104  0.66666896  0.50000000
   0.83333104  0.83333104  0.33333107
   0.00000000  0.00000000  0.66666897
   0.00000000  0.16666893  0.83333104
   0.16666893  0.00000000  0.83333104
   0.16666893  0.16666893  0.66666896
   0.33333107  0.00000000  0.66666896
   0.33333107  0.16666893  0.83333104
   0.50000000  0.00000000  0.83333103
   0.50000000  0.16666893  0.66666896
   0.66666896  0.00000000  0.66666896
   0.66666896  0.16666893  0.83333104
   0.83333104  0.00000000  0.83333104
   0.83333104  0.16666893  0.66666896
   0.00000000  0.33333107  0.66666896
   0.00000000  0.50000000  0.83333103
   0.16666893  0.33333107  0.83333104
   0.16666893  0.50000000  0.66666896
   0.33333107  0.33333107  0.66666896
   0.33333107  0.50000000  0.83333104
   0.50000000  0.33333107  0.83333104
   0.50000000  0.50000000  0.66666897
   0.66666896  0.33333107  0.66666896
   0.66666896  0.50000000  0.83333104
   0.83333104  0.33333107  0.83333104
   0.83333104  0.50000000  0.66666896
   0.00000000  0.66666896  0.66666896
   0.00000000  0.83333104  0.83333104
   0.16666893  0.66666896  0.83333104
   0.16666893  0.83333104  0.66666896
   0.33333107  0.66666896  0.66666896
   0.33333107  0.83333104  0.83333104
   0.50000000  0.66666896  0.83333104
   0.50000000  0.83333104  0.66666896
   0.66666896  0.66666896  0.66666896
   0.66666896  0.83333104  0.83333104
   0.83333104  0.66666896  0.83333104
   0.83333104  0.83333104  0.66666896
 
 position of ions in cartesian coordinates  (Angst):
   0.00000000  0.00000000  0.00000000
   0.00000000  1.72249793  1.72249793
   1.72249793  0.00000000  1.72249793
   1.72249793  1.72249793  0.00000000
   3.44492554  0.00000000  0.00000000
   3.44492559  1.72249794  1.72249794
   5.16742352  0.00000000  1.72249798
   5.16742352  1.72249798  0.00000000
   6.88992180  0.00000000  0.00000000
   6.88992176  1.72249794  1.72249794
   8.61234881  0.00000000  1.72249793
   8.61234881  1.72249793  0.00000000
   0.00000000  3.44492554  0.00000000
   0.00000000  5.16742352  1.72249798
   1.72249794  3.44492559  1.72249794
   1.72249798  5.16742352  0.00000000
   3.44492559  3.44492559  0.00000000
   3.44492559  5.16742352  1.72249793
   5.16742352  3.44492559  1.72249793
   5.16742352  5.16742352  0.00000000
   6.88992176  3.44492559  0.00000000
   6.88992176  5.16742352  1.72249793
   8.61234881  3.44492559  1.72249794
   8.61234877  5.16742352  0.00000000
   0.00000000  6.88992180  0.00000000
   0.00000000  8.61234881  1.72249793
   1.72249794  6.88992176  1.72249794
   1.72249793  8.61234881  0.00000000
   3.44492559  6.88992176  0.00000000
   3.44492559  8.61234881  1.72249794
   5.16742352  6.88992176  1.72249793
   5.16742352  8.61234877  0.00000000
   6.88992176  6.88992176  0.00000000
   6.88992176  8.61234881  1.72249794
   8.61234881  6.88992176  1.72249794
   8.61234881  8.61234881  0.00000000
   0.00000000  0.00000000  3.44492554
   0.00000000  1.72249798  5.16742352
   1.72249798  0.00000000  5.16742352
   1.72249794  1.72249794  3.44492559
   3.44492559  0.00000000  3.44492559
   3.44492559  1.72249793  5.16742352
   5.16742352  0.00000000  5.16742352
   5.16742352  1.72249793  3.44492559
   6.88992176  0.00000000  3.44492559
   6.88992176  1.72249793  5.16742352
   8.61234877  0.00000000  5.16742352
   8.61234881  1.72249794  3.44492559
   0.00000000  3.44492559  3.44492559
   0.00000000  5.16742352  5.16742352
   1.72249793  3.44492559  5.16742352
   1.72249793  5.16742352  3.44492559
   3.44492559  3.44492559  3.44492559
   3.44492554  5.16742352  5.16742352
   5.16742352  3.44492554  5.16742352
   5.16742352  5.16742352  3.44492554
   6.88992176  3.44492559  3.44492559
   6.88992180  5.16742352  5.16742352
   8.61234881  3.44492559  5.16742352
   8.61234881  5.16742352  3.44492559
   0.00000000  6.88992176  3.44492559
   0.00000000  8.61234877  5.16742352
   1.72249793  6.88992176  5.16742352
   1.72249794  8.61234881  3.44492559
   3.44492559  6.88992176  3.44492559
   3.44492559  8.61234881  5.16742352
   5.16742352  6.88992180  5.16742352
   5.16742352  8.61234881  3.44492559
   6.88992176  6.88992176  3.44492559
   6.88992176  8.61234881  5.16742352
   8.61234881  6.88992176  5.16742352
   8.61234881  8.61234881  3.44492559
   0.00000000  0.00000000  6.88992180
   0.00000000  1.72249793  8.61234881
   1.72249793  0.00000000  8.61234881
   1.72249794  1.72249794  6.88992176
   3.44492559  0.00000000  6.88992176
   3.44492559  1.72249794  8.61234881
   5.16742352  0.00000000  8.61234877
   5.16742352  1.72249793  6.88992176
   6.88992176  0.00000000  6.88992176
   6.88992176  1.72249794  8.61234881
   8.61234881  0.00000000  8.61234881
   8.61234881  1.72249794  6.88992176
   0.00000000  3.44492559  6.88992176
   0.00000000  5.16742352  8.61234877
   1.72249794  3.44492559  8.61234881
   1.72249793  5.16742352  6.88992176
   3.44492559  3.44492559  6.88992176
   3.44492559  5.16742352  8.61234881
   5.16742352  3.44492559  8.61234881
   5.16742352  5.16742352  6.88992180
   6.88992176  3.44492559  6.88992176
   6.88992176  5.16742352  8.61234881
   8.61234881  3.44492559  8.61234881
   8.61234881  5.16742352  6.88992176
   0.00000000  6.88992176  6.88992176
   0.00000000  8.61234881  8.61234881
   1.72249794  6.88992176  8.61234881
   1.72249794  8.61234881  6.88992176
   3.44492559  6.88992176  6.88992176
   3.44492559  8.61234881  8.61234881
   5.16742352  6.88992176  8.61234881
   5.16742352  8.61234881  6.88992176
   6.88992176  6.88992176  6.88992176
   6.88992176  8.61234881  8.61234881
   8.61234881  6.88992176  8.61234881
   8.61234881  8.61234881  6.88992176
 


--------------------------------------------------------------------------------------------------------


 k-point  1 :   0.0000 0.0000 0.0000  plane waves:   20005
 k-point  2 :   0.1429 0.0000 0.0000  plane waves:   20041
 k-point  3 :   0.2857 0.0000 0.0000  plane waves:   20050
 k-point  4 :   0.4286 0.0000 0.0000  plane waves:   20058
 k-point  5 :   0.1429 0.1429 0.0000  plane waves:   20010
 k-point  6 :   0.2857 0.1429 0.0000  plane waves:   20045
 k-point  7 :   0.4286 0.1429 0.0000  plane waves:   20045
 k-point  8 :   0.2857 0.2857 0.0000  plane waves:   20086
 k-point  9 :   0.4286 0.2857 0.0000  plane waves:   20049
 k-point 10 :   0.4286 0.4286 0.0000  plane waves:   20060
 k-point 11 :   0.1429 0.1429 0.1429  plane waves:   20017
 k-point 12 :   0.2857 0.1429 0.1429  plane waves:   20045
 k-point 13 :   0.4286 0.1429 0.1429  plane waves:   20057
 k-point 14 :   0.2857 0.2857 0.1429  plane waves:   20045
 k-point 15 :   0.4286 0.2857 0.1429  plane waves:   20046
 k-point 16 :   0.4286 0.4286 0.1429  plane waves:   20065
 k-point 17 :   0.2857 0.2857 0.2857  plane waves:   20069
 k-point 18 :   0.4286 0.2857 0.2857  plane waves:   20039
 k-point 19 :   0.4286 0.4286 0.2857  plane waves:   20085
 k-point 20 :   0.4286 0.4286 0.4286  plane waves:   20057

 maximum and minimum number of plane-waves per node :      5043     4977

 maximum number of plane-waves:     20086
 maximum index in each direction: 
   IXMAX=   16   IYMAX=   16   IZMAX=   16
   IXMIN=  -17   IYMIN=  -17   IZMIN=  -17


 real space projection operators:
  total allocation   :      71821.69 KBytes
  max/ min on nodes  :      18240.19      17708.62


 parallel 3D FFT for wavefunctions:
    minimum data exchange during FFTs selected (reduces bandwidth)
 parallel 3D FFT for charge:
    minimum data exchange during FFTs selected (reduces bandwidth)


 total amount of memory used by VASP MPI-rank0   557413. kBytes
=======================================================================

   base      :      30000. kBytes
   nonlr-proj:      31400. kBytes
   fftplans  :      15433. kBytes
   grid      :      21835. kBytes
   one-center:        419. kBytes
   wavefun   :     458326. kBytes
 
     INWAV:  cpu time    0.0000: real time    0.0004
 Broyden mixing: mesh for mixing (old mesh)
   NGX = 33   NGY = 33   NGZ = 33
  (NGX  =144   NGY  =144   NGZ  =144)
  gives a total of  35937 points

 initial charge density was supplied:
 charge density of overlapping atoms calculated
 number of electron     864.0000000 magnetization 
 keeping initial charge density in first step


--------------------------------------------------------------------------------------------------------


 Maximum index for non-local projection operator         1201
 Maximum index for augmentation-charges         1463 (set IRDMAX)


--------------------------------------------------------------------------------------------------------


 First call to EWALD:  gamma=   0.172
 Maximum number of real-space cells 3x 3x 3
 Maximum number of reciprocal cells 3x 3x 3

    FEWALD:  cpu time    0.0103: real time    0.0103


--------------------------------------- Iteration      1(   1)  ---------------------------------------


    POTLOK:  cpu time    0.2994: real time    0.3110
    SETDIJ:  cpu time    0.0527: real time    0.0528
     EDDAV:  cpu time  202.7872: real time  202.9403
       DOS:  cpu time    0.0194: real time    0.0194
    --------------------------------------------
      LOOP:  cpu time  203.1587: real time  203.3235

 eigenvalue-minimisations  : 20760
 total energy-change (2. order) : 0.7597726E+04  (-0.2885733E+05)
 number of electron     864.0000000 magnetization 
 augmentation part      864.0000000 magnetization 

 Free energy of the ion-electron system (eV)
  ---------------------------------------------------
  alpha Z        PSCENC =      7300.31925852
  Ewald energy   TEWEN  =    -66232.83996889
  -Hartree energ DENC   =    -11197.02572337
  -exchange      EXHF   =         0.00000000
  -V(xc)+E(xc)   XCENC  =       446.63038354
  PAW double counting   =     51723.88885462   -52548.28121372
  entropy T*S    EENTRO =        -0.00308784
  eigenvalues    EBANDS =     13903.36696737
  atomic energy  EATOM  =     64201.67088057
  Solvation  Ediel_sol  =         0.00000000
  ---------------------------------------------------
  free energy    TOTEN  =      7597.72635081 eV

  energy without entropy =     7597.72943865  energy(sigma->0) =     7597.72738009


--------------------------------------------------------------------------------------------------------




--------------------------------------- Iteration      1(   2)  ---------------------------------------


     EDDAV:  cpu time  189.1051: real time  189.1476
       DOS:  cpu time    0.0296: real time    0.0296
    --------------------------------------------
      LOOP:  cpu time  189.1347: real time  189.1771

 eigenvalue-minimisations  : 20720
 total energy-change (2. order) :-0.7620688E+04  (-0.7451775E+04)
 number of electron     864.0000000 magnetization 
 augmentation part      864.0000000 magnetization 

 Free energy of the ion-electron system (eV)
  ---------------------------------------------------
  alpha Z        PSCENC =      7300.31925852
  Ewald energy   TEWEN  =    -66232.83996889
  -Hartree energ DENC   =    -11197.02572337
  -exchange      EXHF   =         0.00000000
  -V(xc)+E(xc)   XCENC  =       446.63038354
  PAW double counting   =     51723.88885462   -52548.28121372
  entropy T*S    EENTRO =         0.00269916
  eigenvalues    EBANDS =      6282.67358341
  atomic energy  EATOM  =     64201.67088057
  Solvation  Ediel_sol  =         0.00000000
  ---------------------------------------------------
  free energy    TOTEN  =       -22.96124615 eV

  energy without entropy =      -22.96394531  energy(sigma->0) =      -22.96214587


--------------------------------------------------------------------------------------------------------




--------------------------------------- Iteration      1(   3)  ---------------------------------------


     EDDAV:  cpu time  195.8601: real time  195.8756
       DOS:  cpu time    0.0342: real time    0.0342
    --------------------------------------------
      LOOP:  cpu time  195.8943: real time  195.9098

 eigenvalue-minimisations  : 20904
 total energy-change (2. order) :-0.8285006E+03  (-0.7085416E+03)
 number of electron     864.0000000 magnetization 
 augmentation part      864.0000000 magnetization 

 Free energy of the ion-electron system (eV)
  ---------------------------------------------------
  alpha Z        PSCENC =      7300.31925852
  Ewald energy   TEWEN  =    -66232.83996889
  -Hartree energ DENC   =    -11197.02572337
  -exchange      EXHF   =         0.00000000
  -V(xc)+E(xc)   XCENC  =       446.63038354
  PAW double counting   =     51723.88885462   -52548.28121372
  entropy T*S    EENTRO =         0.02211622
  eigenvalues    EBANDS =      5454.15359968
  atomic energy  EATOM  =     64201.67088057
  Solvation  Ediel_sol  =         0.00000000
  ---------------------------------------------------
  free energy    TOTEN  =      -851.46181283 eV

  energy without entropy =     -851.48392904  energy(sigma->0) =     -851.46918490


--------------------------------------------------------------------------------------------------------




--------------------------------------- Iteration      1(   4)  ---------------------------------------


     EDDAV:  cpu time  322.0448: real time  322.1359
       DOS:  cpu time    0.0350: real time    0.0350
    --------------------------------------------
      LOOP:  cpu time  322.0798: real time  322.1709

 eigenvalue-minimisations  : 37528
 total energy-change (2. order) :-0.1784005E+03  (-0.1673418E+03)
 number of electron     864.0000000 magnetization 
 augmentation part      864.0000000 magnetization 

 Free energy of the ion-electron system (eV)
  ---------------------------------------------------
  alpha Z        PSCENC =      7300.31925852
  Ewald energy   TEWEN  =    -66232.83996889
  -Hartree energ DENC   =    -11197.02572337
  -exchange      EXHF   =         0.00000000
  -V(xc)+E(xc)   XCENC  =       446.63038354
  PAW double counting   =     51723.88885462   -52548.28121372
  entropy T*S    EENTRO =         0.07558422
  eigenvalues    EBANDS =      5275.69959366
  atomic energy  EATOM  =     64201.67088057
  Solvation  Ediel_sol  =         0.00000000
  ---------------------------------------------------
  free energy    TOTEN  =     -1029.86235085 eV

  energy without entropy =    -1029.93793506  energy(sigma->0) =    -1029.88754559


--------------------------------------------------------------------------------------------------------




--------------------------------------- Iteration      1(   5)  ---------------------------------------


     EDDAV:  cpu time  287.6861: real time  287.8576
       DOS:  cpu time    0.0362: real time    0.0362
    CHARGE:  cpu time    9.2777: real time    9.2817
    MIXING:  cpu time    0.0083: real time    0.0083
    --------------------------------------------
      LOOP:  cpu time  297.0083: real time  297.1838

 eigenvalue-minimisations  : 33080
 total energy-change (2. order) :-0.1521492E+02  (-0.1436174E+02)
 number of electron     864.0000693 magnetization 
 augmentation part      382.7909510 magnetization 

 Broyden mixing:
  rms(total) = 0.93437E+01    rms(broyden)= 0.93431E+01
  rms(prec ) = 0.11650E+02
  weight for this iteration     100.00

 Free energy of the ion-electron system (eV)
  ---------------------------------------------------
  alpha Z        PSCENC =      7300.31925852
  Ewald energy   TEWEN  =    -66232.83996889
  -Hartree energ DENC   =    -11197.02572337
  -exchange      EXHF   =         0.00000000
  -V(xc)+E(xc)   XCENC  =       446.63038354
  PAW double counting   =     51723.88885462   -52548.28121372
  entropy T*S    EENTRO =         0.09887087
  eigenvalues    EBANDS =      5260.46138247
  atomic energy  EATOM  =     64201.67088057
  Solvation  Ediel_sol  =         0.00000000
  ---------------------------------------------------
  free energy    TOTEN  =     -1045.07727538 eV

  energy without entropy =    -1045.17614625  energy(sigma->0) =    -1045.11023234


--------------------------------------------------------------------------------------------------------




--------------------------------------- Iteration      1(   6)  ---------------------------------------


    POTLOK:  cpu time    0.2786: real time    0.2790
    SETDIJ:  cpu time    0.0538: real time    0.0538
    EDDIAG:  cpu time   25.2552: real time   25.2561
  RMM-DIIS:  cpu time  117.9612: real time  118.0017
    ORTHCH:  cpu time    5.1944: real time    5.1946
       DOS:  cpu time    0.0385: real time    0.0385
    CHARGE:  cpu time    9.4899: real time    9.4904
    MIXING:  cpu time    0.0094: real time    0.0094
    --------------------------------------------
      LOOP:  cpu time  158.2811: real time  158.3235

 eigenvalue-minimisations  : 20721
 total energy-change (2. order) : 0.1676272E+03  (-0.1353614E+03)
 number of electron     864.0000780 magnetization 
 augmentation part      447.8501413 magnetization 

 Broyden mixing:
  rms(total) = 0.89955E+00    rms(broyden)= 0.89851E+00
  rms(prec ) = 0.97247E+00
  weight for this iteration     100.00

 eigenvalues of (default mixing * dielectric matrix)
  average eigenvalue GAMMA=   0.9480
  0.9480

 Free energy of the ion-electron system (eV)
  ---------------------------------------------------
  alpha Z        PSCENC =      7300.31925852
  Ewald energy   TEWEN  =    -66232.83996889
  -Hartree energ DENC   =     -9342.34919061
  -exchange      EXHF   =         0.00000000
  -V(xc)+E(xc)   XCENC  =       355.85185879
  PAW double counting   =     52445.48252211   -53026.29714341
  entropy T*S    EENTRO =         0.01671524
  eigenvalues    EBANDS =      3420.69494480
  atomic energy  EATOM  =     64201.67088057
  Solvation  Ediel_sol  =         0.00000000
  ---------------------------------------------------
  free energy    TOTEN  =      -877.45012286 eV

  energy without entropy =     -877.46683810  energy(sigma->0) =     -877.45569461


--------------------------------------------------------------------------------------------------------




--------------------------------------- Iteration      1(   7)  ---------------------------------------


    POTLOK:  cpu time    0.2803: real time    0.2815
    SETDIJ:  cpu time    0.0530: real time    0.0530
    EDDIAG:  cpu time   24.3109: real time   24.3191
  RMM-DIIS:  cpu time  128.0423: real time  128.0938
    ORTHCH:  cpu time    5.2298: real time    5.2299
       DOS:  cpu time    0.0385: real time    0.0385
    CHARGE:  cpu time    9.4962: real time    9.4965
    MIXING:  cpu time    0.0071: real time    0.0071
    --------------------------------------------
      LOOP:  cpu time  167.4580: real time  167.5194

 eigenvalue-minimisations  : 22603
 total energy-change (2. order) :-0.2825121E+01  (-0.1099718E+02)
 number of electron     864.0000752 magnetization 
 augmentation part      446.7854657 magnetization 

 Broyden mixing:
  rms(total) = 0.32844E+00    rms(broyden)= 0.32711E+00
  rms(prec ) = 0.36329E+00
  weight for this iteration     100.00

 eigenvalues of (default mixing * dielectric matrix)
  average eigenvalue GAMMA=   1.1022
  1.1022  1.1022

 Free energy of the ion-electron system (eV)
  ---------------------------------------------------
  alpha Z        PSCENC =      7300.31925852
  Ewald energy   TEWEN  =    -66232.83996889
  -Hartree energ DENC   =     -9384.43810906
  -exchange      EXHF   =         0.00000000
  -V(xc)+E(xc)   XCENC  =       360.41350605
  PAW double counting   =     54329.42505904   -55106.72643134
  entropy T*S    EENTRO =         0.03679658
  eigenvalues    EBANDS =      3651.86376438
  atomic energy  EATOM  =     64201.67088057
  Solvation  Ediel_sol  =         0.00000000
  ---------------------------------------------------
  free energy    TOTEN  =      -880.27524414 eV

  energy without entropy =     -880.31204072  energy(sigma->0) =     -880.28750967


--------------------------------------------------------------------------------------------------------




--------------------------------------- Iteration      1(   8)  ---------------------------------------


    POTLOK:  cpu time    0.2837: real time    0.2844
    SETDIJ:  cpu time    0.0546: real time    0.0546
    EDDIAG:  cpu time   25.3050: real time   25.3063
  RMM-DIIS:  cpu time  123.9816: real time  124.0378
    ORTHCH:  cpu time    5.1500: real time    5.1502
       DOS:  cpu time    0.0397: real time    0.0397
    CHARGE:  cpu time    9.0659: real time    9.0700
    MIXING:  cpu time    0.0083: real time    0.0083
    --------------------------------------------
      LOOP:  cpu time  163.8887: real time  163.9512

 eigenvalue-minimisations  : 22069
 total energy-change (2. order) : 0.8769335E+00  (-0.1274887E+01)
 number of electron     864.0000749 magnetization 
 augmentation part      443.1677190 magnetization 

 Broyden mixing:
  rms(total) = 0.47171E+00    rms(broyden)= 0.47161E+00
  rms(prec ) = 0.63260E+00
  weight for this iteration     100.00

 eigenvalues of (default mixing * dielectric matrix)
  average eigenvalue GAMMA=   0.8250
  1.0069  1.2306  0.2373

 Free energy of the ion-electron system (eV)
  ---------------------------------------------------
  alpha Z        PSCENC =      7300.31925852
  Ewald energy   TEWEN  =    -66232.83996889
  -Hartree energ DENC   =     -9414.84774330
  -exchange      EXHF   =         0.00000000
  -V(xc)+E(xc)   XCENC  =       363.03811689
  PAW double counting   =     56147.13662447   -57033.94909299
  entropy T*S    EENTRO =         0.04914550
  eigenvalues    EBANDS =      3790.02446857
  atomic energy  EATOM  =     64201.67088057
  Solvation  Ediel_sol  =         0.00000000
  ---------------------------------------------------
  free energy    TOTEN  =      -879.39831065 eV

  energy without entropy =     -879.44745615  energy(sigma->0) =     -879.41469248


--------------------------------------------------------------------------------------------------------




--------------------------------------- Iteration      1(   9)  ---------------------------------------


    POTLOK:  cpu time    0.2705: real time    0.2709
    SETDIJ:  cpu time    0.0528: real time    0.0528
    EDDIAG:  cpu time   24.9395: real time   24.9594
  RMM-DIIS:  cpu time  156.3908: real time  156.4637
    ORTHCH:  cpu time    5.1192: real time    5.1270
       DOS:  cpu time    0.0385: real time    0.0385
    CHARGE:  cpu time    9.4844: real time    9.4846
    MIXING:  cpu time    0.0080: real time    0.0080
    --------------------------------------------
      LOOP:  cpu time  196.3037: real time  196.4051

 eigenvalue-minimisations  : 28237
 total energy-change (2. order) :-0.3060858E+00  (-0.4456551E+00)
 number of electron     864.0000751 magnetization 
 augmentation part      443.8713961 magnetization 

 Broyden mixing:
  rms(total) = 0.31925E+00    rms(broyden)= 0.31901E+00
  rms(prec ) = 0.41991E+00
  weight for this iteration     100.00

 eigenvalues of (default mixing * dielectric matrix)
  average eigenvalue GAMMA=   1.1361
  2.3709  1.0310  1.0310  0.1114

 Free energy of the ion-electron system (eV)
  ---------------------------------------------------
  alpha Z        PSCENC =      7300.31925852
  Ewald energy   TEWEN  =    -66232.83996889
  -Hartree energ DENC   =     -9406.49330823
  -exchange      EXHF   =         0.00000000
  -V(xc)+E(xc)   XCENC  =       362.70814221
  PAW double counting   =     56319.28391099   -57212.60177434
  entropy T*S    EENTRO =         0.04591449
  eigenvalues    EBANDS =      3788.20254820
  atomic energy  EATOM  =     64201.67088057
  Solvation  Ediel_sol  =         0.00000000
  ---------------------------------------------------
  free energy    TOTEN  =      -879.70439647 eV

  energy without entropy =     -879.75031096  energy(sigma->0) =     -879.71970130


--------------------------------------------------------------------------------------------------------




--------------------------------------- Iteration      1(  10)  ---------------------------------------


    POTLOK:  cpu time    0.2811: real time    0.2818
    SETDIJ:  cpu time    0.0532: real time    0.0532
    EDDIAG:  cpu time   24.5779: real time   24.5912
  RMM-DIIS:  cpu time  140.8151: real time  140.8980
    ORTHCH:  cpu time    5.1456: real time    5.1457
       DOS:  cpu time    0.0387: real time    0.0387
    CHARGE:  cpu time    9.3317: real time    9.3320
    MIXING:  cpu time    0.0080: real time    0.0080
    --------------------------------------------
      LOOP:  cpu time  180.2512: real time  180.3485

 eigenvalue-minimisations  : 26342
 total energy-change (2. order) : 0.1770224E+00  (-0.8847251E-01)
 number of electron     864.0000752 magnetization 
 augmentation part      444.8270637 magnetization 

 Broyden mixing:
  rms(total) = 0.59317E-01    rms(broyden)= 0.59136E-01
  rms(prec ) = 0.73316E-01
  weight for this iteration     100.00

 eigenvalues of (default mixing * dielectric matrix)
  average eigenvalue GAMMA=   1.2431
  2.6699  1.5205  0.9570  0.9570  0.1112

 Free energy of the ion-electron system (eV)
  ---------------------------------------------------
  alpha Z        PSCENC =      7300.31925852
  Ewald energy   TEWEN  =    -66232.83996889
  -Hartree energ DENC   =     -9333.16310277
  -exchange      EXHF   =         0.00000000
  -V(xc)+E(xc)   XCENC  =       359.82182055
  PAW double counting   =     57796.27185661   -58736.96573654
  entropy T*S    EENTRO =         0.04752867
  eigenvalues    EBANDS =      3765.31008921
  atomic energy  EATOM  =     64201.67088057
  Solvation  Ediel_sol  =         0.00000000
  ---------------------------------------------------
  free energy    TOTEN  =      -879.52737406 eV

  energy without entropy =     -879.57490274  energy(sigma->0) =     -879.54321695


--------------------------------------------------------------------------------------------------------




--------------------------------------- Iteration      1(  11)  ---------------------------------------


    POTLOK:  cpu time    0.2702: real time    0.2722
    SETDIJ:  cpu time    0.0520: real time    0.0520
    EDDIAG:  cpu time   23.8026: real time   23.8140
  RMM-DIIS:  cpu time  159.0271: real time  159.0710
    ORTHCH:  cpu time    5.1872: real time    5.1873
       DOS:  cpu time    0.0367: real time    0.0367
    CHARGE:  cpu time    9.4603: real time    9.4605
    MIXING:  cpu time    0.0103: real time    0.0103
    --------------------------------------------
      LOOP:  cpu time  197.8462: real time  197.9039

 eigenvalue-minimisations  : 29040
 total energy-change (2. order) :-0.1240283E-01  (-0.1321929E-01)
 number of electron     864.0000753 magnetization 
 augmentation part      444.8967693 magnetization 

 Broyden mixing:
  rms(total) = 0.50040E-01    rms(broyden)= 0.50039E-01
  rms(prec ) = 0.63108E-01
  weight for this iteration     100.00

 eigenvalues of (default mixing * dielectric matrix)
  average eigenvalue GAMMA=   1.2445
  2.6726  1.9465  0.9613  0.9613  0.8139  0.1112

 Free energy of the ion-electron system (eV)
  ---------------------------------------------------
  alpha Z        PSCENC =      7300.31925852
  Ewald energy   TEWEN  =    -66232.83996889
  -Hartree energ DENC   =     -9337.00644966
  -exchange      EXHF   =         0.00000000
  -V(xc)+E(xc)   XCENC  =       360.02758351
  PAW double counting   =     58032.76659183   -58973.89688480
  entropy T*S    EENTRO =         0.04917916
  eigenvalues    EBANDS =      3769.37003287
  atomic energy  EATOM  =     64201.67088057
  Solvation  Ediel_sol  =         0.00000000
  ---------------------------------------------------
  free energy    TOTEN  =      -879.53977689 eV

  energy without entropy =     -879.58895605  energy(sigma->0) =     -879.55616994


--------------------------------------------------------------------------------------------------------




--------------------------------------- Iteration      1(  12)  ---------------------------------------


    POTLOK:  cpu time    0.2845: real time    0.2853
    SETDIJ:  cpu time    0.0526: real time    0.0526
    EDDIAG:  cpu time   24.5739: real time   24.5837
  RMM-DIIS:  cpu time  130.0881: real time  130.1127
    ORTHCH:  cpu time    5.1605: real time    5.1608
       DOS:  cpu time    0.0401: real time    0.0401
    CHARGE:  cpu time    9.0235: real time    9.0238
    MIXING:  cpu time    0.0096: real time    0.0096
    --------------------------------------------
      LOOP:  cpu time  169.2327: real time  169.2686

 eigenvalue-minimisations  : 23367
 total energy-change (2. order) : 0.4005881E-02  (-0.2169669E-02)
 number of electron     864.0000752 magnetization 
 augmentation part      444.6973886 magnetization 

 Broyden mixing:
  rms(total) = 0.13809E-01    rms(broyden)= 0.13809E-01
  rms(prec ) = 0.17469E-01
  weight for this iteration     100.00

 eigenvalues of (default mixing * dielectric matrix)
  average eigenvalue GAMMA=   1.2937
  2.4915  2.4915  1.1112  0.9841  0.9841  0.8827  0.1112

 Free energy of the ion-electron system (eV)
  ---------------------------------------------------
  alpha Z        PSCENC =      7300.31925852
  Ewald energy   TEWEN  =    -66232.83996889
  -Hartree energ DENC   =     -9346.51699775
  -exchange      EXHF   =         0.00000000
  -V(xc)+E(xc)   XCENC  =       360.44464738
  PAW double counting   =     58035.01223395   -58973.04325639
  entropy T*S    EENTRO =         0.05059700
  eigenvalues    EBANDS =      3775.36683459
  atomic energy  EATOM  =     64201.67088057
  Solvation  Ediel_sol  =         0.00000000
  ---------------------------------------------------
  free energy    TOTEN  =      -879.53577101 eV

  energy without entropy =     -879.58636801  energy(sigma->0) =     -879.55263668


--------------------------------------------------------------------------------------------------------




--------------------------------------- Iteration      1(  13)  ---------------------------------------


    POTLOK:  cpu time    0.2687: real time    0.2694
    SETDIJ:  cpu time    0.0529: real time    0.0529
    EDDIAG:  cpu time   24.8022: real time   24.8072
  RMM-DIIS:  cpu time  151.8907: real time  151.9820
    ORTHCH:  cpu time    5.1702: real time    5.1717
       DOS:  cpu time    0.0381: real time    0.0381
    CHARGE:  cpu time    9.2847: real time    9.2862
    MIXING:  cpu time    0.0093: real time    0.0093
    --------------------------------------------
      LOOP:  cpu time  191.5168: real time  191.6167

 eigenvalue-minimisations  : 27524
 total energy-change (2. order) :-0.2339528E-03  (-0.1068535E-02)
 number of electron     864.0000752 magnetization 
 augmentation part      444.5883413 magnetization 

 Broyden mixing:
  rms(total) = 0.36716E-02    rms(broyden)= 0.36698E-02
  rms(prec ) = 0.46306E-02
  weight for this iteration     100.00

 eigenvalues of (default mixing * dielectric matrix)
  average eigenvalue GAMMA=   1.2532
  2.5610  2.2654  0.1112  1.3976  0.9847  0.9847  0.8719  0.8492

 Free energy of the ion-electron system (eV)
  ---------------------------------------------------
  alpha Z        PSCENC =      7300.31925852
  Ewald energy   TEWEN  =    -66232.83996889
  -Hartree energ DENC   =     -9350.29506753
  -exchange      EXHF   =         0.00000000
  -V(xc)+E(xc)   XCENC  =       360.60529094
  PAW double counting   =     58025.23857410   -58961.51065898
  entropy T*S    EENTRO =         0.05139189
  eigenvalues    EBANDS =      3777.22429441
  atomic energy  EATOM  =     64201.67088057
  Solvation  Ediel_sol  =         0.00000000
  ---------------------------------------------------
  free energy    TOTEN  =      -879.53600496 eV

  energy without entropy =     -879.58739686  energy(sigma->0) =     -879.55313560


--------------------------------------------------------------------------------------------------------




--------------------------------------- Iteration      1(  14)  ---------------------------------------


    POTLOK:  cpu time    0.2633: real time    0.2644
    SETDIJ:  cpu time    0.0518: real time    0.0518
    EDDIAG:  cpu time   24.7162: real time   24.7170
  RMM-DIIS:  cpu time  153.2128: real time  153.3077
    ORTHCH:  cpu time    5.1731: real time    5.1777
       DOS:  cpu time    0.0389: real time    0.0389
    CHARGE:  cpu time    9.2670: real time    9.2819
    MIXING:  cpu time    0.0109: real time    0.0109
    --------------------------------------------
      LOOP:  cpu time  192.7341: real time  192.8504

 eigenvalue-minimisations  : 27811
 total energy-change (2. order) :-0.7377554E-04  (-0.7816729E-04)
 number of electron     864.0000752 magnetization 
 augmentation part      444.6036374 magnetization 

 Broyden mixing:
  rms(total) = 0.94406E-03    rms(broyden)= 0.94342E-03
  rms(prec ) = 0.12572E-02
  weight for this iteration     100.00

 eigenvalues of (default mixing * dielectric matrix)
  average eigenvalue GAMMA=   1.3741
  2.6367  2.3039  2.3039  0.1112  1.0244  1.0244  1.0468  1.0468  0.8690

 Free energy of the ion-electron system (eV)
  ---------------------------------------------------
  alpha Z        PSCENC =      7300.31925852
  Ewald energy   TEWEN  =    -66232.83996889
  -Hartree energ DENC   =     -9349.45269201
  -exchange      EXHF   =         0.00000000
  -V(xc)+E(xc)   XCENC  =       360.56858587
  PAW double counting   =     58023.31004253   -58959.69559072
  entropy T*S    EENTRO =         0.05181007
  eigenvalues    EBANDS =      3776.53159532
  atomic energy  EATOM  =     64201.67088057
  Solvation  Ediel_sol  =         0.00000000
  ---------------------------------------------------
  free energy    TOTEN  =      -879.53607874 eV

  energy without entropy =     -879.58788881  energy(sigma->0) =     -879.55334876


--------------------------------------------------------------------------------------------------------




--------------------------------------- Iteration      1(  15)  ---------------------------------------


    POTLOK:  cpu time    0.2639: real time    0.2649
    SETDIJ:  cpu time    0.0522: real time    0.0522
    EDDIAG:  cpu time   24.6929: real time   24.7026
  RMM-DIIS:  cpu time  142.8889: real time  142.9741
    ORTHCH:  cpu time    5.1560: real time    5.1622
       DOS:  cpu time    0.0393: real time    0.0393
    CHARGE:  cpu time    9.4143: real time    9.4160
    MIXING:  cpu time    0.0135: real time    0.0135
    --------------------------------------------
      LOOP:  cpu time  182.5210: real time  182.6247

 eigenvalue-minimisations  : 25910
 total energy-change (2. order) : 0.7720482E-05  ( 0.1288672E-04)
[...]
   0.105E-01 -.143E-04 -.103E-01   -.205E-01 0.277E-04 0.202E-01   0.601E-21 0.339E-20 -.580E-19   -.192E-07 0.391E-07 -.199E-07
   0.105E-01 0.103E-01 0.143E-04   -.205E-01 -.202E-01 -.277E-04   0.926E-21 0.187E-19 -.220E-19   -.192E-07 0.198E-07 -.391E-07
   -.105E-01 -.143E-04 0.143E-04   0.205E-01 0.277E-04 -.277E-04   -.424E-21 -.127E-20 0.229E-19   0.195E-07 0.391E-07 -.391E-07
   -.105E-01 0.104E-01 -.104E-01   0.205E-01 -.202E-01 0.202E-01   -.847E-21 -.287E-20 -.284E-19   0.194E-07 0.197E-07 -.198E-07
   -.143E-04 -.103E-01 -.103E-01   0.277E-04 0.202E-01 0.202E-01   -.847E-21 0.110E-19 0.339E-20   0.391E-07 -.199E-07 -.199E-07
   -.143E-04 0.143E-04 0.143E-04   0.277E-04 -.277E-04 -.277E-04   -.424E-21 -.140E-19 0.178E-19   0.391E-07 -.391E-07 -.391E-07
   0.103E-01 -.103E-01 0.143E-04   -.202E-01 0.202E-01 -.277E-04   -.104E-21 0.296E-20 -.720E-20   0.198E-07 -.199E-07 -.391E-07
   0.103E-01 0.143E-04 -.103E-01   -.202E-01 -.277E-04 0.202E-01   -.700E-21 0.974E-20 0.551E-19   0.198E-07 -.391E-07 -.199E-07
   -.104E-01 -.104E-01 -.104E-01   0.202E-01 0.202E-01 0.202E-01   0.000E+00 0.720E-20 0.000E+00   -.198E-07 -.198E-07 -.198E-07
   -.104E-01 0.143E-04 0.143E-04   0.203E-01 -.277E-04 -.277E-04   0.000E+00 -.720E-20 0.313E-19   -.197E-07 -.391E-07 -.391E-07
   0.143E-04 -.104E-01 0.143E-04   -.277E-04 0.203E-01 -.277E-04   0.000E+00 -.123E-19 -.212E-19   -.391E-07 -.197E-07 -.391E-07
   0.143E-04 0.143E-04 -.104E-01   -.277E-04 -.277E-04 0.203E-01   0.000E+00 -.551E-20 0.517E-19   -.391E-07 -.391E-07 -.197E-07
   0.105E-01 -.104E-01 -.104E-01   -.205E-01 0.202E-01 0.202E-01   0.126E-20 0.720E-20 0.364E-19   -.193E-07 -.198E-07 -.198E-07
   0.105E-01 0.143E-04 0.143E-04   -.205E-01 -.277E-04 -.277E-04   0.191E-20 0.339E-20 0.313E-19   -.194E-07 -.391E-07 -.391E-07
   -.105E-01 -.103E-01 0.143E-04   0.205E-01 0.202E-01 -.277E-04   -.424E-21 -.169E-20 -.889E-20   0.193E-07 -.199E-07 -.391E-07
   -.105E-01 0.143E-04 -.103E-01   0.205E-01 -.277E-04 0.202E-01   -.847E-21 -.678E-20 0.449E-19   0.193E-07 -.391E-07 -.199E-07
   -.143E-04 0.105E-01 -.103E-01   0.277E-04 -.205E-01 0.202E-01   -.127E-20 -.215E-20 0.652E-19   0.391E-07 -.192E-07 -.199E-07
   -.143E-04 -.105E-01 0.143E-04   0.277E-04 0.205E-01 -.277E-04   0.424E-21 0.191E-19 -.241E-19   0.391E-07 0.195E-07 -.391E-07
   0.103E-01 0.105E-01 0.143E-04   -.202E-01 -.205E-01 -.277E-04   -.688E-21 -.126E-19 0.000E+00   0.198E-07 -.192E-07 -.391E-07
   0.104E-01 -.105E-01 -.104E-01   -.202E-01 0.205E-01 0.202E-01   0.227E-20 0.551E-20 0.254E-20   0.197E-07 0.194E-07 -.198E-07
   -.104E-01 0.105E-01 -.104E-01   0.202E-01 -.205E-01 0.202E-01   0.000E+00 -.157E-19 0.517E-19   -.198E-07 -.193E-07 -.198E-07
   -.103E-01 -.105E-01 0.143E-04   0.202E-01 0.205E-01 -.277E-04   0.000E+00 0.000E+00 -.140E-19   -.199E-07 0.193E-07 -.391E-07
   0.143E-04 0.105E-01 0.143E-04   -.277E-04 -.205E-01 -.277E-04   0.000E+00 0.227E-20 -.377E-19   -.391E-07 -.194E-07 -.391E-07
   0.143E-04 -.105E-01 -.103E-01   -.277E-04 0.205E-01 0.202E-01   0.847E-21 -.466E-20 0.678E-20   -.391E-07 0.193E-07 -.199E-07
   0.105E-01 0.105E-01 -.104E-01   -.205E-01 -.205E-01 0.202E-01   0.294E-21 -.140E-19 0.500E-19   -.193E-07 -.193E-07 -.198E-07
   0.105E-01 -.105E-01 0.143E-04   -.205E-01 0.205E-01 -.277E-04   0.173E-20 -.123E-19 -.237E-19   -.192E-07 0.193E-07 -.391E-07
   -.105E-01 0.105E-01 0.143E-04   0.205E-01 -.205E-01 -.277E-04   -.424E-21 -.451E-20 0.805E-20   0.193E-07 -.192E-07 -.391E-07
   -.105E-01 -.105E-01 -.104E-01   0.205E-01 0.205E-01 0.202E-01   -.424E-21 -.339E-20 -.339E-20   0.194E-07 0.194E-07 -.198E-07
   -.143E-04 -.143E-04 0.105E-01   0.277E-04 0.277E-04 -.205E-01   0.000E+00 -.136E-19 0.262E-19   0.391E-07 0.391E-07 -.194E-07
   -.143E-04 0.103E-01 -.105E-01   0.277E-04 -.202E-01 0.205E-01   -.127E-20 -.174E-19 0.263E-19   0.391E-07 0.198E-07 0.193E-07
   0.103E-01 -.143E-04 -.105E-01   -.202E-01 0.277E-04 0.205E-01   -.381E-21 -.635E-20 -.178E-19   0.198E-07 0.391E-07 0.193E-07
   0.104E-01 0.104E-01 0.105E-01   -.202E-01 -.202E-01 -.205E-01   0.277E-20 0.108E-19 0.148E-20   0.197E-07 0.197E-07 -.193E-07
   -.103E-01 -.143E-04 0.105E-01   0.202E-01 0.277E-04 -.205E-01   0.000E+00 0.127E-20 0.431E-19   -.199E-07 0.391E-07 -.192E-07
   -.104E-01 0.104E-01 -.105E-01   0.202E-01 -.202E-01 0.205E-01   0.000E+00 0.966E-20 0.136E-19   -.198E-07 0.197E-07 0.194E-07
   0.143E-04 -.143E-04 -.105E-01   -.277E-04 0.277E-04 0.205E-01   0.127E-20 0.178E-19 -.174E-19   -.391E-07 0.391E-07 0.195E-07
   0.143E-04 0.103E-01 0.105E-01   -.277E-04 -.202E-01 -.205E-01   0.847E-21 -.272E-20 0.184E-19   -.391E-07 0.198E-07 -.192E-07
   0.105E-01 -.143E-04 0.105E-01   -.205E-01 0.277E-04 -.205E-01   -.137E-20 0.805E-20 0.262E-19   -.192E-07 0.391E-07 -.192E-07
   0.105E-01 0.104E-01 -.105E-01   -.205E-01 -.202E-01 0.205E-01   0.104E-20 0.147E-19 0.407E-19   -.193E-07 0.197E-07 0.194E-07
   -.105E-01 -.143E-04 -.105E-01   0.205E-01 0.277E-04 0.205E-01   0.000E+00 -.889E-20 -.127E-20   0.193E-07 0.391E-07 0.193E-07
   -.105E-01 0.104E-01 0.105E-01   0.205E-01 -.202E-01 -.205E-01   0.424E-21 0.405E-20 0.444E-20   0.194E-07 0.197E-07 -.193E-07
   -.143E-04 -.103E-01 0.105E-01   0.277E-04 0.202E-01 -.205E-01   0.000E+00 0.148E-19 0.496E-20   0.391E-07 -.199E-07 -.192E-07
   -.143E-04 0.143E-04 -.105E-01   0.277E-04 -.277E-04 0.205E-01   -.127E-20 -.119E-19 -.398E-19   0.391E-07 -.391E-07 0.195E-07
   0.104E-01 -.104E-01 -.105E-01   -.202E-01 0.202E-01 0.205E-01   0.926E-22 0.424E-20 -.296E-20   0.197E-07 -.198E-07 0.194E-07
   0.103E-01 0.143E-04 0.105E-01   -.202E-01 -.277E-04 -.205E-01   0.147E-20 -.847E-21 -.227E-19   0.198E-07 -.391E-07 -.192E-07
   -.104E-01 -.104E-01 0.105E-01   0.202E-01 0.202E-01 -.205E-01   0.000E+00 0.466E-20 -.521E-20   -.198E-07 -.198E-07 -.193E-07
   -.103E-01 0.143E-04 -.105E-01   0.202E-01 -.277E-04 0.205E-01   0.000E+00 -.119E-19 -.428E-19   -.199E-07 -.391E-07 0.193E-07
   0.143E-04 -.103E-01 -.105E-01   -.277E-04 0.202E-01 0.205E-01   -.424E-21 -.102E-19 0.106E-19   -.391E-07 -.199E-07 0.193E-07
   0.143E-04 0.143E-04 0.105E-01   -.277E-04 -.277E-04 -.205E-01   0.424E-21 -.762E-20 -.438E-19   -.391E-07 -.391E-07 -.194E-07
   0.105E-01 -.104E-01 0.105E-01   -.205E-01 0.202E-01 -.205E-01   -.427E-21 0.932E-20 -.154E-19   -.193E-07 -.198E-07 -.193E-07
   0.105E-01 0.143E-04 -.105E-01   -.205E-01 -.277E-04 0.205E-01   0.260E-20 0.169E-19 -.148E-19   -.192E-07 -.391E-07 0.193E-07
   -.105E-01 -.104E-01 -.105E-01   0.205E-01 0.202E-01 0.205E-01   0.000E+00 0.339E-20 0.762E-20   0.194E-07 -.198E-07 0.194E-07
   -.105E-01 0.143E-04 0.105E-01   0.205E-01 -.277E-04 -.205E-01   0.424E-21 -.254E-20 -.455E-19   0.193E-07 -.391E-07 -.192E-07
   -.143E-04 0.105E-01 0.105E-01   0.277E-04 -.205E-01 -.205E-01   -.424E-21 -.216E-19 -.793E-19   0.391E-07 -.192E-07 -.192E-07
   -.143E-04 -.105E-01 -.105E-01   0.277E-04 0.205E-01 0.205E-01   -.424E-21 0.131E-19 0.169E-20   0.391E-07 0.193E-07 0.193E-07
   0.104E-01 0.105E-01 -.105E-01   -.202E-01 -.205E-01 0.205E-01   0.118E-20 0.606E-20 0.593E-20   0.197E-07 -.193E-07 0.194E-07
   0.104E-01 -.105E-01 0.105E-01   -.202E-01 0.205E-01 -.205E-01   0.778E-21 0.508E-20 -.443E-20   0.197E-07 0.194E-07 -.193E-07
   -.104E-01 0.105E-01 0.105E-01   0.202E-01 -.205E-01 -.205E-01   0.000E+00 -.237E-19 -.806E-19   -.198E-07 -.193E-07 -.193E-07
   -.104E-01 -.105E-01 -.105E-01   0.202E-01 0.205E-01 0.205E-01   0.000E+00 0.635E-20 -.212E-20   -.198E-07 0.194E-07 0.194E-07
   0.143E-04 0.105E-01 -.105E-01   -.277E-04 -.205E-01 0.205E-01   -.424E-21 0.649E-20 0.178E-19   -.391E-07 -.192E-07 0.193E-07
   0.143E-04 -.105E-01 0.105E-01   -.277E-04 0.205E-01 -.205E-01   0.000E+00 0.974E-20 -.615E-21   -.391E-07 0.193E-07 -.192E-07
   0.105E-01 0.105E-01 0.105E-01   -.205E-01 -.205E-01 -.205E-01   -.428E-21 -.119E-19 -.429E-19   -.193E-07 -.193E-07 -.193E-07
   0.105E-01 -.105E-01 -.105E-01   -.205E-01 0.205E-01 0.205E-01   0.463E-22 -.127E-19 0.114E-19   -.193E-07 0.194E-07 0.194E-07
   -.105E-01 0.105E-01 -.105E-01   0.205E-01 -.205E-01 0.205E-01   0.000E+00 0.691E-20 0.263E-19   0.194E-07 -.193E-07 0.194E-07
   -.105E-01 -.105E-01 0.105E-01   0.205E-01 0.205E-01 -.205E-01   0.000E+00 -.466E-20 0.125E-19   0.194E-07 0.194E-07 -.193E-07
 -----------------------------------------------------------------------------------------------
   0.241E-10 0.578E-10 -.284E-10   0.199E-12 0.130E-14 -.809E-13   0.175E-19 -.772E-19 -.379E-18   0.100E-10 0.114E-10 0.993E-11
 
 
 POSITION                                       TOTAL-FORCE (eV/Angst)
 -----------------------------------------------------------------------------------
      0.00000      0.00000      0.00000        -0.000000      0.000000      0.000000
      0.00000      1.72250      1.72250        -0.000000     -0.000000      0.000000
      1.72250      0.00000      1.72250         0.000000     -0.000000      0.000000
      1.72250      1.72250      0.00000         0.000000     -0.000000     -0.000000
      3.44493      0.00000      0.00000        -0.000000     -0.000000     -0.000000
      3.44493      1.72250      1.72250         0.000000      0.000000      0.000000
      5.16742      0.00000      1.72250        -0.000000      0.000000      0.000000
      5.16742      1.72250      0.00000        -0.000000     -0.000000     -0.000000
      6.88992      0.00000      0.00000        -0.000000     -0.000000     -0.000000
      6.88992      1.72250      1.72250        -0.000000     -0.000000     -0.000000
      8.61235      0.00000      1.72250         0.000000      0.000000      0.000000
      8.61235      1.72250      0.00000         0.000000     -0.000000      0.000000
      0.00000      3.44493      0.00000         0.000000     -0.000000     -0.000000
      0.00000      5.16742      1.72250        -0.000000      0.000000     -0.000000
      1.72250      3.44493      1.72250        -0.000000     -0.000000     -0.000000
      1.72250      5.16742      0.00000         0.000000     -0.000000     -0.000000
      3.44493      3.44493      0.00000        -0.000000      0.000000      0.000000
      3.44493      5.16742      1.72250        -0.000000      0.000000     -0.000000
      5.16742      3.44493      1.72250        -0.000000     -0.000000     -0.000000
      5.16742      5.16742      0.00000         0.000000     -0.000000     -0.000000
      6.88992      3.44493      0.00000        -0.000000     -0.000000      0.000000
      6.88992      5.16742      1.72250        -0.000000      0.000000      0.000000
      8.61235      3.44493      1.72250        -0.000000      0.000000     -0.000000
      8.61235      5.16742      0.00000        -0.000000     -0.000000      0.000000
      0.00000      6.88992      0.00000         0.000000     -0.000000     -0.000000
      0.00000      8.61235      1.72250        -0.000000     -0.000000      0.000000
      1.72250      6.88992      1.72250         0.000000     -0.000000     -0.000000
      1.72250      8.61235      0.00000         0.000000      0.000000     -0.000000
      3.44493      6.88992      0.00000        -0.000000     -0.000000     -0.000000
      3.44493      8.61235      1.72250         0.000000      0.000000      0.000000
      5.16742      6.88992      1.72250        -0.000000      0.000000      0.000000
      5.16742      8.61235      0.00000         0.000000      0.000000      0.000000
      6.88992      6.88992      0.00000        -0.000000      0.000000     -0.000000
      6.88992      8.61235      1.72250        -0.000000      0.000000      0.000000
      8.61235      6.88992      1.72250        -0.000000     -0.000000     -0.000000
      8.61235      8.61235      0.00000        -0.000000      0.000000      0.000000
      0.00000      0.00000      3.44493         0.000000      0.000000     -0.000000
      0.00000      1.72250      5.16742        -0.000000     -0.000000     -0.000000
      1.72250      0.00000      5.16742         0.000000     -0.000000      0.000000
      1.72250      1.72250      3.44493         0.000000      0.000000     -0.000000
      3.44493      0.00000      3.44493        -0.000000     -0.000000      0.000000
      3.44493      1.72250      5.16742        -0.000000     -0.000000      0.000000
      5.16742      0.00000      5.16742        -0.000000      0.000000      0.000000
      5.16742      1.72250      3.44493        -0.000000     -0.000000      0.000000
      6.88992      0.00000      3.44493         0.000000     -0.000000      0.000000
      6.88992      1.72250      5.16742         0.000000     -0.000000     -0.000000
      8.61235      0.00000      5.16742        -0.000000      0.000000     -0.000000
      8.61235      1.72250      3.44493        -0.000000     -0.000000     -0.000000
      0.00000      3.44493      3.44493         0.000000     -0.000000      0.000000
      0.00000      5.16742      5.16742        -0.000000     -0.000000      0.000000
      1.72250      3.44493      5.16742        -0.000000      0.000000      0.000000
      1.72250      5.16742      3.44493         0.000000      0.000000     -0.000000
      3.44493      3.44493      3.44493        -0.000000      0.000000      0.000000
      3.44493      5.16742      5.16742        -0.000000      0.000000     -0.000000
      5.16742      3.44493      5.16742        -0.000000     -0.000000     -0.000000
      5.16742      5.16742      3.44493        -0.000000     -0.000000      0.000000
      6.88992      3.44493      3.44493        -0.000000      0.000000     -0.000000
      6.88992      5.16742      5.16742         0.000000      0.000000      0.000000
      8.61235      3.44493      5.16742        -0.000000     -0.000000      0.000000
      8.61235      5.16742      3.44493         0.000000     -0.000000     -0.000000
      0.00000      6.88992      3.44493         0.000000      0.000000     -0.000000
      0.00000      8.61235      5.16742         0.000000      0.000000     -0.000000
      1.72250      6.88992      5.16742        -0.000000     -0.000000     -0.000000
      1.72250      8.61235      3.44493         0.000000      0.000000      0.000000
      3.44493      6.88992      3.44493         0.000000      0.000000     -0.000000
      3.44493      8.61235      5.16742        -0.000000      0.000000      0.000000
      5.16742      6.88992      5.16742        -0.000000     -0.000000      0.000000
      5.16742      8.61235      3.44493        -0.000000      0.000000     -0.000000
      6.88992      6.88992      3.44493         0.000000      0.000000      0.000000
      6.88992      8.61235      5.16742        -0.000000      0.000000      0.000000
      8.61235      6.88992      5.16742         0.000000     -0.000000     -0.000000
      8.61235      8.61235      3.44493        -0.000000      0.000000      0.000000
      0.00000      0.00000      6.88992         0.000000      0.000000      0.000000
      0.00000      1.72250      8.61235        -0.000000     -0.000000     -0.000000
      1.72250      0.00000      8.61235         0.000000     -0.000000     -0.000000
      1.72250      1.72250      6.88992        -0.000000      0.000000      0.000000
      3.44493      0.00000      6.88992        -0.000000     -0.000000     -0.000000
      3.44493      1.72250      8.61235         0.000000      0.000000     -0.000000
      5.16742      0.00000      8.61235         0.000000     -0.000000     -0.000000
      5.16742      1.72250      6.88992         0.000000      0.000000     -0.000000
      6.88992      0.00000      6.88992        -0.000000     -0.000000     -0.000000
      6.88992      1.72250      8.61235         0.000000      0.000000      0.000000
      8.61235      0.00000      8.61235        -0.000000      0.000000      0.000000
      8.61235      1.72250      6.88992         0.000000     -0.000000     -0.000000
      0.00000      3.44493      6.88992        -0.000000     -0.000000     -0.000000
      0.00000      5.16742      8.61235         0.000000      0.000000      0.000000
      1.72250      3.44493      8.61235         0.000000      0.000000      0.000000
      1.72250      5.16742      6.88992        -0.000000      0.000000      0.000000
      3.44493      3.44493      6.88992         0.000000      0.000000     -0.000000
      3.44493      5.16742      8.61235        -0.000000     -0.000000      0.000000
      5.16742      3.44493      8.61235        -0.000000     -0.000000      0.000000
      5.16742      5.16742      6.88992        -0.000000      0.000000     -0.000000
      6.88992      3.44493      6.88992        -0.000000      0.000000      0.000000
      6.88992      5.16742      8.61235         0.000000      0.000000     -0.000000
      8.61235      3.44493      8.61235        -0.000000     -0.000000      0.000000
      8.61235      5.16742      6.88992        -0.000000      0.000000      0.000000
      0.00000      6.88992      6.88992        -0.000000     -0.000000     -0.000000
      0.00000      8.61235      8.61235        -0.000000     -0.000000      0.000000
      1.72250      6.88992      8.61235        -0.000000     -0.000000     -0.000000
      1.72250      8.61235      6.88992        -0.000000      0.000000     -0.000000
      3.44493      6.88992      6.88992        -0.000000     -0.000000      0.000000
      3.44493      8.61235      8.61235        -0.000000      0.000000     -0.000000
      5.16742      6.88992      8.61235         0.000000      0.000000     -0.000000
      5.16742      8.61235      6.88992        -0.000000      0.000000      0.000000
      6.88992      6.88992      6.88992        -0.000000      0.000000     -0.000000
      6.88992      8.61235      8.61235         0.000000      0.000000     -0.000000
      8.61235      6.88992      8.61235         0.000000     -0.000000     -0.000000
      8.61235      8.61235      6.88992        -0.000000      0.000000      0.000000
 -----------------------------------------------------------------------------------
    total drift:                                0.000000      0.000000     -0.000000


--------------------------------------------------------------------------------------------------------



  FREE ENERGIE OF THE ION-ELECTRON SYSTEM (eV)
  ---------------------------------------------------
  free  energy   TOTEN  =      -879.53584039 eV

  energy  without entropy=     -879.59070748  energy(sigma->0) =     -879.55412942
 


--------------------------------------------------------------------------------------------------------


    POTLOK:  cpu time    0.2626: real time    0.2626


--------------------------------------------------------------------------------------------------------




--------------------------------------------------------------------------------------------------------


  
 reached required accuracy - stopping structural energy minimisation
     LOOP+:  cpu time 5903.3052: real time 5904.8229
    4ORBIT:  cpu time    0.0000: real time    0.0000

 total amount of memory used by VASP MPI-rank0   557413. kBytes
=======================================================================

   base      :      30000. kBytes
   nonlr-proj:      31400. kBytes
   fftplans  :      15433. kBytes
   grid      :      21835. kBytes
   one-center:        419. kBytes
   wavefun   :     458326. kBytes
 
  
  
 General timing and accounting informations for this job:
 ========================================================
  
                  Total CPU time used (sec):     5943.166
                            User time (sec):     5937.499
                          System time (sec):        5.667
                         Elapsed time (sec):     5944.690
  
                   Maximum memory used (kb):      646964.
                   Average memory used (kb):           0.
  
                          Minor page faults:       774199
                          Major page faults:            0
                 Voluntary context switches:         1020
