<?xml version="1.0" encoding="ISO-8859-1"?>
<modeling>
 <generator>
  <i name="program" type="string">vasp </i>
  <i name="version" type="string">5.4.4.18Apr17-6-g9f103f2a35  </i>
  <i name="subversion" type="string">(build Aug 17 2017 06:00:38) complex            parallel </i>
  <i name="platform" type="string">LinuxIFC </i>
  <i name="date" type="string">2019 07 13 </i>
  <i name="time" type="string">00:38:01 </i>
 </generator>
 <incar>
  <i type="string" name="SYSTEM">Opt</i>
  <i type="int" name="ISTART">     0</i>
  <i type="string" name="PREC">normal</i>
  <i type="string" name="ALGO"> Fast</i>
  <i type="int" name="ISPIN">     1</i>
  <i type="int" name="ICHARG">     2</i>
  <i type="int" name="NELM">   400</i>
  <i type="int" name="IBRION">     2</i>
  <i name="EDIFF">      0.00000100</i>
  <i name="EDIFFG">     -0.01000000</i>
  <i type="int" name="NSW">   100</i>
  <i type="int" name="ISIF">     3</i>
  <i name="ENCUT">    400.00000000</i>
  <i type="int" name="NGX">    72</i>
  <i type="int" name="NGY">    72</i>
  <i type="int" name="NGZ">    72</i>
  <i name="POTIM">      0.50000000</i>
  <i type="string" name="LREAL">Auto</i>
  <i type="logical" name="LWAVE"> F  </i>
  <i type="logical" name="LCHARG"> F  </i>
  <v type="int" name="KPOINT_BSE">    -1     0     0     0</v>
  <i type="int" name="NELM">   400</i>
 </incar>
 <structure name="primitive_cell" >
  <crystal>
   <varray name="basis" >
    <v>       3.44492529       0.00000000       0.00000000 </v>
    <v>       0.00000000       3.44492529       0.00000000 </v>
    <v>       0.00000000       0.00000000       3.44492524 </v>
   </varray>
   <i name="volume">     40.88268566 </i>
   <varray name="rec_basis" >
    <v>       0.29028206       0.00000000       0.00000000 </v>
    <v>       0.00000000       0.29028206       0.00000000 </v>
    <v>       0.00000000       0.00000000       0.29028206 </v>
   </varray>
  </crystal>
  <varray name="positions" >
   <v>       0.00000000       0.00000000       0.00000000 </v>
   <v>       0.00000000      -0.49998976      -0.49998975 </v>
   <v>      -0.49998976       0.00000000      -0.49998975 </v>
   <v>      -0.49998976      -0.49998976       0.00000000 </v>
  </varray>
 </structure>
 <varray name="primitive_index" >
  <v type="int" >        1 </v>
  <v type="int" >        2 </v>
  <v type="int" >        3 </v>
  <v type="int" >        4 </v>
 </varray>
 <kpoints>
  <generation param="Monkhorst-Pack">
   <v type="int" name="divisions">       7        7        7 </v>
   <v name="usershift">      0.00000000       0.00000000       0.00000000 </v>
   <v name="genvec1">      0.14285714       0.00000000       0.00000000 </v>
   <v name="genvec2">      0.00000000       0.14285714       0.00000000 </v>
   <v name="genvec3">      0.00000000       0.00000000       0.14285714 </v>
   <v name="shift">      0.00000000       0.00000000       0.00000000 </v>
  </generation>
  <varray name="kpointlist" >
   <v>       0.00000000       0.00000000       0.00000000 </v>
   <v>       0.14285714       0.00000000       0.00000000 </v>
   <v>       0.28571429       0.00000000       0.00000000 </v>
   <v>       0.42857143       0.00000000       0.00000000 </v>
   <v>       0.14285714       0.14285714       0.00000000 </v>
   <v>       0.28571429       0.14285714       0.00000000 </v>
   <v>       0.42857143       0.14285714       0.00000000 </v>
   <v>       0.28571429       0.28571429       0.00000000 </v>
   <v>       0.42857143       0.28571429       0.00000000 </v>
   <v>       0.42857143       0.42857143       0.00000000 </v>
   <v>       0.14285714       0.14285714       0.14285714 </v>
   <v>       0.28571429       0.14285714       0.14285714 </v>
   <v>       0.42857143       0.14285714       0.14285714 </v>
   <v>       0.28571429       0.28571429       0.14285714 </v>
   <v>       0.42857143       0.28571429       0.14285714 </v>
   <v>       0.42857143       0.42857143       0.14285714 </v>
   <v>       0.28571429       0.28571429       0.28571429 </v>
   <v>       0.42857143       0.28571429       0.28571429 </v>
   <v>       0.42857143       0.42857143       0.28571429 </v>
   <v>       0.42857143       0.42857143       0.42857143 </v>
  </varray>
  <varray name="weights" >
   <v>       0.00291545 </v>
   <v>       0.01749271 </v>
   <v>       0.01749271 </v>
   <v>       0.01749271 </v>
   <v>       0.03498542 </v>
   <v>       0.06997085 </v>
   <v>       0.06997085 </v>
   <v>       0.03498542 </v>
   <v>       0.06997085 </v>
   <v>       0.03498542 </v>
   <v>       0.02332362 </v>
   <v>       0.06997085 </v>
   <v>       0.06997085 </v>
   <v>       0.06997085 </v>
   <v>       0.13994169 </v>
   <v>       0.06997085 </v>
   <v>       0.02332362 </v>
   <v>       0.06997085 </v>
   <v>       0.06997085 </v>
   <v>       0.02332362 </v>
  </varray>
 </kpoints>
 <parameters>
  <separator name="general" >
   <i type="string" name="SYSTEM">Opt</i>
   <i type="logical" name="LCOMPAT"> F  </i>
  </separator>
  <separator name="electronic" >
   <i type="string" name="PREC">normal</i>
   <i name="ENMAX">    400.00000000</i>
   <i name="ENAUG">    511.36800000</i>
   <i name="EDIFF">      0.00000100</i>
   <i type="int" name="IALGO">    68</i>
   <i type="int" name="IWAVPR">    11</i>
   <i type="int" name="NBANDS">   518</i>
   <i name="NELECT">    864.00000000</i>
   <i type="int" name="TURBO">     0</i>
   <i type="int" name="IRESTART">     0</i>
   <i type="int" name="NREBOOT">     0</i>
   <i type="int" name="NMIN">     0</i>
   <i name="EREF">      0.00000000</i>
   <separator name="electronic smearing" >
    <i type="int" name="ISMEAR">     1</i>
    <i name="SIGMA">      0.20000000</i>
    <i name="KSPACING">      0.50000000</i>
    <i type="logical" name="KGAMMA"> T  </i>
   </separator>
   <separator name="electronic projectors" >
    <i type="logical" name="LREAL"> T  </i>
    <v name="ROPT">     -0.00050000</v>
    <i type="int" name="LMAXPAW">  -100</i>
    <i type="int" name="LMAXMIX">     2</i>
    <i type="logical" name="NLSPLINE"> F  </i>
   </separator>
   <separator name="electronic startup" >
    <i type="int" name="ISTART">     0</i>
    <i type="int" name="ICHARG">     2</i>
    <i type="int" name="INIWAV">     1</i>
   </separator>
   <separator name="electronic spin" >
    <i type="int" name="ISPIN">     1</i>
    <i type="logical" name="LNONCOLLINEAR"> F  </i>
    <v name="MAGMOM">      1.00000000      1.00000000      1.00000000      1.00000000      1.00000000      1.00000000      1.00000000      1.00000000      1.00000000      1.00000000      1.00000000      1.00000000      1.00000000      1.00000000      1.00000000      1.00000000      1.00000000      1.00000000      1.00000000      1.00000000
      1.00000000      1.00000000      1.00000000      1.00000000      1.00000000      1.00000000      1.00000000      1.00000000      1.00000000      1.00000000      1.00000000      1.00000000      1.00000000      1.00000000      1.00000000      1.00000000      1.00000000      1.00000000      1.00000000      1.00000000
      1.00000000      1.00000000      1.00000000      1.00000000      1.00000000      1.00000000      1.00000000      1.00000000      1.00000000      1.00000000      1.00000000      1.00000000      1.00000000      1.00000000      1.00000000      1.00000000      1.00000000      1.00000000      1.00000000      1.00000000
      1.00000000      1.00000000      1.00000000      1.00000000      1.00000000      1.00000000      1.00000000      1.00000000      1.00000000      1.00000000      1.00000000      1.00000000      1.00000000      1.00000000      1.00000000      1.00000000      1.00000000      1.00000000      1.00000000      1.00000000
      1.00000000      1.00000000      1.00000000      1.00000000      1.00000000      1.00000000      1.00000000      1.00000000      1.00000000      1.00000000      1.00000000      1.00000000      1.00000000      1.00000000      1.00000000      1.00000000      1.00000000      1.00000000      1.00000000      1.00000000
      1.00000000      1.00000000      1.00000000      1.00000000      1.00000000      1.00000000      1.00000000      1.00000000</v>
    <i name="NUPDOWN">     -1.00000000</i>
    <i type="logical" name="LSORBIT"> F  </i>
    <v name="SAXIS">      0.00000000      0.00000000      1.00000000</v>
    <i type="logical" name="LSPIRAL"> F  </i>
    <v name="QSPIRAL">      0.00000000      0.00000000      0.00000000</v>
    <i type="logical" name="LZEROZ"> F  </i>
   </separator>
   <separator name="electronic exchange-correlation" >
    <i type="logical" name="LASPH"> F  </i>
    <i type="logical" name="LMETAGGA"> F  </i>
   </separator>
   <separator name="electronic convergence" >
    <i type="int" name="NELM">   400</i>
    <i type="int" name="NELMDL">    -5</i>
    <i type="int" name="NELMIN">     2</i>
    <i name="ENINI">    400.00000000</i>
    <separator name="electronic convergence detail" >
     <i type="logical" name="LDIAG"> T  </i>
     <i type="logical" name="LSUBROT"> F  </i>
     <i name="WEIMIN">      0.00100000</i>
     <i name="EBREAK">      0.00000000</i>
     <i name="DEPER">      0.30000000</i>
     <i type="int" name="NRMM">     4</i>
     <i name="TIME">      0.40000000</i>
    </separator>
   </separator>
   <separator name="electronic mixer" >
    <i name="AMIX">      0.40000000</i>
    <i name="BMIX">      1.00000000</i>
    <i name="AMIN">      0.10000000</i>
    <i name="AMIX_MAG">      1.60000000</i>
    <i name="BMIX_MAG">      1.00000000</i>
    <separator name="electronic mixer details" >
     <i type="int" name="IMIX">     4</i>
     <i type="logical" name="MIXFIRST"> F  </i>
     <i type="int" name="MAXMIX">   -45</i>
     <i name="WC">    100.00000000</i>
     <i type="int" name="INIMIX">     1</i>
     <i type="int" name="MIXPRE">     1</i>
     <i type="int" name="MREMOVE">     5</i>
    </separator>
   </separator>
   <separator name="electronic dipolcorrection" >
    <i type="logical" name="LDIPOL"> F  </i>
    <i type="logical" name="LMONO"> F  </i>
    <i type="int" name="IDIPOL">     0</i>
    <i name="EPSILON">      1.00000000</i>
    <v name="DIPOL">   -100.00000000   -100.00000000   -100.00000000</v>
    <i name="EFIELD">      0.00000000</i>
   </separator>
  </separator>
  <separator name="grids" >
   <i type="int" name="NGX">    72</i>
   <i type="int" name="NGY">    72</i>
   <i type="int" name="NGZ">    72</i>
   <i type="int" name="NGXF">   144</i>
   <i type="int" name="NGYF">   144</i>
   <i type="int" name="NGZF">   144</i>
   <i type="logical" name="ADDGRID"> F  </i>
  </separator>
  <separator name="ionic" >
   <i type="int" name="NSW">   100</i>
   <i type="int" name="IBRION">     2</i>
   <i type="int" name="MDALGO">     0</i>
   <i type="int" name="ISIF">     3</i>
   <i name="PSTRESS">      0.00000000</i>
   <i name="EDIFFG">     -0.01000000</i>
   <i type="int" name="NFREE">     1</i>
   <i name="POTIM">      0.50000000</i>
   <i name="SMASS">     -3.00000000</i>
   <i name="SCALEE">      1.00000000</i>
  </separator>
  <separator name="ionic md" >
   <i name="TEBEG">      0.00010000</i>
   <i name="TEEND">      0.00010000</i>
   <i type="int" name="NBLOCK">     1</i>
   <i type="int" name="KBLOCK">   100</i>
   <i type="int" name="NPACO">   256</i>
   <i name="APACO">     16.00000000</i>
  </separator>
  <separator name="symmetry" >
   <i type="int" name="ISYM">     2</i>
   <i name="SYMPREC">      0.00001000</i>
  </separator>
  <separator name="dos" >
   <i type="int" name="LORBIT">     0</i>
   <v name="RWIGS">     -1.00000000</v>
   <i type="int" name="NEDOS">   301</i>
   <i name="EMIN">     10.00000000</i>
   <i name="EMAX">    -10.00000000</i>
   <i name="EFERMI">      0.00000000</i>
  </separator>
  <separator name="writing" >
   <i type="int" name="NWRITE">     2</i>
   <i type="logical" name="LWAVE"> F  </i>
   <i type="logical" name="LDOWNSAMPLE"> F  </i>
   <i type="logical" name="LCHARG"> F  </i>
   <i type="logical" name="LPARD"> F  </i>
   <i type="logical" name="LVTOT"> F  </i>
   <i type="logical" name="LVHAR"> F  </i>
   <i type="logical" name="LELF"> F  </i>
   <i type="logical" name="LOPTICS"> F  </i>
   <v name="STM">      0.00000000      0.00000000      0.00000000      0.00000000      0.00000000      0.00000000      0.00000000</v>
  </separator>
  <separator name="performance" >
   <i type="int" name="NPAR">     2</i>
   <i type="int" name="NSIM">     4</i>
   <i type="int" name="NBLK">    -1</i>
   <i type="logical" name="LPLANE"> T  </i>
   <i type="logical" name="LSCALAPACK"> T  </i>
   <i type="logical" name="LSCAAWARE"> F  </i>
   <i type="logical" name="LSCALU"> F  </i>
   <i type="logical" name="LASYNC"> F  </i>
   <i type="logical" name="LORBITALREAL"> F  </i>
  </separator>
  <separator name="miscellaneous" >
   <i type="int" name="IDIOT">     3</i>
   <i type="int" name="ISPECIAL">     0</i>
   <i type="logical" name="LMUSIC"> F  </i>
   <v name="POMASS">     55.84700000</v>
   <v name="DARWINR">      0.00000000</v>
   <v name="DARWINV">      1.00000000</v>
   <i type="logical" name="LCORR"> T  </i>
  </separator>
  <i type="logical" name="GGA_COMPAT"> T  </i>
  <i type="logical" name="LBERRY"> F  </i>
  <i type="int" name="ICORELEVEL">     0</i>
  <i type="logical" name="LDAU"> F  </i>
  <i type="int" name="I_CONSTRAINED_M">     0</i>
  <separator name="electronic exchange-correlation" >
   <i type="string" name="GGA">--</i>
   <i type="int" name="VOSKOWN">     0</i>
   <i type="logical" name="LHFCALC"> F  </i>
   <i type="string" name="PRECFOCK"></i>
   <i type="logical" name="LSYMGRAD"> F  </i>
   <i type="logical" name="LHFONE"> F  </i>
   <i type="logical" name="LRHFCALC"> F  </i>
   <i type="logical" name="LTHOMAS"> F  </i>
   <i type="logical" name="LMODELHF"> F  </i>
   <i name="ENCUT4O">     -1.00000000</i>
   <i type="int" name="EXXOEP">     0</i>
   <i type="int" name="FOURORBIT">     0</i>
   <i name="AEXX">      0.00000000</i>
   <i name="HFALPHA">      0.00000000</i>
   <i name="MCALPHA">      0.00000000</i>
   <i name="ALDAX">      1.00000000</i>
   <i name="AGGAX">      1.00000000</i>
   <i name="ALDAC">      1.00000000</i>
   <i name="AGGAC">      1.00000000</i>
   <i type="int" name="NKREDX">     1</i>
   <i type="int" name="NKREDY">     1</i>
   <i type="int" name="NKREDZ">     1</i>
   <i type="logical" name="SHIFTRED"> F  </i>
   <i type="logical" name="ODDONLY"> F  </i>
   <i type="logical" name="EVENONLY"> F  </i>
   <i type="int" name="LMAXFOCK">     0</i>
   <i type="int" name="NMAXFOCKAE">     0</i>
   <i type="logical" name="LFOCKAEDFT"> F  </i>
   <i name="HFSCREEN">      0.00000000</i>
   <i name="HFSCREENC">      0.00000000</i>
   <i type="int" name="NBANDSGWLOW">     0</i>
  </separator>
  <separator name="vdW DFT" >
   <i type="logical" name="LUSE_VDW"> F  </i>
   <i name="Zab_VDW">     -0.84910000</i>
   <i name="PARAM1">      0.12340000</i>
   <i name="PARAM2">      1.00000000</i>
   <i name="PARAM3">      0.00000000</i>
  </separator>
  <separator name="model GW" >
   <i type="int" name="MODEL_GW">     0</i>
   <i name="MODEL_EPS0">      6.13252964</i>
   <i name="MODEL_ALPHA">      1.00000000</i>
  </separator>
  <separator name="linear response parameters" >
   <i type="logical" name="LEPSILON"> F  </i>
   <i type="logical" name="LRPA"> F  </i>
   <i type="logical" name="LNABLA"> F  </i>
   <i type="logical" name="LVEL"> F  </i>
   <i type="int" name="KINTER">     0</i>
   <i name="CSHIFT">      0.10000000</i>
   <i name="OMEGAMAX">     -1.00000000</i>
   <i name="DEG_THRESHOLD">      0.00200000</i>
   <i name="RTIME">     -0.10000000</i>
   <i name="WPLASMAI">      0.00000000</i>
   <v name="DFIELD">      0.00000000      0.00000000      0.00000000</v>
   <v name="WPLASMA">      0.00000000      0.00000000      0.00000000      0.00000000      0.00000000      0.00000000      0.00000000      0.00000000      0.00000000</v>
  </separator>
  <separator name="orbital magnetization" >
   <i type="logical" name="NUCIND"> F  </i>
   <v name="MAGPOS">      0.00000000      0.00000000      0.00000000</v>
   <i type="logical" name="LNICSALL"> T  </i>
   <i type="logical" name="ORBITALMAG"> F  </i>
   <i type="logical" name="LMAGBLOCH"> F  </i>
   <i type="logical" name="LCHIMAG"> F  </i>
   <i type="logical" name="LGAUGE"> T  </i>
   <i type="int" name="MAGATOM">     0</i>
   <v name="MAGDIPOL">      0.00000000      0.00000000      0.00000000</v>
   <v name="AVECCONST">      0.00000000      0.00000000      0.00000000</v>
  </separator>
  <separator name="response functions" >
   <i type="logical" name="LADDER"> F  </i>
   <i type="logical" name="LRPAFORCE"> F  </i>
   <i type="logical" name="LFXC"> F  </i>
   <i type="logical" name="LHARTREE"> T  </i>
   <i type="int" name="IBSE">     0</i>
   <v type="int" name="KPOINT">    -1     0     0     0</v>
   <i type="logical" name="LTCTE"> F  </i>
   <i type="logical" name="LTETE"> F  </i>
   <i type="logical" name="LTRIPLET"> F  </i>
   <i type="logical" name="LFXCEPS"> F  </i>
   <i type="logical" name="LFXHEG"> F  </i>
   <i type="int" name="NATURALO">     2</i>
   <i type="logical" name="L2ORDER"> F  </i>
   <i type="logical" name="LMP2LT"> F  </i>
   <i type="logical" name="LUSEW"> F  </i>
   <i name="ENCUTGW">     -2.00000000</i>
   <i name="ENCUTGWSOFT">     -2.00000000</i>
   <i name="ENCUTLF">     -1.00000000</i>
   <i type="int" name="LMAXMP2">    -1</i>
   <i name="SCISSOR">      0.00000000</i>
   <i type="int" name="NOMEGA">     0</i>
   <i type="int" name="NOMEGAR">     0</i>
   <i type="int" name="NBANDSGW">    -1</i>
   <i type="int" name="NBANDSO">    -1</i>
   <i type="int" name="NBANDSV">    -1</i>
   <i type="int" name="NELM">   400</i>
   <i type="int" name="NELMHF">     1</i>
   <i type="int" name="DIM">     3</i>
   <i type="int" name="ANTIRES">     0</i>
   <i name="OMEGAMAX">    -30.00000000</i>
   <i name="OMEGAMIN">    -30.00000000</i>
   <i name="OMEGATL">   -200.00000000</i>
   <i type="int" name="OMEGAGRID">   140</i>
   <i name="CSHIFT">     -0.10000000</i>
   <i type="logical" name="SELFENERGY"> F  </i>
   <i type="logical" name="LSPECTRAL"> F  </i>
   <i type="logical" name="LSPECTRALGW"> F  </i>
   <i type="logical" name="LSINGLES"> F  </i>
   <i type="logical" name="LFERMIGW"> F  </i>
   <i type="logical" name="ODDONLYGW"> F  </i>
   <i type="logical" name="EVENONLYGW"> F  </i>
   <i type="int" name="NKREDLFX">     1</i>
   <i type="int" name="NKREDLFY">     1</i>
   <i type="int" name="NKREDLFZ">     1</i>
   <i type="int" name="MAXMEM">  2800</i>
   <i type="int" name="TELESCOPE">     0</i>
   <i type="int" name="TAUPAR">     1</i>
   <i type="int" name="OMEGAPAR">    -1</i>
   <i name="LAMBDA">      1.00000000</i>
  </separator>
  <separator name="External order field" >
   <i name="OFIELD_KAPPA">      0.00000000</i>
   <v name="OFIELD_K">      0.00000000      0.00000000      0.00000000</v>
   <i name="OFIELD_Q6_NEAR">      0.00000000</i>
   <i name="OFIELD_Q6_FAR">      0.00000000</i>
   <i name="OFIELD_A">      0.00000000</i>
  </separator>
 </parameters>
 <atominfo>
  <atoms>     108 </atoms>
  <types>       1 </types>
  <array name="atoms" >
   <dimension dim="1">ion</dimension>
   <field type="string">element</field>
   <field type="int">atomtype</field>
   <set>
    <rc><c>Fe</c><c>   1</c></rc>
    <rc><c>Fe</c><c>   1</c></rc>
    <rc><c>Fe</c><c>   1</c></rc>
    <rc><c>Fe</c><c>   1</c></rc>
    <rc><c>Fe</c><c>   1</c></rc>
    <rc><c>Fe</c><c>   1</c></rc>
    <rc><c>Fe</c><c>   1</c></rc>
    <rc><c>Fe</c><c>   1</c></rc>
    <rc><c>Fe</c><c>   1</c></rc>
    <rc><c>Fe</c><c>   1</c></rc>
    <rc><c>Fe</c><c>   1</c></rc>
    <rc><c>Fe</c><c>   1</c></rc>
    <rc><c>Fe</c><c>   1</c></rc>
    <rc><c>Fe</c><c>   1</c></rc>
    <rc><c>Fe</c><c>   1</c></rc>
    <rc><c>Fe</c><c>   1</c></rc>
    <rc><c>Fe</c><c>   1</c></rc>
    <rc><c>Fe</c><c>   1</c></rc>
    <rc><c>Fe</c><c>   1</c></rc>
    <rc><c>Fe</c><c>   1</c></rc>
    <rc><c>Fe</c><c>   1</c></rc>
    <rc><c>Fe</c><c>   1</c></rc>
    <rc><c>Fe</c><c>   1</c></rc>
    <rc><c>Fe</c><c>   1</c></rc>
    <rc><c>Fe</c><c>   1</c></rc>
    <rc><c>Fe</c><c>   1</c></rc>
    <rc><c>Fe</c><c>   1</c></rc>
    <rc><c>Fe</c><c>   1</c></rc>
    <rc><c>Fe</c><c>   1</c></rc>
    <rc><c>Fe</c><c>   1</c></rc>
    <rc><c>Fe</c><c>   1</c></rc>
    <rc><c>Fe</c><c>   1</c></rc>
    <rc><c>Fe</c><c>   1</c></rc>
    <rc><c>Fe</c><c>   1</c></rc>
    <rc><c>Fe</c><c>   1</c></rc>
    <rc><c>Fe</c><c>   1</c></rc>
    <rc><c>Fe</c><c>   1</c></rc>
    <rc><c>Fe</c><c>   1</c></rc>
    <rc><c>Fe</c><c>   1</c></rc>
    <rc><c>Fe</c><c>   1</c></rc>
    <rc><c>Fe</c><c>   1</c></rc>
    <rc><c>Fe</c><c>   1</c></rc>
    <rc><c>Fe</c><c>   1</c></rc>
    <rc><c>Fe</c><c>   1</c></rc>
    <rc><c>Fe</c><c>   1</c></rc>
    <rc><c>Fe</c><c>   1</c></rc>
    <rc><c>Fe</c><c>   1</c></rc>
    <rc><c>Fe</c><c>   1</c></rc>
    <rc><c>Fe</c><c>   1</c></rc>
    <rc><c>Fe</c><c>   1</c></rc>
    <rc><c>Fe</c><c>   1</c></rc>
    <rc><c>Fe</c><c>   1</c></rc>
    <rc><c>Fe</c><c>   1</c></rc>
    <rc><c>Fe</c><c>   1</c></rc>
    <rc><c>Fe</c><c>   1</c></rc>
    <rc><c>Fe</c><c>   1</c></rc>
    <rc><c>Fe</c><c>   1</c></rc>
    <rc><c>Fe</c><c>   1</c></rc>
    <rc><c>Fe</c><c>   1</c></rc>
    <rc><c>Fe</c><c>   1</c></rc>
    <rc><c>Fe</c><c>   1</c></rc>
    <rc><c>Fe</c><c>   1</c></rc>
    <rc><c>Fe</c><c>   1</c></rc>
    <rc><c>Fe</c><c>   1</c></rc>
    <rc><c>Fe</c><c>   1</c></rc>
    <rc><c>Fe</c><c>   1</c></rc>
    <rc><c>Fe</c><c>   1</c></rc>
    <rc><c>Fe</c><c>   1</c></rc>
    <rc><c>Fe</c><c>   1</c></rc>
    <rc><c>Fe</c><c>   1</c></rc>
    <rc><c>Fe</c><c>   1</c></rc>
    <rc><c>Fe</c><c>   1</c></rc>
    <rc><c>Fe</c><c>   1</c></rc>
    <rc><c>Fe</c><c>   1</c></rc>
    <rc><c>Fe</c><c>   1</c></rc>
    <rc><c>Fe</c><c>   1</c></rc>
    <rc><c>Fe</c><c>   1</c></rc>
    <rc><c>Fe</c><c>   1</c></rc>
    <rc><c>Fe</c><c>   1</c></rc>
    <rc><c>Fe</c><c>   1</c></rc>
    <rc><c>Fe</c><c>   1</c></rc>
    <rc><c>Fe</c><c>   1</c></rc>
    <rc><c>Fe</c><c>   1</c></rc>
    <rc><c>Fe</c><c>   1</c></rc>
    <rc><c>Fe</c><c>   1</c></rc>
    <rc><c>Fe</c><c>   1</c></rc>
    <rc><c>Fe</c><c>   1</c></rc>
    <rc><c>Fe</c><c>   1</c></rc>
    <rc><c>Fe</c><c>   1</c></rc>
    <rc><c>Fe</c><c>   1</c></rc>
    <rc><c>Fe</c><c>   1</c></rc>
    <rc><c>Fe</c><c>   1</c></rc>
    <rc><c>Fe</c><c>   1</c></rc>
    <rc><c>Fe</c><c>   1</c></rc>
    <rc><c>Fe</c><c>   1</c></rc>
    <rc><c>Fe</c><c>   1</c></rc>
    <rc><c>Fe</c><c>   1</c></rc>
    <rc><c>Fe</c><c>   1</c></rc>
    <rc><c>Fe</c><c>   1</c></rc>
    <rc><c>Fe</c><c>   1</c></rc>
    <rc><c>Fe</c><c>   1</c></rc>
    <rc><c>Fe</c><c>   1</c></rc>
    <rc><c>Fe</c><c>   1</c></rc>
    <rc><c>Fe</c><c>   1</c></rc>
    <rc><c>Fe</c><c>   1</c></rc>
    <rc><c>Fe</c><c>   1</c></rc>
    <rc><c>Fe</c><c>   1</c></rc>
    <rc><c>Fe</c><c>   1</c></rc>
   </set>
  </array>
  <array name="atomtypes" >
   <dimension dim="1">type</dimension>
   <field type="int">atomspertype</field>
   <field type="string">element</field>
   <field>mass</field>
   <field>valence</field>
   <field type="string">pseudopotential</field>
   <set>
    <rc><c> 108</c><c>Fe</c><c>     55.84700000</c><c>      8.00000000</c><c> PAW_PBE Fe 06Sep2000                   </c></rc>
   </set>
  </array>
 </atominfo>
 <structure name="initialpos" >
  <crystal>
   <varray name="basis" >
    <v>      10.33484705       0.00000000       0.00000000 </v>
    <v>       0.00000000      10.33484705       0.00000000 </v>
    <v>       0.00000000       0.00000000      10.33484705 </v>
   </varray>
   <i name="volume">   1103.85533447 </i>
   <varray name="rec_basis" >
    <v>       0.09676002       0.00000000       0.00000000 </v>
    <v>       0.00000000       0.09676002       0.00000000 </v>
    <v>       0.00000000       0.00000000       0.09676002 </v>
   </varray>
  </crystal>
  <varray name="positions" >
   <v>       0.00000000       0.00000000       0.00000000 </v>
   <v>       0.00000000       0.16666893       0.16666893 </v>
   <v>       0.16666893       0.00000000       0.16666893 </v>
   <v>       0.16666893       0.16666893       0.00000000 </v>
   <v>       0.33333106       0.00000000       0.00000000 </v>
   <v>       0.33333107       0.16666893       0.16666893 </v>
   <v>       0.50000000       0.00000000       0.16666894 </v>
   <v>       0.50000000       0.16666894       0.00000000 </v>
   <v>       0.66666897       0.00000000       0.00000000 </v>
   <v>       0.66666896       0.16666893       0.16666893 </v>
   <v>       0.83333104       0.00000000       0.16666893 </v>
   <v>       0.83333104       0.16666893       0.00000000 </v>
   <v>       0.00000000       0.33333106       0.00000000 </v>
   <v>       0.00000000       0.50000000       0.16666894 </v>
   <v>       0.16666893       0.33333107       0.16666893 </v>
   <v>       0.16666894       0.50000000       0.00000000 </v>
   <v>       0.33333107       0.33333107       0.00000000 </v>
   <v>       0.33333107       0.50000000       0.16666893 </v>
   <v>       0.50000000       0.33333107       0.16666893 </v>
   <v>       0.50000000       0.50000000       0.00000000 </v>
   <v>       0.66666896       0.33333107       0.00000000 </v>
   <v>       0.66666896       0.50000000       0.16666893 </v>
   <v>       0.83333104       0.33333107       0.16666893 </v>
   <v>       0.83333103       0.50000000       0.00000000 </v>
   <v>       0.00000000       0.66666897       0.00000000 </v>
   <v>       0.00000000       0.83333104       0.16666893 </v>
   <v>       0.16666893       0.66666896       0.16666893 </v>
   <v>       0.16666893       0.83333104       0.00000000 </v>
   <v>       0.33333107       0.66666896       0.00000000 </v>
   <v>       0.33333107       0.83333104       0.16666893 </v>
   <v>       0.50000000       0.66666896       0.16666893 </v>
   <v>       0.50000000       0.83333103       0.00000000 </v>
   <v>       0.66666896       0.66666896       0.00000000 </v>
   <v>       0.66666896       0.83333104       0.16666893 </v>
   <v>       0.83333104       0.66666896       0.16666893 </v>
   <v>       0.83333104       0.83333104       0.00000000 </v>
   <v>       0.00000000       0.00000000       0.33333106 </v>
   <v>       0.00000000       0.16666894       0.50000000 </v>
   <v>       0.16666894       0.00000000       0.50000000 </v>
   <v>       0.16666893       0.16666893       0.33333107 </v>
   <v>       0.33333107       0.00000000       0.33333107 </v>
   <v>       0.33333107       0.16666893       0.50000000 </v>
   <v>       0.50000000       0.00000000       0.50000000 </v>
   <v>       0.50000000       0.16666893       0.33333107 </v>
   <v>       0.66666896       0.00000000       0.33333107 </v>
   <v>       0.66666896       0.16666893       0.50000000 </v>
   <v>       0.83333103       0.00000000       0.50000000 </v>
   <v>       0.83333104       0.16666893       0.33333107 </v>
   <v>       0.00000000       0.33333107       0.33333107 </v>
   <v>       0.00000000       0.50000000       0.50000000 </v>
   <v>       0.16666893       0.33333107       0.50000000 </v>
   <v>       0.16666893       0.50000000       0.33333107 </v>
   <v>       0.33333107       0.33333107       0.33333107 </v>
   <v>       0.33333106       0.50000000       0.50000000 </v>
   <v>       0.50000000       0.33333106       0.50000000 </v>
   <v>       0.50000000       0.50000000       0.33333106 </v>
   <v>       0.66666896       0.33333107       0.33333107 </v>
   <v>       0.66666897       0.50000000       0.50000000 </v>
   <v>       0.83333104       0.33333107       0.50000000 </v>
   <v>       0.83333104       0.50000000       0.33333107 </v>
   <v>       0.00000000       0.66666896       0.33333107 </v>
   <v>       0.00000000       0.83333103       0.50000000 </v>
   <v>       0.16666893       0.66666896       0.50000000 </v>
   <v>       0.16666893       0.83333104       0.33333107 </v>
   <v>       0.33333107       0.66666896       0.33333107 </v>
   <v>       0.33333107       0.83333104       0.50000000 </v>
   <v>       0.50000000       0.66666897       0.50000000 </v>
   <v>       0.50000000       0.83333104       0.33333107 </v>
   <v>       0.66666896       0.66666896       0.33333107 </v>
   <v>       0.66666896       0.83333104       0.50000000 </v>
   <v>       0.83333104       0.66666896       0.50000000 </v>
   <v>       0.83333104       0.83333104       0.33333107 </v>
   <v>       0.00000000       0.00000000       0.66666897 </v>
   <v>       0.00000000       0.16666893       0.83333104 </v>
   <v>       0.16666893       0.00000000       0.83333104 </v>
   <v>       0.16666893       0.16666893       0.66666896 </v>
   <v>       0.33333107       0.00000000       0.66666896 </v>
   <v>       0.33333107       0.16666893       0.83333104 </v>
   <v>       0.50000000       0.00000000       0.83333103 </v>
   <v>       0.50000000       0.16666893       0.66666896 </v>
   <v>       0.66666896       0.00000000       0.66666896 </v>
   <v>       0.66666896       0.16666893       0.83333104 </v>
   <v>       0.83333104       0.00000000       0.83333104 </v>
   <v>       0.83333104       0.16666893       0.66666896 </v>
   <v>       0.00000000       0.33333107       0.66666896 </v>
   <v>       0.00000000       0.50000000       0.83333103 </v>
   <v>       0.16666893       0.33333107       0.83333104 </v>
   <v>       0.16666893       0.50000000       0.66666896 </v>
   <v>       0.33333107       0.33333107       0.66666896 </v>
   <v>       0.33333107       0.50000000       0.83333104 </v>
   <v>       0.50000000       0.33333107       0.83333104 </v>
   <v>       0.50000000       0.50000000       0.66666897 </v>
   <v>       0.66666896       0.33333107       0.66666896 </v>
   <v>       0.66666896       0.50000000       0.83333104 </v>
   <v>       0.83333104       0.33333107       0.83333104 </v>
   <v>       0.83333104       0.50000000       0.66666896 </v>
   <v>       0.00000000       0.66666896       0.66666896 </v>
   <v>       0.00000000       0.83333104       0.83333104 </v>
   <v>       0.16666893       0.66666896       0.83333104 </v>
   <v>       0.16666893       0.83333104       0.66666896 </v>
   <v>       0.33333107       0.66666896       0.66666896 </v>
   <v>       0.33333107       0.83333104       0.83333104 </v>
   <v>       0.50000000       0.66666896       0.83333104 </v>
   <v>       0.50000000       0.83333104       0.66666896 </v>
   <v>       0.66666896       0.66666896       0.66666896 </v>
   <v>       0.66666896       0.83333104       0.83333104 </v>
   <v>       0.83333104       0.66666896       0.83333104 </v>
   <v>       0.83333104       0.83333104       0.66666896 </v>
  </varray>
 </structure>
 <calculation>
  <scstep>
   <time name="dav">  202.79  202.94</time>
   <time name="total">  203.16  203.32</time>
   <energy>
    <i name="alphaZ">   7300.31925852 </i>
    <i name="ewald"> -66232.83996889 </i>
    <i name="hartreedc"> -11197.02572337 </i>
    <i name="XCdc">    446.63038354 </i>
    <i name="pawpsdc">  51723.88885462 </i>
    <i name="pawaedc"> -52548.28121372 </i>
    <i name="eentropy">     -0.00308784 </i>
    <i name="bandstr">  13903.36696737 </i>
    <i name="atom">  64201.67088057 </i>
    <i name="e_fr_energy">   7597.72635081 </i>
    <i name="e_wo_entrp">   7597.72943865 </i>
    <i name="e_0_energy">   7597.72738009 </i>
   </energy>
  </scstep>
  <scstep>
   <time name="dav">  189.11  189.15</time>
   <time name="total">  189.13  189.18</time>
   <energy>
    <i name="e_fr_energy">    -22.96124615 </i>
    <i name="e_wo_entrp">    -22.96394531 </i>
    <i name="e_0_energy">    -22.96214587 </i>
   </energy>
  </scstep>
  <scstep>
   <time name="dav">  195.86  195.88</time>
   <time name="total">  195.89  195.91</time>
   <energy>
    <i name="e_fr_energy">   -851.46181283 </i>
    <i name="e_wo_entrp">   -851.48392904 </i>
    <i name="e_0_energy">   -851.46918490 </i>
   </energy>
  </scstep>
  <scstep>
   <time name="dav">  322.04  322.14</time>
   <time name="total">  322.08  322.17</time>
   <energy>
    <i name="e_fr_energy">  -1029.86235085 </i>
    <i name="e_wo_entrp">  -1029.93793506 </i>
    <i name="e_0_energy">  -1029.88754559 </i>
   </energy>
  </scstep>
  <scstep>
   <time name="dav">  287.69  287.86</time>
   <time name="total">  297.01  297.18</time>
   <energy>
    <i name="e_fr_energy">  -1045.07727538 </i>
    <i name="e_wo_entrp">  -1045.17614625 </i>
    <i name="e_0_energy">  -1045.11023234 </i>
   </energy>
  </scstep>
  <scstep>
   <time name="diag">   25.26   25.26</time>
   <time name="diis">  117.96  118.00</time>
   <time name="orth">    5.19    5.19</time>
   <time name="total">  158.28  158.32</time>
   <energy>
    <i name="e_fr_energy">   -877.45012286 </i>
    <i name="e_wo_entrp">   -877.46683810 </i>
    <i name="e_0_energy">   -877.45569461 </i>
   </energy>
  </scstep>
  <scstep>
   <time name="diag">   24.31   24.32</time>
   <time name="diis">  128.04  128.09</time>
   <time name="orth">    5.23    5.23</time>
   <time name="total">  167.46  167.52</time>
   <energy>
    <i name="e_fr_energy">   -880.27524414 </i>
    <i name="e_wo_entrp">   -880.31204072 </i>
    <i name="e_0_energy">   -880.28750967 </i>
   </energy>
  </scstep>
  <scstep>
   <time name="diag">   25.30   25.31</time>
   <time name="diis">  123.98  124.04</time>
   <time name="orth">    5.15    5.15</time>
   <time name="total">  163.89  163.95</time>
   <energy>
    <i name="e_fr_energy">   -879.39831065 </i>
    <i name="e_wo_entrp">   -879.44745615 </i>
    <i name="e_0_energy">   -879.41469248 </i>
   </energy>
  </scstep>
  <scstep>
   <time name="diag">   24.94   24.96</time>
   <time name="diis">  156.39  156.46</time>
   <time name="orth">    5.12    5.13</time>
   <time name="total">  196.30  196.41</time>
   <energy>
    <i name="e_fr_energy">   -879.70439647 </i>
    <i name="e_wo_entrp">   -879.75031096 </i>
    <i name="e_0_energy">   -879.71970130 </i>
   </energy>
  </scstep>
  <scstep>
   <time name="diag">   24.58   24.59</time>
   <time name="diis">  140.82  140.90</time>
   <time name="orth">    5.15    5.15</time>
   <time name="total">  180.25  180.35</time>
   <energy>
    <i name="e_fr_energy">   -879.52737406 </i>
    <i name="e_wo_entrp">   -879.57490274 </i>
    <i name="e_0_energy">   -879.54321695 </i>
   </energy>
  </scstep>
  <scstep>
   <time name="diag">   23.80   23.81</time>
   <time name="diis">  159.03  159.07</time>
   <time name="orth">    5.19    5.19</time>
   <time name="total">  197.85  197.90</time>
   <energy>
    <i name="e_fr_energy">   -879.53977689 </i>
    <i name="e_wo_entrp">   -879.58895605 </i>
    <i name="e_0_energy">   -879.55616994 </i>
   </energy>
  </scstep>
  <scstep>
   <time name="diag">   24.57   24.58</time>
   <time name="diis">  130.09  130.11</time>
   <time name="orth">    5.16    5.16</time>
   <time name="total">  169.23  169.27</time>
   <energy>
    <i name="e_fr_energy">   -879.53577101 </i>
    <i name="e_wo_entrp">   -879.58636801 </i>
    <i name="e_0_energy">   -879.55263668 </i>
   </energy>
  </scstep>
  <scstep>
   <time name="diag">   24.80   24.81</time>
   <time name="diis">  151.89  151.98</time>
   <time name="orth">    5.17    5.17</time>
   <time name="total">  191.52  191.62</time>
   <energy>
    <i name="e_fr_energy">   -879.53600496 </i>
    <i name="e_wo_entrp">   -879.58739686 </i>
    <i name="e_0_energy">   -879.55313560 </i>
   </energy>
  </scstep>
  <scstep>
   <time name="diag">   24.72   24.72</time>
   <time name="diis">  153.21  153.31</time>
   <time name="orth">    5.17    5.18</time>
   <time name="total">  192.73  192.85</time>
   <energy>
    <i name="e_fr_energy">   -879.53607874 </i>
    <i name="e_wo_entrp">   -879.58788881 </i>
    <i name="e_0_energy">   -879.55334876 </i>
   </energy>
  </scstep>
  <scstep>
   <time name="diag">   24.69   24.70</time>
   <time name="diis">  142.89  142.97</time>
   <time name="orth">    5.16    5.16</time>
   <time name="total">  182.52  182.62</time>
   <energy>
    <i name="e_fr_energy">   -879.53607102 </i>
    <i name="e_wo_entrp">   -879.58819283 </i>
    <i name="e_0_energy">   -879.55344496 </i>
   </energy>
  </scstep>
  <scstep>
   <time name="diag">   24.35   24.36</time>
   <time name="diis">  138.47  138.54</time>
   <time name="orth">    5.12    5.12</time>
   <time name="total">  177.57  177.66</time>
   <energy>
    <i name="e_fr_energy">   -879.53603035 </i>
    <i name="e_wo_entrp">   -879.58843185 </i>
    <i name="e_0_energy">   -879.55349751 </i>
   </energy>
  </scstep>
  <scstep>
   <time name="diag">   24.43   24.43</time>
   <time name="diis">  105.89  105.93</time>
   <time name="orth">    4.52    4.52</time>
   <time name="total">  143.39  143.44</time>
   <energy>
    <i name="e_fr_energy">   -879.53600927 </i>
    <i name="e_wo_entrp">   -879.58866169 </i>
    <i name="e_0_energy">   -879.55356008 </i>
   </energy>
  </scstep>
  <scstep>
   <time name="diag">   20.49   20.49</time>
   <time name="diis">   67.36   67.36</time>
   <time name="orth">    4.53    4.53</time>
   <time name="total">  100.97  100.97</time>
   <energy>
    <i name="e_fr_energy">   -879.53598689 </i>
    <i name="e_wo_entrp">   -879.58891292 </i>
    <i name="e_0_energy">   -879.55362890 </i>
   </energy>
  </scstep>
  <scstep>
   <time name="diag">   20.64   20.64</time>
   <time name="diis">   66.89   66.89</time>
   <time name="orth">    4.66    4.66</time>
   <time name="total">  100.78  100.79</time>
   <energy>
    <i name="e_fr_energy">   -879.53596783 </i>
    <i name="e_wo_entrp">   -879.58912409 </i>
    <i name="e_0_energy">   -879.55368658 </i>
   </energy>
  </scstep>
  <scstep>
   <time name="diag">   20.67   20.67</time>
   <time name="diis">   64.42   64.42</time>
   <time name="orth">    4.51    4.51</time>
   <time name="total">   98.14   98.14</time>
   <energy>
    <i name="e_fr_energy">   -879.53595476 </i>
    <i name="e_wo_entrp">   -879.58927504 </i>
    <i name="e_0_energy">   -879.55372819 </i>
   </energy>
  </scstep>
  <scstep>
   <time name="diag">   20.32   20.32</time>
   <time name="diis">   61.11   61.11</time>
   <time name="orth">    4.42    4.42</time>
   <time name="total">   94.26   94.27</time>
   <energy>
    <i name="e_fr_energy">   -879.53594204 </i>
    <i name="e_wo_entrp">   -879.58942066 </i>
    <i name="e_0_energy">   -879.55376825 </i>
   </energy>
  </scstep>
  <scstep>
   <time name="diag">   19.56   19.56</time>
   <time name="diis">   58.31   58.31</time>
   <time name="orth">    4.42    4.42</time>
   <time name="total">   90.70   90.70</time>
   <energy>
    <i name="e_fr_energy">   -879.53593102 </i>
    <i name="e_wo_entrp">   -879.58955409 </i>
    <i name="e_0_energy">   -879.55380538 </i>
   </energy>
  </scstep>
  <scstep>
   <time name="diag">   19.55   19.55</time>
   <time name="diis">   56.16   56.16</time>
   <time name="orth">    4.42    4.42</time>
   <time name="total">   88.54   88.54</time>
   <energy>
    <i name="e_fr_energy">   -879.53592277 </i>
    <i name="e_wo_entrp">   -879.58965976 </i>
    <i name="e_0_energy">   -879.55383510 </i>
   </energy>
  </scstep>
  <scstep>
   <time name="diag">   19.55   19.55</time>
   <time name="diis">   55.50   55.50</time>
   <time name="orth">    4.42    4.42</time>
   <time name="total">   87.88   87.88</time>
   <energy>
    <i name="e_fr_energy">   -879.53591343 </i>
    <i name="e_wo_entrp">   -879.58977399 </i>
    <i name="e_0_energy">   -879.55386695 </i>
   </energy>
  </scstep>
  <scstep>
   <time name="diag">   19.55   19.55</time>
   <time name="diis">   51.48   51.48</time>
   <time name="orth">    4.42    4.42</time>
   <time name="total">   83.87   83.88</time>
   <energy>
    <i name="e_fr_energy">   -879.53590484 </i>
    <i name="e_wo_entrp">   -879.58987831 </i>
    <i name="e_0_energy">   -879.55389600 </i>
   </energy>
  </scstep>
  <scstep>
   <time name="diag">   19.53   19.53</time>
   <time name="diis">   50.77   50.77</time>
   <time name="orth">    4.41    4.41</time>
   <time name="total">   83.15   83.15</time>
   <energy>
    <i name="e_fr_energy">   -879.53589803 </i>
    <i name="e_wo_entrp">   -879.58996358 </i>
    <i name="e_0_energy">   -879.55391988 </i>
   </energy>
  </scstep>
  <scstep>
   <time name="diag">   19.53   19.53</time>
   <time name="diis">   49.31   49.31</time>
   <time name="orth">    4.41    4.41</time>
   <time name="total">   81.65   81.65</time>
   <energy>
    <i name="e_fr_energy">   -879.53589122 </i>
    <i name="e_wo_entrp">   -879.59004752 </i>
    <i name="e_0_energy">   -879.55394332 </i>
   </energy>
  </scstep>
  <scstep>
   <time name="diag">   19.52   19.52</time>
   <time name="diis">   48.35   48.35</time>
   <time name="orth">    4.41    4.41</time>
   <time name="total">   80.70   80.70</time>
   <energy>
    <i name="e_fr_energy">   -879.53588570 </i>
    <i name="e_wo_entrp">   -879.59011738 </i>
    <i name="e_0_energy">   -879.55396293 </i>
   </energy>
  </scstep>
  <scstep>
   <time name="diag">   19.52   19.52</time>
   <time name="diis">   47.27   47.27</time>
   <time name="orth">    4.41    4.41</time>
   <time name="total">   79.63   79.64</time>
   <energy>
    <i name="e_fr_energy">   -879.53588026 </i>
    <i name="e_wo_entrp">   -879.59018571 </i>
    <i name="e_0_energy">   -879.55398208 </i>
   </energy>
  </scstep>
  <scstep>
   <time name="diag">   19.52   19.52</time>
   <time name="diis">   47.06   47.06</time>
   <time name="orth">    4.41    4.41</time>
   <time name="total">   79.42   79.42</time>
   <energy>
    <i name="e_fr_energy">   -879.53587596 </i>
    <i name="e_wo_entrp">   -879.59024138 </i>
    <i name="e_0_energy">   -879.55399777 </i>
   </energy>
  </scstep>
  <scstep>
   <time name="diag">   19.50   19.50</time>
   <time name="diis">   46.20   46.20</time>
   <time name="orth">    4.41    4.41</time>
   <time name="total">   78.49   78.49</time>
   <energy>
    <i name="e_fr_energy">   -879.53587211 </i>
    <i name="e_wo_entrp">   -879.59029166 </i>
    <i name="e_0_energy">   -879.55401196 </i>
   </energy>
  </scstep>
  <scstep>
   <time name="diag">   19.51   19.51</time>
   <time name="diis">   46.29   46.29</time>
   <time name="orth">    4.41    4.41</time>
   <time name="total">   78.58   78.58</time>
   <energy>
    <i name="e_fr_energy">   -879.53586782 </i>
    <i name="e_wo_entrp">   -879.59034561 </i>
    <i name="e_0_energy">   -879.55402708 </i>
   </energy>
  </scstep>
  <scstep>
   <time name="diag">   19.50   19.50</time>
   <time name="diis">   45.57   45.57</time>
   <time name="orth">    4.41    4.41</time>
   <time name="total">   77.84   77.84</time>
   <energy>
    <i name="e_fr_energy">   -879.53586435 </i>
    <i name="e_wo_entrp">   -879.59039032 </i>
    <i name="e_0_energy">   -879.55403967 </i>
   </energy>
  </scstep>
  <scstep>
   <time name="diag">   19.49   19.49</time>
   <time name="diis">   45.28   45.28</time>
   <time name="orth">    4.41    4.41</time>
   <time name="total">   77.54   77.55</time>
   <energy>
    <i name="e_fr_energy">   -879.53586138 </i>
    <i name="e_wo_entrp">   -879.59042913 </i>
    <i name="e_0_energy">   -879.55405063 </i>
   </energy>
  </scstep>
  <scstep>
   <time name="diag">   19.49   19.49</time>
   <time name="diis">   45.02   45.02</time>
   <time name="orth">    4.41    4.41</time>
   <time name="total">   77.31   77.31</time>
   <energy>
    <i name="e_fr_energy">   -879.53585863 </i>
    <i name="e_wo_entrp">   -879.59046526 </i>
    <i name="e_0_energy">   -879.55406084 </i>
   </energy>
  </scstep>
  <scstep>
   <time name="diag">   19.54   19.54</time>
   <time name="diis">   44.68   44.68</time>
   <time name="orth">    4.41    4.41</time>
   <time name="total">   77.01   77.01</time>
   <energy>
    <i name="e_fr_energy">   -879.53585618 </i>
    <i name="e_wo_entrp">   -879.59049764 </i>
    <i name="e_0_energy">   -879.55407000 </i>
   </energy>
  </scstep>
  <scstep>
   <time name="diag">   19.53   19.53</time>
   <time name="diis">   44.65   44.65</time>
   <time name="orth">    4.41    4.41</time>
   <time name="total">   76.96   76.97</time>
   <energy>
    <i name="e_fr_energy">   -879.53585395 </i>
    <i name="e_wo_entrp">   -879.59052731 </i>
    <i name="e_0_energy">   -879.55407840 </i>
   </energy>
  </scstep>
  <scstep>
   <time name="diag">   19.53   19.53</time>
   <time name="diis">   44.18   44.18</time>
   <time name="orth">    4.41    4.41</time>
   <time name="total">   76.50   76.51</time>
   <energy>
    <i name="e_fr_energy">   -879.53585176 </i>
    <i name="e_wo_entrp">   -879.59055593 </i>
    <i name="e_0_energy">   -879.55408648 </i>
   </energy>
  </scstep>
  <scstep>
   <time name="diag">   19.50   19.50</time>
   <time name="diis">   43.95   43.95</time>
   <time name="orth">    4.41    4.41</time>
   <time name="total">   76.22   76.23</time>
   <energy>
    <i name="e_fr_energy">   -879.53584989 </i>
    <i name="e_wo_entrp">   -879.59058080 </i>
    <i name="e_0_energy">   -879.55409353 </i>
   </energy>
  </scstep>
  <scstep>
   <time name="diag">   19.51   19.51</time>
   <time name="diis">   43.73   43.73</time>
   <time name="orth">    4.41    4.41</time>
   <time name="total">   76.02   76.02</time>
   <energy>
    <i name="e_fr_energy">   -879.53584812 </i>
    <i name="e_wo_entrp">   -879.59060428 </i>
    <i name="e_0_energy">   -879.55410017 </i>
   </energy>
  </scstep>
  <scstep>
   <time name="diag">   19.50   19.50</time>
   <time name="diis">   43.64   43.64</time>
   <time name="orth">    4.41    4.41</time>
   <time name="total">   75.93   75.93</time>
   <energy>
    <i name="e_fr_energy">   -879.53584655 </i>
    <i name="e_wo_entrp">   -879.59062523 </i>
    <i name="e_0_energy">   -879.55410611 </i>
   </energy>
  </scstep>
  <scstep>
   <time name="diag">   19.51   19.51</time>
   <time name="diis">   43.60   43.60</time>
   <time name="orth">    4.41    4.41</time>
   <time name="total">   75.88   75.88</time>
   <energy>
    <i name="e_fr_energy">   -879.53584512 </i>
    <i name="e_wo_entrp">   -879.59064437 </i>
    <i name="e_0_energy">   -879.55411153 </i>
   </energy>
  </scstep>
  <scstep>
   <time name="diag">   19.50   19.50</time>
   <time name="diis">   43.43   43.43</time>
   <time name="orth">    4.41    4.41</time>
   <time name="total">   75.72   75.73</time>
   <energy>
    <i name="e_fr_energy">   -879.53584381 </i>
    <i name="e_wo_entrp">   -879.59066187 </i>
    <i name="e_0_energy">   -879.55411650 </i>
   </energy>
  </scstep>
  <scstep>
   <time name="diag">   19.49   19.49</time>
   <time name="diis">   43.24   43.24</time>
   <time name="orth">    4.41    4.41</time>
   <time name="total">   75.50   75.50</time>
   <energy>
    <i name="e_fr_energy">   -879.53584246 </i>
    <i name="e_wo_entrp">   -879.59067953 </i>
    <i name="e_0_energy">   -879.55412149 </i>
   </energy>
  </scstep>
  <scstep>
   <time name="diag">   19.51   19.51</time>
   <time name="diis">   43.10   43.10</time>
   <time name="orth">    4.41    4.41</time>
   <time name="total">   75.38   75.38</time>
   <energy>
    <i name="e_fr_energy">   -879.53584138 </i>
    <i name="e_wo_entrp">   -879.59069413 </i>
    <i name="e_0_energy">   -879.55412563 </i>
   </energy>
  </scstep>
  <scstep>
   <time name="diag">   19.50   19.50</time>
   <time name="diis">   43.00   43.00</time>
   <time name="orth">    4.42    4.42</time>
   <time name="total">   67.23   67.23</time>
   <energy>
    <i name="alphaZ">   7300.31925852 </i>
    <i name="ewald"> -66232.83996889 </i>
    <i name="hartreedc">  -9349.37517330 </i>
    <i name="XCdc">    360.56726415 </i>
    <i name="pawpsdc">  58020.64628400 </i>
    <i name="pawaedc"> -58956.95056906 </i>
    <i name="eentropy">      0.05486709 </i>
    <i name="bandstr">   3776.37131652 </i>
    <i name="atom">  64201.67088057 </i>
    <i name="e_fr_energy">   -879.53584039 </i>
    <i name="e_wo_entrp">   -879.59070748 </i>
    <i name="e_0_energy">   -879.55412942 </i>
   </energy>
  </scstep>
  <structure>
   <crystal>
    <varray name="basis" >
     <v>      10.33484705       0.00000000       0.00000000 </v>
     <v>       0.00000000      10.33484705       0.00000000 </v>
     <v>       0.00000000       0.00000000      10.33484705 </v>
    </varray>
    <i name="volume">   1103.85533447 </i>
    <varray name="rec_basis" >
     <v>       0.09676002       0.00000000       0.00000000 </v>
     <v>       0.00000000       0.09676002       0.00000000 </v>
     <v>       0.00000000       0.00000000       0.09676002 </v>
    </varray>
   </crystal>
   <varray name="positions" >
    <v>       0.00000000       0.00000000       0.00000000 </v>
    <v>       0.00000000       0.16666893       0.16666893 </v>
    <v>       0.16666893       0.00000000       0.16666893 </v>
    <v>       0.16666893       0.16666893       0.00000000 </v>
    <v>       0.33333106       0.00000000       0.00000000 </v>
    <v>       0.33333107       0.16666893       0.16666893 </v>
    <v>       0.50000000       0.00000000       0.16666894 </v>
    <v>       0.50000000       0.16666894       0.00000000 </v>
    <v>       0.66666897       0.00000000       0.00000000 </v>
    <v>       0.66666896       0.16666893       0.16666893 </v>
    <v>       0.83333104       0.00000000       0.16666893 </v>
    <v>       0.83333104       0.16666893       0.00000000 </v>
    <v>       0.00000000       0.33333106       0.00000000 </v>
    <v>       0.00000000       0.50000000       0.16666894 </v>
    <v>       0.16666893       0.33333107       0.16666893 </v>
    <v>       0.16666894       0.50000000       0.00000000 </v>
    <v>       0.33333107       0.33333107       0.00000000 </v>
    <v>       0.33333107       0.50000000       0.16666893 </v>
    <v>       0.50000000       0.33333107       0.16666893 </v>
    <v>       0.50000000       0.50000000       0.00000000 </v>
    <v>       0.66666896       0.33333107       0.00000000 </v>
    <v>       0.66666896       0.50000000       0.16666893 </v>
    <v>       0.83333104       0.33333107       0.16666893 </v>
    <v>       0.83333103       0.50000000       0.00000000 </v>
    <v>       0.00000000       0.66666897       0.00000000 </v>
    <v>       0.00000000       0.83333104       0.16666893 </v>
    <v>       0.16666893       0.66666896       0.16666893 </v>
    <v>       0.16666893       0.83333104       0.00000000 </v>
    <v>       0.33333107       0.66666896       0.00000000 </v>
    <v>       0.33333107       0.83333104       0.16666893 </v>
    <v>       0.50000000       0.66666896       0.16666893 </v>
    <v>       0.50000000       0.83333103       0.00000000 </v>
    <v>       0.66666896       0.66666896       0.00000000 </v>
    <v>       0.66666896       0.83333104       0.16666893 </v>
    <v>       0.83333104       0.66666896       0.16666893 </v>
    <v>       0.83333104       0.83333104       0.00000000 </v>
    <v>       0.00000000       0.00000000       0.33333106 </v>
    <v>       0.00000000       0.16666894       0.50000000 </v>
    <v>       0.16666894       0.00000000       0.50000000 </v>
    <v>       0.16666893       0.16666893       0.33333107 </v>
    <v>       0.33333107       0.00000000       0.33333107 </v>
    <v>       0.33333107       0.16666893       0.50000000 </v>
    <v>       0.50000000       0.00000000       0.50000000 </v>
    <v>       0.50000000       0.16666893       0.33333107 </v>
    <v>       0.66666896       0.00000000       0.33333107 </v>
    <v>       0.66666896       0.16666893       0.50000000 </v>
    <v>       0.83333103       0.00000000       0.50000000 </v>
    <v>       0.83333104       0.16666893       0.33333107 </v>
    <v>       0.00000000       0.33333107       0.33333107 </v>
    <v>       0.00000000       0.50000000       0.50000000 </v>
    <v>       0.16666893       0.33333107       0.50000000 </v>
    <v>       0.16666893       0.50000000       0.33333107 </v>
    <v>       0.33333107       0.33333107       0.33333107 </v>
    <v>       0.33333106       0.50000000       0.50000000 </v>
    <v>       0.50000000       0.33333106       0.50000000 </v>
    <v>       0.50000000       0.50000000       0.33333106 </v>
    <v>       0.66666896       0.33333107       0.33333107 </v>
    <v>       0.66666897       0.50000000       0.50000000 </v>
    <v>       0.83333104       0.33333107       0.50000000 </v>
    <v>       0.83333104       0.50000000       0.33333107 </v>
    <v>       0.00000000       0.66666896       0.33333107 </v>
    <v>       0.00000000       0.83333103       0.50000000 </v>
    <v>       0.16666893       0.66666896       0.50000000 </v>
    <v>       0.16666893       0.83333104       0.33333107 </v>
    <v>       0.33333107       0.66666896       0.33333107 </v>
    <v>       0.33333107       0.83333104       0.50000000 </v>
    <v>       0.50000000       0.66666897       0.50000000 </v>
    <v>       0.50000000       0.83333104       0.33333107 </v>
    <v>       0.66666896       0.66666896       0.33333107 </v>
    <v>       0.66666896       0.83333104       0.50000000 </v>
    <v>       0.83333104       0.66666896       0.50000000 </v>
    <v>       0.83333104       0.83333104       0.33333107 </v>
    <v>       0.00000000       0.00000000       0.66666897 </v>
    <v>       0.00000000       0.16666893       0.83333104 </v>
    <v>       0.16666893       0.00000000       0.83333104 </v>
    <v>       0.16666893       0.16666893       0.66666896 </v>
    <v>       0.33333107       0.00000000       0.66666896 </v>
    <v>       0.33333107       0.16666893       0.83333104 </v>
    <v>       0.50000000       0.00000000       0.83333103 </v>
    <v>       0.50000000       0.16666893       0.66666896 </v>
    <v>       0.66666896       0.00000000       0.66666896 </v>
    <v>       0.66666896       0.16666893       0.83333104 </v>
    <v>       0.83333104       0.00000000       0.83333104 </v>
    <v>       0.83333104       0.16666893       0.66666896 </v>
    <v>       0.00000000       0.33333107       0.66666896 </v>
    <v>       0.00000000       0.50000000       0.83333103 </v>
    <v>       0.16666893       0.33333107       0.83333104 </v>
    <v>       0.16666893       0.50000000       0.66666896 </v>
    <v>       0.33333107       0.33333107       0.66666896 </v>
    <v>       0.33333107       0.50000000       0.83333104 </v>
    <v>       0.50000000       0.33333107       0.83333104 </v>
    <v>       0.50000000       0.50000000       0.66666897 </v>
    <v>       0.66666896       0.33333107       0.66666896 </v>
    <v>       0.66666896       0.50000000       0.83333104 </v>
    <v>       0.83333104       0.33333107       0.83333104 </v>
    <v>       0.83333104       0.50000000       0.66666896 </v>
    <v>       0.00000000       0.66666896       0.66666896 </v>
    <v>       0.00000000       0.83333104       0.83333104 </v>
    <v>       0.16666893       0.66666896       0.83333104 </v>
    <v>       0.16666893       0.83333104       0.66666896 </v>
    <v>       0.33333107       0.66666896       0.66666896 </v>
    <v>       0.33333107       0.83333104       0.83333104 </v>
    <v>       0.50000000       0.66666896       0.83333104 </v>
    <v>       0.50000000       0.83333104       0.66666896 </v>
    <v>       0.66666896       0.66666896       0.66666896 </v>
    <v>       0.66666896       0.83333104       0.83333104 </v>
    <v>       0.83333104       0.66666896       0.83333104 </v>
    <v>       0.83333104       0.83333104       0.66666896 </v>
   </varray>
  </structure>
  <varray name="forces" >
   <v>      -0.00000000       0.00000000       0.00000000 </v>
   <v>      -0.00000000      -0.00000000       0.00000000 </v>
   <v>       0.00000000      -0.00000000       0.00000000 </v>
   <v>       0.00000000      -0.00000000      -0.00000000 </v>
   <v>      -0.00000000      -0.00000000      -0.00000000 </v>
   <v>       0.00000000       0.00000000       0.00000000 </v>
   <v>      -0.00000000       0.00000000       0.00000000 </v>
   <v>      -0.00000000      -0.00000000      -0.00000000 </v>
   <v>      -0.00000000      -0.00000000      -0.00000000 </v>
   <v>      -0.00000000      -0.00000000      -0.00000000 </v>
   <v>       0.00000000       0.00000000       0.00000000 </v>
   <v>       0.00000000      -0.00000000       0.00000000 </v>
   <v>       0.00000000      -0.00000000      -0.00000000 </v>
   <v>      -0.00000000       0.00000000      -0.00000000 </v>
   <v>      -0.00000000      -0.00000000      -0.00000000 </v>
   <v>       0.00000000      -0.00000000      -0.00000000 </v>
   <v>      -0.00000000       0.00000000       0.00000000 </v>
   <v>      -0.00000000       0.00000000      -0.00000000 </v>
   <v>      -0.00000000      -0.00000000      -0.00000000 </v>
   <v>       0.00000000      -0.00000000      -0.00000000 </v>
   <v>      -0.00000000      -0.00000000       0.00000000 </v>
   <v>      -0.00000000       0.00000000       0.00000000 </v>
   <v>      -0.00000000       0.00000000      -0.00000000 </v>
   <v>      -0.00000000      -0.00000000       0.00000000 </v>
   <v>       0.00000000      -0.00000000      -0.00000000 </v>
   <v>      -0.00000000      -0.00000000       0.00000000 </v>
   <v>       0.00000000      -0.00000000      -0.00000000 </v>
   <v>       0.00000000       0.00000000      -0.00000000 </v>
   <v>      -0.00000000      -0.00000000      -0.00000000 </v>
   <v>       0.00000000       0.00000000       0.00000000 </v>
   <v>      -0.00000000       0.00000000       0.00000000 </v>
   <v>       0.00000000       0.00000000       0.00000000 </v>
   <v>      -0.00000000       0.00000000      -0.00000000 </v>
   <v>      -0.00000000       0.00000000       0.00000000 </v>
   <v>      -0.00000000      -0.00000000      -0.00000000 </v>
   <v>      -0.00000000       0.00000000       0.00000000 </v>
   <v>       0.00000000       0.00000000      -0.00000000 </v>
   <v>      -0.00000000      -0.00000000      -0.00000000 </v>
   <v>       0.00000000      -0.00000000       0.00000000 </v>
   <v>       0.00000000       0.00000000      -0.00000000 </v>
   <v>      -0.00000000      -0.00000000       0.00000000 </v>
   <v>      -0.00000000      -0.00000000       0.00000000 </v>
   <v>      -0.00000000       0.00000000       0.00000000 </v>
   <v>      -0.00000000      -0.00000000       0.00000000 </v>
   <v>       0.00000000      -0.00000000       0.00000000 </v>
   <v>       0.00000000      -0.00000000      -0.00000000 </v>
   <v>      -0.00000000       0.00000000      -0.00000000 </v>
   <v>      -0.00000000      -0.00000000      -0.00000000 </v>
   <v>       0.00000000      -0.00000000       0.00000000 </v>
   <v>      -0.00000000      -0.00000000       0.00000000 </v>
   <v>      -0.00000000       0.00000000       0.00000000 </v>
   <v>       0.00000000       0.00000000      -0.00000000 </v>
   <v>      -0.00000000       0.00000000       0.00000000 </v>
   <v>      -0.00000000       0.00000000      -0.00000000 </v>
   <v>      -0.00000000      -0.00000000      -0.00000000 </v>
   <v>      -0.00000000      -0.00000000       0.00000000 </v>
   <v>      -0.00000000       0.00000000      -0.00000000 </v>
   <v>       0.00000000       0.00000000       0.00000000 </v>
   <v>      -0.00000000      -0.00000000       0.00000000 </v>
   <v>       0.00000000      -0.00000000      -0.00000000 </v>
   <v>       0.00000000       0.00000000      -0.00000000 </v>
   <v>       0.00000000       0.00000000      -0.00000000 </v>
   <v>      -0.00000000      -0.00000000      -0.00000000 </v>
   <v>       0.00000000       0.00000000       0.00000000 </v>
   <v>       0.00000000       0.00000000      -0.00000000 </v>
   <v>      -0.00000000       0.00000000       0.00000000 </v>
   <v>      -0.00000000      -0.00000000       0.00000000 </v>
   <v>      -0.00000000       0.00000000      -0.00000000 </v>
   <v>       0.00000000       0.00000000       0.00000000 </v>
   <v>      -0.00000000       0.00000000       0.00000000 </v>
   <v>       0.00000000      -0.00000000      -0.00000000 </v>
   <v>      -0.00000000       0.00000000       0.00000000 </v>
   <v>       0.00000000       0.00000000       0.00000000 </v>
   <v>      -0.00000000      -0.00000000      -0.00000000 </v>
   <v>       0.00000000      -0.00000000      -0.00000000 </v>
   <v>      -0.00000000       0.00000000       0.00000000 </v>
   <v>      -0.00000000      -0.00000000      -0.00000000 </v>
   <v>       0.00000000       0.00000000      -0.00000000 </v>
   <v>       0.00000000      -0.00000000      -0.00000000 </v>
   <v>       0.00000000       0.00000000      -0.00000000 </v>
   <v>      -0.00000000      -0.00000000      -0.00000000 </v>
   <v>       0.00000000       0.00000000       0.00000000 </v>
   <v>      -0.00000000       0.00000000       0.00000000 </v>
   <v>       0.00000000      -0.00000000      -0.00000000 </v>
   <v>      -0.00000000      -0.00000000      -0.00000000 </v>
   <v>       0.00000000       0.00000000       0.00000000 </v>
   <v>       0.00000000       0.00000000       0.00000000 </v>
   <v>      -0.00000000       0.00000000       0.00000000 </v>
   <v>       0.00000000       0.00000000      -0.00000000 </v>
   <v>      -0.00000000      -0.00000000       0.00000000 </v>
   <v>      -0.00000000      -0.00000000       0.00000000 </v>
   <v>      -0.00000000       0.00000000      -0.00000000 </v>
   <v>      -0.00000000       0.00000000       0.00000000 </v>
   <v>       0.00000000       0.00000000      -0.00000000 </v>
   <v>      -0.00000000      -0.00000000       0.00000000 </v>
   <v>      -0.00000000       0.00000000       0.00000000 </v>
   <v>      -0.00000000      -0.00000000      -0.00000000 </v>
   <v>      -0.00000000      -0.00000000       0.00000000 </v>
   <v>      -0.00000000      -0.00000000      -0.00000000 </v>
   <v>      -0.00000000       0.00000000      -0.00000000 </v>
   <v>      -0.00000000      -0.00000000       0.00000000 </v>
   <v>      -0.00000000       0.00000000      -0.00000000 </v>
   <v>       0.00000000       0.00000000      -0.00000000 </v>
   <v>      -0.00000000       0.00000000       0.00000000 </v>
   <v>      -0.00000000       0.00000000      -0.00000000 </v>
   <v>       0.00000000       0.00000000      -0.00000000 </v>
   <v>       0.00000000      -0.00000000      -0.00000000 </v>
   <v>      -0.00000000       0.00000000       0.00000000 </v>
  </varray>
  <varray name="stress" >
   <v>      -0.44599442      -0.00000000       0.00000000 </v>
   <v>      -0.00000000      -0.44599442      -0.00000000 </v>
   <v>       0.00000000      -0.00000000      -0.44599442 </v>
  </varray>
  <energy>
   <i name="e_fr_energy">   -879.53584039 </i>
   <i name="e_wo_entrp">   -879.55412942 </i>
   <i name="e_0_energy">      0.05486709 </i>
  </energy>
  <time name="totalsc"> 5903.31 5904.82</time>
  <eigenvalues>
   <array>
    <dimension dim="1">band</dimension>
    <dimension dim="2">kpoint</dimension>
    <dimension dim="3">spin</dimension>
    <field>eigene</field>
    <field>occ</field>
    <set>
     <set comment="spin 1">
      <set comment="kpoint 1">
       <r>   -2.0006    1.0000 </r>
       <r>   -0.5089    1.0000 </r>
       <r>   -0.5089    1.0000 </r>
       <r>   -0.5089    1.0000 </r>
       <r>   -0.5078    1.0000 </r>
       <r>   -0.5078    1.0000 </r>
       <r>   -0.5078    1.0000 </r>
       <r>    0.7821    1.0000 </r>
       <r>    0.7821    1.0000 </r>
       <r>    0.7821    1.0000 </r>
       <r>    0.7831    1.0000 </r>
       <r>    0.7831    1.0000 </r>
       <r>    0.7831    1.0000 </r>
       <r>    0.7831    1.0000 </r>
       <r>    0.7831    1.0000 </r>
       <r>    0.7831    1.0000 </r>
       <r>    0.7840    1.0000 </r>
       <r>    0.7840    1.0000 </r>
       <r>    0.7840    1.0000 </r>
       <r>    1.4215    1.0000 </r>
       <r>    1.4222    1.0000 </r>
       <r>    1.4222    1.0000 </r>
       <r>    1.4222    1.0000 </r>
       <r>    1.4229    1.0000 </r>
       <r>    1.4229    1.0000 </r>
       <r>    1.4229    1.0000 </r>
       <r>    1.4235    1.0000 </r>
       <r>    1.8662    1.0000 </r>
       <r>    1.8662    1.0000 </r>
       <r>    1.8662    1.0000 </r>
       <r>    1.8987    1.0000 </r>
       <r>    1.8987    1.0000 </r>
       <r>    1.8987    1.0000 </r>
       <r>    1.8993    1.0000 </r>
       <r>    1.8993    1.0000 </r>
       <r>    1.8993    1.0000 </r>
       <r>    2.5936    1.0000 </r>
       <r>    2.5936    1.0000 </r>
       <r>    2.5936    1.0000 </r>
       <r>    2.5936    1.0000 </r>
       <r>    2.5936    1.0000 </r>
       <r>    2.5936    1.0000 </r>
       <r>    2.5936    1.0000 </r>
       <r>    2.5936    1.0000 </r>
       <r>    2.5936    1.0000 </r>
       <r>    2.5936    1.0000 </r>
       <r>    2.5936    1.0000 </r>
       <r>    2.5936    1.0000 </r>
       <r>    2.5938    1.0000 </r>
       <r>    2.5938    1.0000 </r>
       <r>    2.5938    1.0000 </r>
       <r>    2.5938    1.0000 </r>
       <r>    2.5938    1.0000 </r>
       <r>    2.5938    1.0000 </r>
       <r>    2.5938    1.0000 </r>
       <r>    2.5938    1.0000 </r>
       <r>    2.5938    1.0000 </r>
       <r>    2.5938    1.0000 </r>
       <r>    2.5938    1.0000 </r>
       <r>    2.5938    1.0000 </r>
       <r>    2.6081    1.0000 </r>
       <r>    2.6081    1.0000 </r>
       <r>    2.6081    1.0000 </r>
       <r>    2.6678    1.0000 </r>
       <r>    2.6678    1.0000 </r>
       <r>    2.6678    1.0000 </r>
       <r>    2.6678    1.0000 </r>
       <r>    2.6678    1.0000 </r>
       <r>    2.6678    1.0000 </r>
       <r>    2.6688    1.0000 </r>
       <r>    2.6688    1.0000 </r>
       <r>    2.6688    1.0000 </r>
       <r>    2.6688    1.0000 </r>
       <r>    2.6688    1.0000 </r>
       <r>    2.6688    1.0000 </r>
       <r>    2.8818    1.0000 </r>
       <r>    2.8818    1.0000 </r>
       <r>    2.8818    1.0000 </r>
       <r>    2.8818    1.0000 </r>
       <r>    2.8818    1.0000 </r>
       <r>    2.8818    1.0000 </r>
       <r>    2.8823    1.0000 </r>
       <r>    2.8823    1.0000 </r>
       <r>    2.8823    1.0000 </r>
       <r>    2.8823    1.0000 </r>
       <r>    2.8823    1.0000 </r>
       <r>    2.8823    1.0000 </r>
       <r>    2.8827    1.0000 </r>
       <r>    2.8827    1.0000 </r>
       <r>    2.8827    1.0000 </r>
       <r>    2.8827    1.0000 </r>
       <r>    2.8827    1.0000 </r>
       <r>    2.8827    1.0000 </r>
       <r>    2.8832    1.0000 </r>
       <r>    2.8832    1.0000 </r>
       <r>    2.8832    1.0000 </r>
       <r>    2.8832    1.0000 </r>
       <r>    2.8832    1.0000 </r>
       <r>    2.8832    1.0000 </r>
       <r>    3.1865    1.0000 </r>
       <r>    3.1865    1.0000 </r>
       <r>    3.1865    1.0000 </r>
       <r>    3.1875    1.0000 </r>
       <r>    3.1875    1.0000 </r>
       <r>    3.1875    1.0000 </r>
       <r>    3.3141    1.0000 </r>
       <r>    3.3141    1.0000 </r>
       <r>    3.3141    1.0000 </r>
       <r>    3.3142    1.0000 </r>
       <r>    3.3142    1.0000 </r>
       <r>    3.3142    1.0000 </r>
       <r>    3.3142    1.0000 </r>
       <r>    3.3142    1.0000 </r>
       <r>    3.3142    1.0000 </r>
       <r>    3.3143    1.0000 </r>
       <r>    3.3143    1.0000 </r>
       <r>    3.3143    1.0000 </r>
       <r>    3.3241    1.0000 </r>
       <r>    3.3241    1.0000 </r>
       <r>    3.3241    1.0000 </r>
       <r>    3.3241    1.0000 </r>
       <r>    3.3241    1.0000 </r>
       <r>    3.3241    1.0000 </r>
       <r>    3.3250    1.0000 </r>
       <r>    3.3250    1.0000 </r>
       <r>    3.3250    1.0000 </r>
       <r>    3.3250    1.0000 </r>
       <r>    3.3250    1.0000 </r>
       <r>    3.3250    1.0000 </r>
       <r>    3.5708    1.0000 </r>
       <r>    3.5708    1.0000 </r>
       <r>    3.5708    1.0000 </r>
       <r>    3.5708    1.0000 </r>
       <r>    3.5708    1.0000 </r>
       <r>    3.5708    1.0000 </r>
       <r>    3.5708    1.0000 </r>
       <r>    3.5708    1.0000 </r>
       <r>    3.5708    1.0000 </r>
       <r>    3.5708    1.0000 </r>
       <r>    3.5708    1.0000 </r>
       <r>    3.5708    1.0000 </r>
       <r>    3.6935    1.0000 </r>
       <r>    3.6935    1.0000 </r>
       <r>    3.6935    1.0000 </r>
       <r>    3.6935    1.0000 </r>
       <r>    3.6935    1.0000 </r>
       <r>    3.6935    1.0000 </r>
       <r>    3.6943    1.0000 </r>
       <r>    3.6943    1.0000 </r>
       <r>    3.6943    1.0000 </r>
       <r>    3.6943    1.0000 </r>
       <r>    3.6943    1.0000 </r>
       <r>    3.6943    1.0000 </r>
       <r>    3.6944    1.0000 </r>
       <r>    3.6944    1.0000 </r>
       <r>    3.6944    1.0000 </r>
       <r>    3.6944    1.0000 </r>
       <r>    3.6944    1.0000 </r>
       <r>    3.6944    1.0000 </r>
       <r>    3.6952    1.0000 </r>
       <r>    3.6952    1.0000 </r>
       <r>    3.6952    1.0000 </r>
       <r>    3.6952    1.0000 </r>
       <r>    3.6952    1.0000 </r>
       <r>    3.6952    1.0000 </r>
       <r>    4.2996    1.0000 </r>
       <r>    4.2996    1.0000 </r>
       <r>    4.2996    1.0000 </r>
       <r>    4.3004    1.0000 </r>
       <r>    4.3004    1.0000 </r>
       <r>    4.3004    1.0000 </r>
       <r>    4.3004    1.0000 </r>
       <r>    4.3004    1.0000 </r>
       <r>    4.3004    1.0000 </r>
       <r>    4.3004    1.0000 </r>
       <r>    4.3004    1.0000 </r>
       <r>    4.3004    1.0000 </r>
       <r>    4.3012    1.0000 </r>
       <r>    4.3012    1.0000 </r>
       <r>    4.3012    1.0000 </r>
       <r>    4.3012    1.0000 </r>
       <r>    4.3012    1.0000 </r>
       <r>    4.3012    1.0000 </r>
       <r>    4.3012    1.0000 </r>
       <r>    4.3012    1.0000 </r>
       <r>    4.3012    1.0000 </r>
       <r>    4.3020    1.0000 </r>
       <r>    4.3020    1.0000 </r>
       <r>    4.3020    1.0000 </r>
       <r>    4.3513    1.0000 </r>
       <r>    4.3513    1.0000 </r>
       <r>    4.3513    1.0000 </r>
       <r>    4.3515    1.0000 </r>
       <r>    4.3515    1.0000 </r>
       <r>    4.3515    1.0000 </r>
       <r>    4.3515    1.0000 </r>
       <r>    4.3515    1.0000 </r>
       <r>    4.3515    1.0000 </r>
       <r>    4.3517    1.0000 </r>
       <r>    4.3517    1.0000 </r>
       <r>    4.3517    1.0000 </r>
       <r>    4.4646    1.0000 </r>
       <r>    4.4646    1.0000 </r>
       <r>    4.4646    1.0000 </r>
       <r>    4.4652    1.0000 </r>
       <r>    4.4652    1.0000 </r>
       <r>    4.4652    1.0000 </r>
       <r>    4.6416    1.0000 </r>
       <r>    4.6416    1.0000 </r>
       <r>    4.6416    1.0000 </r>
       <r>    4.6416    1.0000 </r>
       <r>    4.6416    1.0000 </r>
       <r>    4.6416    1.0000 </r>
       <r>    4.6417    1.0000 </r>
       <r>    4.6417    1.0000 </r>
       <r>    4.6417    1.0000 </r>
       <r>    4.6417    1.0000 </r>
       <r>    4.6417    1.0000 </r>
       <r>    4.6417    1.0000 </r>
       <r>    4.6418    1.0000 </r>
       <r>    4.6418    1.0000 </r>
       <r>    4.6418    1.0000 </r>
       <r>    4.6418    1.0000 </r>
       <r>    4.6418    1.0000 </r>
       <r>    4.6418    1.0000 </r>
       <r>    4.6419    1.0000 </r>
       <r>    4.6419    1.0000 </r>
       <r>    4.6419    1.0000 </r>
       <r>    4.6419    1.0000 </r>
       <r>    4.6419    1.0000 </r>
       <r>    4.6419    1.0000 </r>
       <r>    4.8749    1.0000 </r>
       <r>    4.8749    1.0000 </r>
       <r>    4.8749    1.0000 </r>
       <r>    4.8753    1.0000 </r>
       <r>    4.8753    1.0000 </r>
       <r>    4.8753    1.0000 </r>
       <r>    4.8753    1.0000 </r>
       <r>    4.8753    1.0000 </r>
       <r>    4.8753    1.0000 </r>
       <r>    4.8757    1.0000 </r>
       <r>    4.8757    1.0000 </r>
       <r>    4.8757    1.0000 </r>
       <r>    5.0405    1.0000 </r>
       <r>    5.0405    1.0000 </r>
       <r>    5.0405    1.0000 </r>
       <r>    5.0405    1.0000 </r>
       <r>    5.0405    1.0000 </r>
       <r>    5.0405    1.0000 </r>
       <r>    5.0405    1.0000 </r>
       <r>    5.0405    1.0000 </r>
       <r>    5.1780    1.0000 </r>
       <r>    5.1780    1.0000 </r>
       <r>    5.1780    1.0000 </r>
       <r>    5.2308    1.0000 </r>
       <r>    5.2308    1.0000 </r>
       <r>    5.2308    1.0000 </r>
       <r>    5.2310    1.0000 </r>
       <r>    5.2310    1.0000 </r>
       <r>    5.2310    1.0000 </r>
       <r>    5.2310    1.0000 </r>
       <r>    5.2310    1.0000 </r>
       <r>    5.2310    1.0000 </r>
       <r>    5.2310    1.0000 </r>
       <r>    5.2310    1.0000 </r>
       <r>    5.2310    1.0000 </r>
       <r>    5.2312    1.0000 </r>
       <r>    5.2312    1.0000 </r>
       <r>    5.2312    1.0000 </r>
       <r>    5.2312    1.0000 </r>
       <r>    5.2312    1.0000 </r>
       <r>    5.2312    1.0000 </r>
       <r>    5.2312    1.0000 </r>
       <r>    5.2312    1.0000 </r>
       <r>    5.2312    1.0000 </r>
       <r>    5.2314    1.0000 </r>
       <r>    5.2314    1.0000 </r>
       <r>    5.2314    1.0000 </r>
       <r>    5.3029    1.0000 </r>
       <r>    5.3029    1.0000 </r>
       <r>    5.3029    1.0000 </r>
       <r>    5.3029    1.0000 </r>
       <r>    5.3029    1.0000 </r>
       <r>    5.3031    1.0000 </r>
       <r>    5.3031    1.0000 </r>
       <r>    5.3031    1.0000 </r>
       <r>    5.3033    1.0000 </r>
       <r>    5.3033    1.0000 </r>
       <r>    5.3033    1.0000 </r>
       <r>    5.3036    1.0000 </r>
       <r>    5.3036    1.0000 </r>
       <r>    5.3036    1.0000 </r>
       <r>    5.3036    1.0000 </r>
       <r>    5.3036    1.0000 </r>
       <r>    5.3277    1.0000 </r>
       <r>    5.3277    1.0000 </r>
       <r>    5.3277    1.0000 </r>
       <r>    5.3278    1.0000 </r>
       <r>    5.3278    1.0000 </r>
       <r>    5.3278    1.0000 </r>
       <r>    5.3278    1.0000 </r>
       <r>    5.3278    1.0000 </r>
       <r>    5.3278    1.0000 </r>
       <r>    5.3280    1.0000 </r>
       <r>    5.3280    1.0000 </r>
       <r>    5.3280    1.0000 </r>
       <r>    5.4426    1.0000 </r>
       <r>    5.4426    1.0000 </r>
       <r>    5.4426    1.0000 </r>
       <r>    5.4426    1.0000 </r>
       <r>    5.4426    1.0000 </r>
       <r>    5.4426    1.0000 </r>
       <r>    5.4427    1.0000 </r>
       <r>    5.4427    1.0000 </r>
       <r>    5.4427    1.0000 </r>
       <r>    5.4427    1.0000 </r>
       <r>    5.4427    1.0000 </r>
       <r>    5.4427    1.0000 </r>
       <r>    5.6809    1.0000 </r>
       <r>    5.6809    1.0000 </r>
       <r>    5.6809    1.0000 </r>
       <r>    5.6812    1.0000 </r>
       <r>    5.6812    1.0000 </r>
       <r>    5.6812    1.0000 </r>
       <r>    5.6814    1.0000 </r>
       <r>    5.6814    1.0000 </r>
       <r>    5.6814    1.0000 </r>
       <r>    5.6814    1.0000 </r>
       <r>    5.6814    1.0000 </r>
       <r>    5.6814    1.0000 </r>
       <r>    5.6816    1.0000 </r>
       <r>    5.6816    1.0000 </r>
       <r>    5.6816    1.0000 </r>
       <r>    5.6816    1.0000 </r>
       <r>    5.6816    1.0000 </r>
       <r>    5.6816    1.0000 </r>
       <r>    5.6818    1.0000 </r>
       <r>    5.6818    1.0000 </r>
       <r>    5.6818    1.0000 </r>
       <r>    5.6821    1.0000 </r>
       <r>    5.6821    1.0000 </r>
       <r>    5.6821    1.0000 </r>
       <r>    5.7417    1.0000 </r>
       <r>    5.7417    1.0000 </r>
       <r>    5.7417    1.0000 </r>
       <r>    5.7417    1.0000 </r>
       <r>    5.7417    1.0000 </r>
       <r>    5.7417    1.0000 </r>
       <r>    5.7426    1.0000 </r>
       <r>    5.7426    1.0000 </r>
       <r>    5.7426    1.0000 </r>
       <r>    5.7426    1.0000 </r>
       <r>    5.7426    1.0000 </r>
       <r>    5.7426    1.0000 </r>
       <r>    5.9500    1.0000 </r>
       <r>    5.9500    1.0000 </r>
       <r>    5.9500    1.0000 </r>
       <r>    5.9501    1.0000 </r>
       <r>    5.9501    1.0000 </r>
       <r>    5.9501    1.0000 </r>
       <r>    5.9501    1.0000 </r>
       <r>    5.9501    1.0000 </r>
       <r>    5.9501    1.0000 </r>
       <r>    5.9502    1.0000 </r>
       <r>    5.9502    1.0000 </r>
       <r>    5.9502    1.0000 </r>
       <r>    6.1108    1.0000 </r>
       <r>    6.1108    1.0000 </r>
       <r>    6.1108    1.0000 </r>
       <r>    6.1114    1.0000 </r>
       <r>    6.1114    1.0000 </r>
       <r>    6.1114    1.0000 </r>
       <r>    6.1258    1.0000 </r>
       <r>    6.1258    1.0000 </r>
       <r>    6.1258    1.0000 </r>
       <r>    6.1265    1.0000 </r>
       <r>    6.1265    1.0000 </r>
       <r>    6.1265    1.0000 </r>
       <r>    6.1265    1.0000 </r>
       <r>    6.1265    1.0000 </r>
       <r>    6.1265    1.0000 </r>
       <r>    6.1272    1.0000 </r>
       <r>    6.1272    1.0000 </r>
       <r>    6.1272    1.0000 </r>
       <r>    6.5339    1.0330 </r>
       <r>    6.5339    1.0330 </r>
       <r>    6.5339    1.0330 </r>
       <r>    6.5346    1.0331 </r>
       <r>    6.5346    1.0331 </r>
       <r>    6.5346    1.0331 </r>
       <r>    6.5346    1.0331 </r>
       <r>    6.5346    1.0331 </r>
       <r>    6.5346    1.0331 </r>
       <r>    6.5353    1.0332 </r>
       <r>    6.5353    1.0332 </r>
       <r>    6.5353    1.0332 </r>
       <r>    6.6195    1.0174 </r>
       <r>    6.6195    1.0174 </r>
       <r>    6.6195    1.0174 </r>
       <r>    6.6195    1.0173 </r>
       <r>    6.6195    1.0173 </r>
       <r>    6.6195    1.0173 </r>
       <r>    6.7372    0.7762 </r>
       <r>    6.7372    0.7762 </r>
       <r>    6.7372    0.7762 </r>
       <r>    6.7372    0.7762 </r>
       <r>    6.7372    0.7762 </r>
       <r>    6.7372    0.7762 </r>
       <r>    6.7379    0.7739 </r>
       <r>    6.7379    0.7739 </r>
       <r>    6.7379    0.7739 </r>
       <r>    6.7379    0.7739 </r>
       <r>    6.7379    0.7739 </r>
       <r>    6.7379    0.7739 </r>
       <r>    6.7379    0.7739 </r>
       <r>    6.7379    0.7739 </r>
       <r>    6.7379    0.7739 </r>
       <r>    6.7379    0.7739 </r>
       <r>    6.7379    0.7739 </r>
       <r>    6.7379    0.7739 </r>
       <r>    6.7379    0.7738 </r>
       <r>    6.7379    0.7738 </r>
       <r>    6.7386    0.7715 </r>
       <r>    6.7386    0.7715 </r>
       <r>    6.7386    0.7715 </r>
       <r>    6.7386    0.7715 </r>
       <r>    6.7386    0.7715 </r>
       <r>    6.7386    0.7715 </r>
       <r>    6.9587    0.0213 </r>
       <r>    6.9587    0.0213 </r>
       <r>    6.9587    0.0213 </r>
       <r>    6.9587    0.0213 </r>
       <r>    6.9587    0.0213 </r>
       <r>    6.9587    0.0213 </r>
       <r>    6.9593    0.0204 </r>
       <r>    6.9593    0.0204 </r>
       <r>    6.9593    0.0204 </r>
       <r>    6.9593    0.0204 </r>
       <r>    6.9593    0.0204 </r>
       <r>    6.9593    0.0204 </r>
       <r>    6.9879   -0.0122 </r>
       <r>    6.9879   -0.0122 </r>
       <r>    6.9879   -0.0122 </r>
       <r>    6.9888   -0.0130 </r>
       <r>    6.9888   -0.0130 </r>
       <r>    6.9888   -0.0130 </r>
       <r>    7.1471   -0.0185 </r>
       <r>    7.1471   -0.0185 </r>
       <r>    7.1471   -0.0185 </r>
       <r>    7.1471   -0.0185 </r>
       <r>    7.1471   -0.0185 </r>
       <r>    7.1471   -0.0185 </r>
       <r>    7.1477   -0.0184 </r>
       <r>    7.1477   -0.0184 </r>
       <r>    7.1477   -0.0184 </r>
       <r>    7.1477   -0.0184 </r>
       <r>    7.1477   -0.0184 </r>
       <r>    7.1477   -0.0184 </r>
       <r>    7.1490   -0.0181 </r>
       <r>    7.1490   -0.0181 </r>
       <r>    7.1490   -0.0181 </r>
       <r>    7.1490   -0.0181 </r>
       <r>    7.1490   -0.0181 </r>
[...]
       <r>    -1.8357     2.2167     0.2843 </r>
       <r>    -1.7897     2.6697     0.4072 </r>
       <r>    -1.7436     3.0668     0.5485 </r>
       <r>    -1.6976     3.4062     0.7054 </r>
       <r>    -1.6515     3.6971     0.8757 </r>
       <r>    -1.6055     3.9588     1.0580 </r>
       <r>    -1.5594     4.2144     1.2521 </r>
       <r>    -1.5133     4.4776     1.4583 </r>
       <r>    -1.4673     4.7391     1.6766 </r>
       <r>    -1.4212     4.9729     1.9057 </r>
       <r>    -1.3752     5.1638     2.1435 </r>
       <r>    -1.3291     5.3322     2.3891 </r>
       <r>    -1.2830     5.5260     2.6436 </r>
       <r>    -1.2370     5.7782     2.9098 </r>
       <r>    -1.1909     6.0697     3.1894 </r>
       <r>    -1.1449     6.3375     3.4813 </r>
       <r>    -1.0988     6.5271     3.7819 </r>
       <r>    -1.0527     6.6402     4.0877 </r>
       <r>    -1.0067     6.7348     4.3980 </r>
       <r>    -0.9606     6.8818     4.7149 </r>
       <r>    -0.9146     7.1182     5.0428 </r>
       <r>    -0.8685     7.4308     5.3851 </r>
       <r>    -0.8224     7.7671     5.7428 </r>
       <r>    -0.7764     8.0555     6.1138 </r>
       <r>    -0.7303     8.2326     6.4930 </r>
       <r>    -0.6843     8.2810     6.8744 </r>
       <r>    -0.6382     8.2616     7.2550 </r>
       <r>    -0.5921     8.3017     7.6373 </r>
       <r>    -0.5461     8.5226     8.0299 </r>
       <r>    -0.5000     8.9471     8.4420 </r>
       <r>    -0.4540     9.4625     8.8778 </r>
       <r>    -0.4079     9.8809     9.3329 </r>
       <r>    -0.3618    10.0630     9.7964 </r>
       <r>    -0.3158    10.0138    10.2577 </r>
       <r>    -0.2697     9.8822    10.7129 </r>
       <r>    -0.2237     9.8661    11.1673 </r>
       <r>    -0.1776    10.0902    11.6320 </r>
       <r>    -0.1315    10.5366    12.1173 </r>
       <r>    -0.0855    11.0662    12.6271 </r>
       <r>    -0.0394    11.5138    13.1574 </r>
       <r>     0.0066    11.7905    13.7004 </r>
       <r>     0.0527    11.9235    14.2496 </r>
       <r>     0.0988    12.0063    14.8026 </r>
       <r>     0.1448    12.1113    15.3605 </r>
       <r>     0.1909    12.2489    15.9247 </r>
       <r>     0.2369    12.4061    16.4961 </r>
       <r>     0.2830    12.6083    17.0768 </r>
       <r>     0.3291    12.9259    17.6722 </r>
       <r>     0.3751    13.4083    18.2898 </r>
       <r>     0.4212    14.0109    18.9351 </r>
       <r>     0.4672    14.5861    19.6069 </r>
       <r>     0.5133    14.9585    20.2959 </r>
       <r>     0.5594    15.0387    20.9886 </r>
       <r>     0.6054    14.9060    21.6752 </r>
       <r>     0.6515    14.7943    22.3566 </r>
       <r>     0.6975    14.9703    23.0461 </r>
       <r>     0.7436    15.5673    23.7631 </r>
       <r>     0.7897    16.4832    24.5223 </r>
       <r>     0.8357    17.4231    25.3248 </r>
       <r>     0.8818    18.0718    26.1572 </r>
       <r>     0.9278    18.2887    26.9996 </r>
       <r>     0.9739    18.2022    27.8380 </r>
       <r>     1.0200    18.1424    28.6736 </r>
       <r>     1.0660    18.4432    29.5231 </r>
       <r>     1.1121    19.2314    30.4089 </r>
       <r>     1.1581    20.3378    31.3457 </r>
       <r>     1.2042    21.4042    32.3315 </r>
       <r>     1.2502    22.1294    33.3508 </r>
       <r>     1.2963    22.4852    34.3865 </r>
       <r>     1.3424    22.7391    35.4338 </r>
       <r>     1.3884    23.2601    36.5052 </r>
       <r>     1.4345    24.2435    37.6218 </r>
       <r>     1.4805    25.5582    38.7990 </r>
       <r>     1.5266    26.8404    40.0353 </r>
       <r>     1.5727    27.7869    41.3151 </r>
       <r>     1.6187    28.4477    42.6254 </r>
       <r>     1.6648    29.3098    43.9754 </r>
       <r>     1.7108    31.1150    45.4086 </r>
       <r>     1.7569    34.5597    47.0004 </r>
       <r>     1.8030    40.0738    48.8462 </r>
       <r>     1.8490    47.7525    51.0456 </r>
       <r>     1.8951    57.3422    53.6868 </r>
       <r>     1.9411    68.1943    56.8278 </r>
       <r>     1.9872    79.2511    60.4781 </r>
       <r>     2.0333    89.2235    64.5877 </r>
       <r>     2.0793    96.9930    69.0552 </r>
       <r>     2.1254   102.0386    73.7550 </r>
       <r>     2.1714   104.6018    78.5729 </r>
       <r>     2.2175   105.4736    83.4310 </r>
       <r>     2.2636   105.5658    88.2934 </r>
       <r>     2.3096   105.5546    93.1552 </r>
       <r>     2.3557   105.7720    98.0270 </r>
       <r>     2.4017   106.3136   102.9238 </r>
       <r>     2.4478   107.2323   107.8628 </r>
       <r>     2.4939   108.7013   112.8696 </r>
       <r>     2.5399   111.0549   117.9847 </r>
       <r>     2.5860   114.6457   123.2653 </r>
       <r>     2.6320   119.5801   128.7731 </r>
       <r>     2.6781   125.5507   134.5559 </r>
       <r>     2.7242   131.9578   140.6339 </r>
       <r>     2.7702   138.2438   147.0013 </r>
       <r>     2.8163   144.1439   153.6406 </r>
       <r>     2.8623   149.6497   160.5334 </r>
       <r>     2.9084   154.7882   167.6629 </r>
       <r>     2.9545   159.4552   175.0073 </r>
       <r>     3.0005   163.4028   182.5336 </r>
       <r>     3.0466   166.3127   190.1939 </r>
       <r>     3.0926   167.8837   197.9266 </r>
       <r>     3.1387   167.9392   205.6618 </r>
       <r>     3.1848   166.5367   213.3325 </r>
       <r>     3.2308   163.9813   220.8854 </r>
       <r>     3.2769   160.7067   228.2875 </r>
       <r>     3.3229   157.1339   235.5250 </r>
       <r>     3.3690   153.6497   242.6021 </r>
       <r>     3.4151   150.6667   249.5417 </r>
       <r>     3.4611   148.5848   256.3855 </r>
       <r>     3.5072   147.5867   263.1833 </r>
       <r>     3.5532   147.4483   269.9747 </r>
       <r>     3.5993   147.5920   276.7728 </r>
       <r>     3.6454   147.3708   283.5606 </r>
       <r>     3.6914   146.3389   290.3009 </r>
       <r>     3.7375   144.3221   296.9484 </r>
       <r>     3.7835   141.3488   303.4589 </r>
       <r>     3.8296   137.6055   309.7969 </r>
       <r>     3.8757   133.4592   315.9440 </r>
       <r>     3.9217   129.4478   321.9063 </r>
       <r>     3.9678   126.1761   327.7180 </r>
       <r>     4.0138   124.1803   333.4377 </r>
       <r>     4.0599   123.8555   339.1424 </r>
       <r>     4.1059   125.4492   344.9206 </r>
       <r>     4.1520   129.0483   350.8645 </r>
       <r>     4.1981   134.5082   357.0599 </r>
       <r>     4.2441   141.3657   363.5712 </r>
       <r>     4.2902   148.8432   370.4268 </r>
       <r>     4.3362   156.0268   377.6134 </r>
       <r>     4.3823   162.1907   385.0838 </r>
       <r>     4.4284   167.1050   392.7806 </r>
       <r>     4.4744   171.0972   400.6613 </r>
       <r>     4.5205   174.7393   408.7098 </r>
       <r>     4.5665   178.3086   416.9226 </r>
       <r>     4.6126   181.4552   425.2804 </r>
       <r>     4.6587   183.4677   433.7308 </r>
       <r>     4.7047   184.0581   442.2085 </r>
       <r>     4.7508   184.0272   450.6847 </r>
       <r>     4.7968   185.1321   459.2119 </r>
       <r>     4.8429   189.0984   467.9217 </r>
       <r>     4.8890   196.4530   476.9702 </r>
       <r>     4.9350   206.0284   486.4598 </r>
       <r>     4.9811   215.4859   496.3850 </r>
       <r>     5.0271   222.5102   506.6338 </r>
       <r>     5.0732   225.9708   517.0419 </r>
       <r>     5.1193   226.4397   527.4717 </r>
       <r>     5.1653   225.8709   537.8752 </r>
       <r>     5.2114   226.6853   548.3163 </r>
       <r>     5.2574   230.7310   558.9437 </r>
       <r>     5.3035   238.4998   569.9289 </r>
       <r>     5.3496   248.7722   581.3873 </r>
       <r>     5.3956   258.7718   593.3062 </r>
       <r>     5.4417   264.9277   605.5087 </r>
       <r>     5.4877   264.1742   617.6765 </r>
       <r>     5.5338   255.3076   629.4359 </r>
       <r>     5.5799   239.6333   640.4733 </r>
       <r>     5.6259   220.4153   650.6256 </r>
       <r>     5.6720   201.3995   659.9020 </r>
       <r>     5.7180   185.2991   668.4368 </r>
       <r>     5.7641   173.0806   676.4088 </r>
       <r>     5.8102   164.2630   683.9747 </r>
       <r>     5.8562   157.7886   691.2424 </r>
       <r>     5.9023   152.8300   698.2817 </r>
       <r>     5.9483   149.1380   705.1510 </r>
       <r>     5.9944   146.9333   711.9187 </r>
       <r>     6.0405   146.5915   718.6706 </r>
       <r>     6.0865   148.3829   725.5051 </r>
       <r>     6.1326   152.3742   732.5234 </r>
       <r>     6.1786   158.4266   739.8205 </r>
       <r>     6.2247   166.1865   747.4750 </r>
       <r>     6.2708   175.0727   755.5388 </r>
       <r>     6.3168   184.3471   764.0298 </r>
       <r>     6.3629   193.2888   772.9326 </r>
       <r>     6.4089   201.3354   782.2060 </r>
       <r>     6.4550   208.0381   791.7882 </r>
       <r>     6.5011   212.8817   801.5935 </r>
       <r>     6.5471   215.2285   811.5068 </r>
       <r>     6.5932   214.5651   821.3896 </r>
       <r>     6.6392   210.9085   831.1040 </r>
       <r>     6.6853   204.9997   840.5462 </r>
       <r>     6.7314   198.0758   849.6695 </r>
       <r>     6.7774   191.3802   858.4844 </r>
       <r>     6.8235   185.7578   867.0404 </r>
       <r>     6.8695   181.5227   875.4013 </r>
       <r>     6.9156   178.5515   883.6253 </r>
       <r>     6.9617   176.4847   891.7541 </r>
       <r>     7.0077   174.9695   899.8132 </r>
       <r>     7.0538   173.8637   907.8213 </r>
       <r>     7.0998   173.2830   915.8026 </r>
       <r>     7.1459   173.4508   923.7917 </r>
       <r>     7.1919   174.4865   931.8285 </r>
       <r>     7.2380   176.3306   939.9502 </r>
       <r>     7.2841   178.8605   948.1885 </r>
       <r>     7.3301   182.0514   956.5737 </r>
       <r>     7.3762   185.9867   965.1402 </r>
       <r>     7.4222   190.6265   973.9204 </r>
       <r>     7.4683   195.3973   982.9204 </r>
       <r>     7.5144   198.8005   992.0771 </r>
       <r>     7.5604   198.3300  1001.2121 </r>
       <r>     7.6065   190.9787  1010.0085 </r>
       <r>     7.6525   174.3691  1018.0399 </r>
       <r>     7.6986   148.1050  1024.8615 </r>
       <r>     7.7447   114.5835  1030.1392 </r>
       <r>     7.7907    78.6034  1033.7597 </r>
       <r>     7.8368    45.7558  1035.8672 </r>
       <r>     7.8828    20.3820  1036.8060 </r>
       <r>     7.9289     4.2066  1036.9997 </r>
       <r>     7.9750    -3.7072  1036.8290 </r>
       <r>     8.0210    -5.8959  1036.5574 </r>
       <r>     8.0671    -5.1244  1036.3214 </r>
       <r>     8.1131    -3.4465  1036.1626 </r>
       <r>     8.1592    -1.9441  1036.0731 </r>
       <r>     8.2053    -0.9493  1036.0294 </r>
       <r>     8.2513    -0.4076  1036.0106 </r>
       <r>     8.2974    -0.1552  1036.0034 </r>
       <r>     8.3434    -0.0527  1036.0010 </r>
       <r>     8.3895    -0.0160  1036.0003 </r>
       <r>     8.4356    -0.0044  1036.0001 </r>
       <r>     8.4816    -0.0011  1036.0000 </r>
       <r>     8.5277    -0.0002  1036.0000 </r>
       <r>     8.5737    -0.0000  1036.0000 </r>
       <r>     8.6198    -0.0000  1036.0000 </r>
       <r>     8.6659    -0.0000  1036.0000 </r>
       <r>     8.7119    -0.0000  1036.0000 </r>
       <r>     8.7580    -0.0000  1036.0000 </r>
       <r>     8.8040    -0.0000  1036.0000 </r>
       <r>     8.8501    -0.0000  1036.0000 </r>
       <r>     8.8962    -0.0000  1036.0000 </r>
       <r>     8.9422    -0.0000  1036.0000 </r>
       <r>     8.9883    -0.0000  1036.0000 </r>
       <r>     9.0343    -0.0000  1036.0000 </r>
       <r>     9.0804    -0.0000  1036.0000 </r>
       <r>     9.1265     0.0000  1036.0000 </r>
       <r>     9.1725     0.0000  1036.0000 </r>
       <r>     9.2186     0.0000  1036.0000 </r>
       <r>     9.2646     0.0000  1036.0000 </r>
       <r>     9.3107     0.0000  1036.0000 </r>
       <r>     9.3568     0.0000  1036.0000 </r>
       <r>     9.4028     0.0000  1036.0000 </r>
       <r>     9.4489     0.0000  1036.0000 </r>
       <r>     9.4949     0.0000  1036.0000 </r>
       <r>     9.5410     0.0000  1036.0000 </r>
       <r>     9.5871     0.0000  1036.0000 </r>
       <r>     9.6331     0.0000  1036.0000 </r>
       <r>     9.6792     0.0000  1036.0000 </r>
       <r>     9.7252     0.0000  1036.0000 </r>
       <r>     9.7713     0.0000  1036.0000 </r>
       <r>     9.8174     0.0000  1036.0000 </r>
      </set>
     </set>
    </array>
   </total>
  </dos>
 </calculation>
 <structure name="finalpos" >
  <crystal>
   <varray name="basis" >
    <v>      10.33484705       0.00000000       0.00000000 </v>
    <v>       0.00000000      10.33484705       0.00000000 </v>
    <v>       0.00000000       0.00000000      10.33484705 </v>
   </varray>
   <i name="volume">   1103.85533447 </i>
   <varray name="rec_basis" >
    <v>       0.09676002       0.00000000       0.00000000 </v>
    <v>       0.00000000       0.09676002       0.00000000 </v>
    <v>       0.00000000       0.00000000       0.09676002 </v>
   </varray>
  </crystal>
  <varray name="positions" >
   <v>       0.00000000       0.00000000       0.00000000 </v>
   <v>       0.00000000       0.16666893       0.16666893 </v>
   <v>       0.16666893       0.00000000       0.16666893 </v>
   <v>       0.16666893       0.16666893       0.00000000 </v>
   <v>       0.33333106       0.00000000       0.00000000 </v>
   <v>       0.33333107       0.16666893       0.16666893 </v>
   <v>       0.50000000       0.00000000       0.16666894 </v>
   <v>       0.50000000       0.16666894       0.00000000 </v>
   <v>       0.66666897       0.00000000       0.00000000 </v>
   <v>       0.66666896       0.16666893       0.16666893 </v>
   <v>       0.83333104       0.00000000       0.16666893 </v>
   <v>       0.83333104       0.16666893       0.00000000 </v>
   <v>       0.00000000       0.33333106       0.00000000 </v>
   <v>       0.00000000       0.50000000       0.16666894 </v>
   <v>       0.16666893       0.33333107       0.16666893 </v>
   <v>       0.16666894       0.50000000       0.00000000 </v>
   <v>       0.33333107       0.33333107       0.00000000 </v>
   <v>       0.33333107       0.50000000       0.16666893 </v>
   <v>       0.50000000       0.33333107       0.16666893 </v>
   <v>       0.50000000       0.50000000       0.00000000 </v>
   <v>       0.66666896       0.33333107       0.00000000 </v>
   <v>       0.66666896       0.50000000       0.16666893 </v>
   <v>       0.83333104       0.33333107       0.16666893 </v>
   <v>       0.83333103       0.50000000       0.00000000 </v>
   <v>       0.00000000       0.66666897       0.00000000 </v>
   <v>       0.00000000       0.83333104       0.16666893 </v>
   <v>       0.16666893       0.66666896       0.16666893 </v>
   <v>       0.16666893       0.83333104       0.00000000 </v>
   <v>       0.33333107       0.66666896       0.00000000 </v>
   <v>       0.33333107       0.83333104       0.16666893 </v>
   <v>       0.50000000       0.66666896       0.16666893 </v>
   <v>       0.50000000       0.83333103       0.00000000 </v>
   <v>       0.66666896       0.66666896       0.00000000 </v>
   <v>       0.66666896       0.83333104       0.16666893 </v>
   <v>       0.83333104       0.66666896       0.16666893 </v>
   <v>       0.83333104       0.83333104       0.00000000 </v>
   <v>       0.00000000       0.00000000       0.33333106 </v>
   <v>       0.00000000       0.16666894       0.50000000 </v>
   <v>       0.16666894       0.00000000       0.50000000 </v>
   <v>       0.16666893       0.16666893       0.33333107 </v>
   <v>       0.33333107       0.00000000       0.33333107 </v>
   <v>       0.33333107       0.16666893       0.50000000 </v>
   <v>       0.50000000       0.00000000       0.50000000 </v>
   <v>       0.50000000       0.16666893       0.33333107 </v>
   <v>       0.66666896       0.00000000       0.33333107 </v>
   <v>       0.66666896       0.16666893       0.50000000 </v>
   <v>       0.83333103       0.00000000       0.50000000 </v>
   <v>       0.83333104       0.16666893       0.33333107 </v>
   <v>       0.00000000       0.33333107       0.33333107 </v>
   <v>       0.00000000       0.50000000       0.50000000 </v>
   <v>       0.16666893       0.33333107       0.50000000 </v>
   <v>       0.16666893       0.50000000       0.33333107 </v>
   <v>       0.33333107       0.33333107       0.33333107 </v>
   <v>       0.33333106       0.50000000       0.50000000 </v>
   <v>       0.50000000       0.33333106       0.50000000 </v>
   <v>       0.50000000       0.50000000       0.33333106 </v>
   <v>       0.66666896       0.33333107       0.33333107 </v>
   <v>       0.66666897       0.50000000       0.50000000 </v>
   <v>       0.83333104       0.33333107       0.50000000 </v>
   <v>       0.83333104       0.50000000       0.33333107 </v>
   <v>       0.00000000       0.66666896       0.33333107 </v>
   <v>       0.00000000       0.83333103       0.50000000 </v>
   <v>       0.16666893       0.66666896       0.50000000 </v>
   <v>       0.16666893       0.83333104       0.33333107 </v>
   <v>       0.33333107       0.66666896       0.33333107 </v>
   <v>       0.33333107       0.83333104       0.50000000 </v>
   <v>       0.50000000       0.66666897       0.50000000 </v>
   <v>       0.50000000       0.83333104       0.33333107 </v>
   <v>       0.66666896       0.66666896       0.33333107 </v>
   <v>       0.66666896       0.83333104       0.50000000 </v>
   <v>       0.83333104       0.66666896       0.50000000 </v>
   <v>       0.83333104       0.83333104       0.33333107 </v>
   <v>       0.00000000       0.00000000       0.66666897 </v>
   <v>       0.00000000       0.16666893       0.83333104 </v>
   <v>       0.16666893       0.00000000       0.83333104 </v>
   <v>       0.16666893       0.16666893       0.66666896 </v>
   <v>       0.33333107       0.00000000       0.66666896 </v>
   <v>       0.33333107       0.16666893       0.83333104 </v>
   <v>       0.50000000       0.00000000       0.83333103 </v>
   <v>       0.50000000       0.16666893       0.66666896 </v>
   <v>       0.66666896       0.00000000       0.66666896 </v>
   <v>       0.66666896       0.16666893       0.83333104 </v>
   <v>       0.83333104       0.00000000       0.83333104 </v>
   <v>       0.83333104       0.16666893       0.66666896 </v>
   <v>       0.00000000       0.33333107       0.66666896 </v>
   <v>       0.00000000       0.50000000       0.83333103 </v>
   <v>       0.16666893       0.33333107       0.83333104 </v>
   <v>       0.16666893       0.50000000       0.66666896 </v>
   <v>       0.33333107       0.33333107       0.66666896 </v>
   <v>       0.33333107       0.50000000       0.83333104 </v>
   <v>       0.50000000       0.33333107       0.83333104 </v>
   <v>       0.50000000       0.50000000       0.66666897 </v>
   <v>       0.66666896       0.33333107       0.66666896 </v>
   <v>       0.66666896       0.50000000       0.83333104 </v>
   <v>       0.83333104       0.33333107       0.83333104 </v>
   <v>       0.83333104       0.50000000       0.66666896 </v>
   <v>       0.00000000       0.66666896       0.66666896 </v>
   <v>       0.00000000       0.83333104       0.83333104 </v>
   <v>       0.16666893       0.66666896       0.83333104 </v>
   <v>       0.16666893       0.83333104       0.66666896 </v>
   <v>       0.33333107       0.66666896       0.66666896 </v>
   <v>       0.33333107       0.83333104       0.83333104 </v>
   <v>       0.50000000       0.66666896       0.83333104 </v>
   <v>       0.50000000       0.83333104       0.66666896 </v>
   <v>       0.66666896       0.66666896       0.66666896 </v>
   <v>       0.66666896       0.83333104       0.83333104 </v>
   <v>       0.83333104       0.66666896       0.83333104 </v>
   <v>       0.83333104       0.83333104       0.66666896 </v>
  </varray>
 </structure>
</modeling>
