 108 108   0   0
  0.1022088E+02  0.1033485E-08  0.1033485E-08  0.1033485E-08  0.5000000E-15
  1.000000000000000E-004
  CAR 
 Opt                                     
      9.72184361     -3.93085509  301      6.80063746      1.00000000
     -3.931  0.0000E+00  0.0000E+00
     -3.885  0.0000E+00  0.0000E+00
     -3.840  0.0000E+00  0.0000E+00
     -3.794  0.0000E+00  0.0000E+00
     -3.749  0.0000E+00  0.0000E+00
     -3.703  0.0000E+00  0.0000E+00
     -3.658  0.0000E+00  0.0000E+00
     -3.612  0.0000E+00  0.0000E+00
     -3.567 -0.1111E-29 -0.5058E-31
     -3.521 -0.4133E-28 -0.1931E-29
     -3.476 -0.1417E-26 -0.6644E-28
     -3.430 -0.4378E-25 -0.2059E-26
     -3.385 -0.1218E-23 -0.5748E-25
     -3.339 -0.3050E-22 -0.1445E-23
     -3.294 -0.6876E-21 -0.3274E-22
     -3.248 -0.1395E-19 -0.6677E-21
     -3.203 -0.2548E-18 -0.1227E-19
     -3.157 -0.4189E-17 -0.2029E-18
     -3.112 -0.5889E-16 -0.2883E-17
     -3.066 -0.7994E-15 -0.3926E-16
     -3.021 -0.9525E-14 -0.4728E-15
     -2.975 -0.1021E-12 -0.5121E-14
     -2.930 -0.9838E-12 -0.4989E-13
     -2.884 -0.8509E-11 -0.4371E-12
     -2.839 -0.6606E-10 -0.3444E-11
     -2.793 -0.4601E-09 -0.2438E-10
     -2.748 -0.2872E-08 -0.1551E-09
     -2.702 -0.1605E-07 -0.8855E-09
     -2.657 -0.8026E-07 -0.4538E-08
     -2.611 -0.3585E-06 -0.2085E-07
     -2.566 -0.1428E-05 -0.8584E-07
     -2.520 -0.5061E-05 -0.3162E-06
     -2.475 -0.1591E-04 -0.1040E-05
     -2.429 -0.4421E-04 -0.3053E-05
     -2.384 -0.1079E-03 -0.7964E-05
     -2.338 -0.2294E-03 -0.1840E-04
     -2.293 -0.4185E-03 -0.3745E-04
     -2.247 -0.6377E-03 -0.6647E-04
     -2.202 -0.7607E-03 -0.1011E-03
     -2.156 -0.5618E-03 -0.1267E-03
     -2.110  0.2295E-03 -0.1162E-03
     -2.065  0.1820E-02 -0.3340E-04
     -2.019  0.4276E-02  0.1612E-03
     -1.974  0.7569E-02  0.5056E-03
     -1.928  0.1170E-01  0.1038E-02
     -1.883  0.1669E-01  0.1797E-02
     -1.837  0.2240E-01  0.2817E-02
     -1.792  0.2826E-01  0.4103E-02
     -1.746  0.3336E-01  0.5621E-02
     -1.701  0.3690E-01  0.7301E-02
     -1.655  0.3870E-01  0.9062E-02
     -1.610  0.3932E-01  0.1085E-01
     -1.564  0.3963E-01  0.1266E-01
     -1.519  0.4039E-01  0.1449E-01
     -1.473  0.4209E-01  0.1641E-01
     -1.428  0.4500E-01  0.1846E-01
     -1.382  0.4922E-01  0.2070E-01
     -1.337  0.5469E-01  0.2318E-01
     -1.291  0.6104E-01  0.2596E-01
     -1.246  0.6735E-01  0.2903E-01
     -1.200  0.7199E-01  0.3230E-01
     -1.155  0.7314E-01  0.3563E-01
     -1.109  0.6986E-01  0.3881E-01
     -1.064  0.6309E-01  0.4168E-01
     -1.018  0.5559E-01  0.4421E-01
     -0.973  0.5074E-01  0.4652E-01
     -0.927  0.5103E-01  0.4884E-01
     -0.882  0.5714E-01  0.5144E-01
     -0.836  0.6809E-01  0.5454E-01
     -0.791  0.8184E-01  0.5827E-01
     -0.745  0.9593E-01  0.6263E-01
     -0.700  0.1076E+00  0.6753E-01
     -0.654  0.1137E+00  0.7271E-01
     -0.609  0.1121E+00  0.7781E-01
     -0.563  0.1023E+00  0.8246E-01
     -0.518  0.8729E-01  0.8643E-01
     -0.472  0.7262E-01  0.8974E-01
     -0.427  0.6395E-01  0.9265E-01
     -0.381  0.6453E-01  0.9558E-01
     -0.336  0.7403E-01  0.9895E-01
     -0.290  0.8912E-01  0.1030E+00
     -0.245  0.1053E+00  0.1078E+00
     -0.199  0.1183E+00  0.1132E+00
     -0.154  0.1255E+00  0.1189E+00
     -0.108  0.1263E+00  0.1246E+00
     -0.063  0.1220E+00  0.1302E+00
     -0.017  0.1160E+00  0.1355E+00
      0.028  0.1120E+00  0.1406E+00
      0.074  0.1123E+00  0.1457E+00
      0.119  0.1170E+00  0.1510E+00
      0.165  0.1242E+00  0.1567E+00
      0.210  0.1314E+00  0.1626E+00
      0.256  0.1371E+00  0.1689E+00
      0.301  0.1404E+00  0.1753E+00
      0.347  0.1415E+00  0.1817E+00
      0.392  0.1403E+00  0.1881E+00
      0.438  0.1367E+00  0.1943E+00
      0.484  0.1312E+00  0.2003E+00
      0.529  0.1249E+00  0.2060E+00
      0.575  0.1204E+00  0.2114E+00
      0.620  0.1214E+00  0.2170E+00
      0.666  0.1310E+00  0.2229E+00
      0.711  0.1501E+00  0.2298E+00
      0.757  0.1748E+00  0.2377E+00
      0.802  0.1982E+00  0.2467E+00
      0.848  0.2130E+00  0.2564E+00
      0.893  0.2161E+00  0.2663E+00
      0.939  0.2099E+00  0.2758E+00
      0.984  0.2002E+00  0.2849E+00
      1.030  0.1917E+00  0.2936E+00
      1.075  0.1851E+00  0.3021E+00
      1.121  0.1778E+00  0.3102E+00
      1.166  0.1689E+00  0.3178E+00
      1.212  0.1617E+00  0.3252E+00
      1.257  0.1636E+00  0.3327E+00
      1.303  0.1814E+00  0.3409E+00
      1.348  0.2162E+00  0.3507E+00
      1.394  0.2610E+00  0.3626E+00
      1.439  0.3035E+00  0.3764E+00
      1.485  0.3308E+00  0.3915E+00
      1.530  0.3350E+00  0.4067E+00
      1.576  0.3169E+00  0.4211E+00
      1.621  0.2865E+00  0.4342E+00
      1.667  0.2602E+00  0.4460E+00
      1.712  0.2556E+00  0.4577E+00
      1.758  0.2859E+00  0.4707E+00
      1.803  0.3558E+00  0.4869E+00
      1.849  0.4597E+00  0.5078E+00
      1.894  0.5840E+00  0.5344E+00
      1.940  0.7120E+00  0.5668E+00
      1.985  0.8295E+00  0.6045E+00
      2.031  0.9271E+00  0.6467E+00
      2.076  0.9990E+00  0.6922E+00
      2.122  0.1042E+01  0.7396E+00
      2.167  0.1055E+01  0.7876E+00
      2.213  0.1044E+01  0.8351E+00
      2.258  0.1023E+01  0.8817E+00
      2.304  0.1009E+01  0.9276E+00
      2.349  0.1013E+01  0.9737E+00
      2.395  0.1039E+01  0.1021E+01
      2.440  0.1079E+01  0.1070E+01
      2.486  0.1118E+01  0.1121E+01
      2.531  0.1148E+01  0.1173E+01
      2.577  0.1169E+01  0.1226E+01
      2.622  0.1194E+01  0.1281E+01
      2.668  0.1235E+01  0.1337E+01
      2.713  0.1293E+01  0.1396E+01
      2.759  0.1359E+01  0.1458E+01
      2.804  0.1421E+01  0.1522E+01
      2.850  0.1472E+01  0.1589E+01
      2.895  0.1518E+01  0.1658E+01
      2.941  0.1567E+01  0.1730E+01
      2.987  0.1621E+01  0.1803E+01
      3.032  0.1672E+01  0.1880E+01
      3.078  0.1705E+01  0.1957E+01
      3.123  0.1708E+01  0.2035E+01
      3.169  0.1684E+01  0.2112E+01
      3.214  0.1644E+01  0.2186E+01
      3.260  0.1601E+01  0.2259E+01
      3.305  0.1562E+01  0.2330E+01
      3.351  0.1529E+01  0.2400E+01
      3.396  0.1504E+01  0.2468E+01
      3.442  0.1490E+01  0.2536E+01
      3.487  0.1491E+01  0.2604E+01
      3.533  0.1502E+01  0.2672E+01
      3.578  0.1512E+01  0.2741E+01
      3.624  0.1505E+01  0.2810E+01
      3.669  0.1475E+01  0.2877E+01
      3.715  0.1427E+01  0.2942E+01
      3.760  0.1376E+01  0.3004E+01
      3.806  0.1338E+01  0.3065E+01
      3.851  0.1323E+01  0.3125E+01
      3.897  0.1327E+01  0.3186E+01
      3.942  0.1333E+01  0.3246E+01
      3.988  0.1324E+01  0.3307E+01
      4.033  0.1295E+01  0.3366E+01
      4.079  0.1262E+01  0.3423E+01
      4.124  0.1247E+01  0.3480E+01
      4.170  0.1266E+01  0.3537E+01
      4.215  0.1321E+01  0.3597E+01
      4.261  0.1396E+01  0.3661E+01
      4.306  0.1476E+01  0.3728E+01
      4.352  0.1559E+01  0.3799E+01
      4.397  0.1649E+01  0.3874E+01
      4.443  0.1744E+01  0.3954E+01
      4.488  0.1829E+01  0.4037E+01
      4.534  0.1881E+01  0.4122E+01
      4.579  0.1881E+01  0.4208E+01
      4.625  0.1833E+01  0.4291E+01
      4.670  0.1762E+01  0.4372E+01
      4.716  0.1705E+01  0.4449E+01
      4.761  0.1698E+01  0.4526E+01
      4.807  0.1761E+01  0.4607E+01
      4.852  0.1888E+01  0.4693E+01
      4.898  0.2047E+01  0.4786E+01
      4.943  0.2195E+01  0.4886E+01
      4.989  0.2296E+01  0.4990E+01
      5.034  0.2335E+01  0.5096E+01
      5.080  0.2322E+01  0.5202E+01
      5.125  0.2281E+01  0.5306E+01
      5.171  0.2240E+01  0.5408E+01
      5.216  0.2221E+01  0.5509E+01
      5.262  0.2241E+01  0.5611E+01
      5.307  0.2307E+01  0.5716E+01
      5.353  0.2415E+01  0.5826E+01
      5.398  0.2543E+01  0.5941E+01
      5.444  0.2651E+01  0.6062E+01
      5.490  0.2689E+01  0.6184E+01
      5.535  0.2625E+01  0.6304E+01
      5.581  0.2464E+01  0.6416E+01
      5.626  0.2246E+01  0.6518E+01
      5.672  0.2027E+01  0.6610E+01
      5.717  0.1849E+01  0.6695E+01
      5.763  0.1724E+01  0.6773E+01
      5.808  0.1637E+01  0.6848E+01
      5.854  0.1563E+01  0.6919E+01
      5.899  0.1491E+01  0.6987E+01
      5.945  0.1428E+01  0.7052E+01
      5.990  0.1395E+01  0.7115E+01
      6.036  0.1406E+01  0.7179E+01
      6.081  0.1463E+01  0.7246E+01
      6.127  0.1551E+01  0.7316E+01
      6.172  0.1648E+01  0.7391E+01
      6.218  0.1734E+01  0.7470E+01
      6.263  0.1802E+01  0.7552E+01
      6.309  0.1859E+01  0.7637E+01
      6.354  0.1919E+01  0.7724E+01
      6.400  0.1988E+01  0.7815E+01
      6.445  0.2059E+01  0.7908E+01
      6.491  0.2112E+01  0.8004E+01
      6.536  0.2129E+01  0.8101E+01
      6.582  0.2109E+01  0.8197E+01
      6.627  0.2072E+01  0.8291E+01
      6.673  0.2041E+01  0.8384E+01
      6.718  0.2024E+01  0.8476E+01
      6.764  0.2003E+01  0.8568E+01
      6.809  0.1956E+01  0.8657E+01
      6.855  0.1870E+01  0.8742E+01
      6.900  0.1765E+01  0.8822E+01
      6.946  0.1678E+01  0.8898E+01
      6.991  0.1642E+01  0.8973E+01
      7.037  0.1663E+01  0.9049E+01
      7.082  0.1720E+01  0.9127E+01
      7.128  0.1780E+01  0.9208E+01
      7.173  0.1821E+01  0.9291E+01
      7.219  0.1841E+01  0.9375E+01
      7.264  0.1852E+01  0.9459E+01
      7.310  0.1871E+01  0.9544E+01
      7.355  0.1909E+01  0.9631E+01
      7.401  0.1971E+01  0.9721E+01
      7.446  0.2049E+01  0.9814E+01
      7.492  0.2116E+01  0.9910E+01
      7.537  0.2137E+01  0.1001E+02
      7.583  0.2066E+01  0.1010E+02
      7.628  0.1875E+01  0.1019E+02
      7.674  0.1564E+01  0.1026E+02
      7.719  0.1172E+01  0.1031E+02
      7.765  0.7649E+00  0.1035E+02
      7.810  0.4089E+00  0.1036E+02
      7.856  0.1499E+00  0.1037E+02
      7.901 -0.1553E-02  0.1037E+02
      7.947 -0.6440E-01  0.1037E+02
      7.993 -0.7178E-01  0.1037E+02
      8.038 -0.5481E-01  0.1036E+02
      8.084 -0.3379E-01  0.1036E+02
      8.129 -0.1771E-01  0.1036E+02
      8.175 -0.8076E-02  0.1036E+02
      8.220 -0.3240E-02  0.1036E+02
      8.266 -0.1152E-02  0.1036E+02
      8.311 -0.3648E-03  0.1036E+02
      8.357 -0.1032E-03  0.1036E+02
      8.402 -0.2610E-04  0.1036E+02
      8.448 -0.5921E-05  0.1036E+02
      8.493 -0.1205E-05  0.1036E+02
      8.539 -0.2205E-06  0.1036E+02
      8.584 -0.3626E-07  0.1036E+02
      8.630 -0.5364E-08  0.1036E+02
      8.675 -0.7143E-09  0.1036E+02
      8.721 -0.8565E-10  0.1036E+02
      8.766 -0.9252E-11  0.1036E+02
      8.812 -0.9007E-12  0.1036E+02
      8.857 -0.7885E-13  0.1036E+02
      8.903 -0.6416E-14  0.1036E+02
      8.948 -0.4147E-15  0.1036E+02
      8.994  0.0000E+00  0.1036E+02
      9.039  0.0000E+00  0.1036E+02
      9.085  0.0000E+00  0.1036E+02
      9.130  0.0000E+00  0.1036E+02
      9.176  0.0000E+00  0.1036E+02
      9.221  0.0000E+00  0.1036E+02
      9.267  0.0000E+00  0.1036E+02
      9.312  0.0000E+00  0.1036E+02
      9.358  0.0000E+00  0.1036E+02
      9.403  0.0000E+00  0.1036E+02
      9.449  0.0000E+00  0.1036E+02
      9.494  0.0000E+00  0.1036E+02
      9.540  0.0000E+00  0.1036E+02
      9.585  0.0000E+00  0.1036E+02
      9.631  0.0000E+00  0.1036E+02
      9.676  0.0000E+00  0.1036E+02
      9.722  0.0000E+00  0.1036E+02
