  108  108  100    1
  0.1022088E+02  0.1033485E-08  0.1033485E-08  0.1033485E-08  0.5000000E-15
  1.000000000000000E-004
  CAR 
 Opt                                     
    864      4    518
 
  0.1250000E+00  0.1250000E+00  0.1250000E+00  0.1250000E+00
    1       -1.930855   1.000000
    2       -0.798903   1.000000
    3       -0.798903   1.000000
    4       -0.798903   1.000000
    5       -0.115586   1.000000
    6       -0.115586   1.000000
    7       -0.115586   1.000000
    8        0.217032   1.000000
    9        0.217032   1.000000
   10        0.217032   1.000000
   11        0.823893   1.000000
   12        0.823893   1.000000
   13        0.823893   1.000000
   14        0.823893   1.000000
   15        0.823893   1.000000
   16        0.823893   1.000000
   17        0.930847   1.000000
   18        1.327040   1.000000
   19        1.327040   1.000000
   20        1.327040   1.000000
   21        1.373551   1.000000
   22        1.373551   1.000000
   23        1.373551   1.000000
   24        1.595843   1.000000
   25        1.595843   1.000000
   26        1.595843   1.000000
   27        1.729875   1.000000
   28        1.801207   1.000000
   29        1.801207   1.000000
   30        1.801207   1.000000
   31        1.903290   1.000000
   32        1.903290   1.000000
   33        1.903296   1.000000
   34        1.997970   1.000000
   35        1.997970   1.000000
   36        1.997970   1.000000
   37        2.356113   1.000000
   38        2.356113   1.000000
   39        2.356116   1.000000
   40        2.478450   1.000000
   41        2.478450   1.000000
   42        2.478451   1.000000
   43        2.478452   1.000000
   44        2.478452   1.000000
   45        2.478452   1.000000
   46        2.492964   1.000000
   47        2.492964   1.000000
   48        2.492964   1.000000
   49        2.538541   1.000000
   50        2.538541   1.000000
   51        2.538541   1.000000
   52        2.538546   1.000000
   53        2.538546   1.000000
   54        2.538546   1.000000
   55        2.561289   1.000000
   56        2.561289   1.000000
   57        2.561289   1.000000
   58        2.561289   1.000000
   59        2.561289   1.000000
   60        2.561289   1.000000
   61        2.638818   1.000000
   62        2.638818   1.000000
   63        2.638818   1.000000
   64        2.641622   1.000000
   65        2.641622   1.000000
   66        2.641622   1.000000
   67        2.733085   1.000000
   68        2.733085   1.000000
   69        2.733086   1.000000
   70        2.733087   1.000000
   71        2.733087   1.000000
   72        2.733087   1.000000
   73        2.773010   1.000000
   74        2.773010   1.000000
   75        2.773010   1.000000
   76        2.773012   1.000000
   77        2.773013   1.000000
   78        2.773013   1.000000
   79        2.775780   1.000000
   80        2.775780   1.000000
   81        2.775784   1.000000
   82        2.831134   1.000000
   83        2.831135   1.000000
   84        2.831135   1.000000
   85        2.831141   1.000000
   86        2.831141   1.000000
   87        2.831141   1.000000
   88        2.940945   1.000000
   89        2.940945   1.000000
   90        2.940945   1.000000
   91        2.940946   1.000000
   92        2.940946   1.000000
   93        2.940946   1.000000
   94        3.056743   1.000000
   95        3.056743   1.000000
   96        3.056743   1.000000
   97        3.074361   1.000000
   98        3.074361   1.000000
   99        3.074361   1.000000
  100        3.105843   1.000000
  101        3.105843   1.000000
  102        3.105843   1.000000
  103        3.105843   1.000000
  104        3.105843   1.000000
  105        3.105843   1.000000
  106        3.168273   1.000000
  107        3.168273   1.000000
  108        3.168273   1.000000
  109        3.168273   1.000000
  110        3.168273   1.000000
  111        3.168273   1.000000
  112        3.332680   1.000000
  113        3.332680   1.000000
  114        3.332680   1.000000
  115        3.332684   1.000000
  116        3.332684   1.000000
  117        3.332685   1.000000
  118        3.341327   1.000000
  119        3.341327   1.000000
  120        3.341327   1.000000
  121        3.444780   1.000000
  122        3.444780   1.000000
  123        3.444780   1.000000
  124        3.447783   1.000000
  125        3.447783   1.000000
  126        3.447783   1.000000
  127        3.493203   1.000000
  128        3.493203   1.000000
  129        3.493203   1.000000
  130        3.493206   1.000000
  131        3.493206   1.000000
  132        3.493206   1.000000
  133        3.517744   1.000000
  134        3.517744   1.000000
  135        3.517744   1.000000
  136        3.517744   1.000000
  137        3.517744   1.000000
  138        3.517744   1.000000
  139        3.571237   1.000000
  140        3.571237   1.000000
  141        3.571237   1.000000
  142        3.571239   1.000000
  143        3.571239   1.000000
  144        3.571239   1.000000
  145        3.690551   1.000000
  146        3.690551   1.000000
  147        3.690551   1.000000
  148        3.690552   1.000000
  149        3.690552   1.000000
  150        3.690552   1.000000
  151        3.728704   1.000000
  152        3.728704   1.000000
  153        3.728704   1.000000
  154        3.752941   1.000000
  155        3.752941   1.000000
  156        3.752941   1.000000
  157        3.752941   1.000000
  158        3.752941   1.000000
  159        3.752941   1.000000
  160        3.906280   1.000000
  161        3.906280   1.000000
  162        3.906280   1.000000
  163        3.906284   1.000000
  164        3.906284   1.000000
  165        3.906284   1.000000
  166        3.922798   1.000000
  167        3.922798   1.000000
  168        3.922803   1.000000
  169        4.114040   1.000000
  170        4.114040   1.000000
  171        4.114040   1.000000
  172        4.114045   1.000000
  173        4.114045   1.000000
  174        4.114045   1.000000
  175        4.253960   1.000000
  176        4.253960   1.000000
  177        4.253960   1.000000
  178        4.273106   1.000000
  179        4.273106   1.000000
  180        4.273106   1.000000
  181        4.305950   1.000000
  182        4.305950   1.000000
  183        4.305950   1.000000
  184        4.320877   1.000000
  185        4.320877   1.000000
  186        4.320877   1.000000
  187        4.320879   1.000000
  188        4.320879   1.000000
  189        4.320879   1.000000
  190        4.328720   1.000000
  191        4.328720   1.000000
  192        4.328720   1.000000
  193        4.453332   1.000000
  194        4.453332   1.000000
  195        4.453333   1.000000
  196        4.453333   1.000000
  197        4.453334   1.000000
  198        4.453334   1.000000
  199        4.474462   1.000000
  200        4.474462   1.000000
  201        4.474462   1.000000
  202        4.480830   1.000000
  203        4.480830   1.000000
  204        4.480830   1.000000
  205        4.480836   1.000000
  206        4.480836   1.000000
  207        4.480836   1.000000
  208        4.492883   1.000000
  209        4.492883   1.000000
  210        4.492883   1.000000
  211        4.492884   1.000000
  212        4.492884   1.000000
  213        4.492884   1.000000
  214        4.611271   1.000000
  215        4.611271   1.000000
  216        4.611271   1.000000
  217        4.636057   1.000000
  218        4.636057   1.000000
  219        4.636060   1.000000
  220        4.650326   1.000000
  221        4.650326   1.000000
  222        4.650326   1.000000
  223        4.740478   1.000000
  224        4.822753   1.000000
  225        4.822753   1.000000
  226        4.822753   1.000000
  227        4.822753   1.000000
  228        4.822753   1.000000
  229        4.822753   1.000000
  230        4.830603   1.000000
  231        4.830603   1.000000
  232        4.830604   1.000000
  233        4.830606   1.000000
  234        4.830606   1.000000
  235        4.830606   1.000000
  236        4.835579   1.000000
  237        4.835579   1.000000
  238        4.835580   1.000000
  239        4.972911   1.000000
  240        4.972911   1.000000
  241        4.972911   1.000000
  242        4.972917   1.000000
  243        4.972917   1.000000
  244        4.972917   1.000000
  245        5.067786   1.000000
  246        5.067786   1.000000
  247        5.067786   1.000000
  248        5.072915   1.000000
  249        5.072924   1.000000
  250        5.072924   1.000000
  251        5.077296   1.000000
  252        5.077297   1.000000
  253        5.077297   1.000000
  254        5.077297   1.000000
  255        5.077297   1.000000
  256        5.077297   1.000000
  257        5.101699   1.000000
  258        5.101699   1.000000
  259        5.101699   1.000000
  260        5.130487   1.000000
  261        5.130487   1.000000
  262        5.130488   1.000000
  263        5.130493   1.000000
  264        5.130494   1.000000
  265        5.130494   1.000000
  266        5.146122   1.000000
  267        5.174571   1.000000
  268        5.174571   1.000000
  269        5.174572   1.000000
  270        5.174581   1.000000
  271        5.174581   1.000000
  272        5.174581   1.000000
  273        5.196685   1.000000
  274        5.196685   1.000000
  275        5.214859   1.000000
  276        5.214859   1.000000
  277        5.230512   1.000000
  278        5.230512   1.000000
  279        5.230513   1.000000
  280        5.230515   1.000000
  281        5.230515   1.000000
  282        5.230515   1.000000
  283        5.247879   1.000000
  284        5.247881   1.000000
  285        5.247881   1.000000
  286        5.293758   1.000000
  287        5.293758   1.000000
  288        5.293784   1.000000
  289        5.295805   1.000000
  290        5.295830   1.000000
  291        5.295830   1.000000
  292        5.313091   1.000000
  293        5.313091   1.000000
  294        5.313091   1.000000
  295        5.313092   1.000000
  296        5.313092   1.000000
  297        5.313092   1.000000
  298        5.339942   1.000000
  299        5.339942   1.000000
  300        5.339942   1.000000
  301        5.372265   1.000000
  302        5.372265   1.000000
  303        5.372266   1.000000
  304        5.385001   1.000000
  305        5.385001   1.000000
  306        5.425946   1.000000
  307        5.425946   1.000000
  308        5.425953   1.000000
  309        5.427614   1.000000
  310        5.427614   1.000000
  311        5.427614   1.000000
  312        5.560104   1.000000
  313        5.578142   1.000000
  314        5.578147   1.000000
  315        5.578147   1.000000
  316        5.596109   1.000000
  317        5.596109   1.000000
  318        5.596109   1.000000
  319        5.603745   1.000000
  320        5.603745   1.000000
  321        5.603746   1.000000
  322        5.603747   1.000000
  323        5.603748   1.000000
  324        5.603748   1.000000
  325        5.605591   1.000000
  326        5.605591   1.000000
  327        5.605591   1.000000
  328        5.630301   1.000000
  329        5.630301   1.000000
  330        5.630301   1.000000
  331        5.746052   1.000000
  332        5.746052   1.000000
  333        5.746052   1.000000
  334        5.748922   1.000000
  335        5.748922   1.000000
  336        5.748922   1.000000
  337        5.754368   1.000000
  338        5.754368   1.000000
  339        5.754368   1.000000
  340        5.754368   1.000000
  341        5.754368   1.000000
  342        5.754368   1.000000
  343        5.772971   1.000000
  344        5.772971   1.000000
  345        5.772971   1.000000
  346        5.823020   1.000000
  347        5.823020   1.000000
  348        5.823021   1.000000
  349        5.823027   1.000000
  350        5.823027   1.000000
  351        5.823027   1.000000
  352        5.867266   1.000000
  353        5.867266   1.000000
  354        5.867266   1.000000
  355        5.904794   1.000000
  356        5.904794   1.000000
  357        5.904794   1.000000
  358        5.904796   1.000000
  359        5.904796   1.000000
  360        5.904796   1.000000
  361        5.937340   1.000000
  362        5.937340   1.000000
  363        5.937340   1.000000
  364        5.983510   1.000000
  365        5.983510   1.000000
  366        5.983517   1.000000
  367        6.083577   1.000002
  368        6.083577   1.000002
  369        6.083578   1.000002
  370        6.112576   1.000006
  371        6.112576   1.000006
  372        6.112576   1.000006
  373        6.247290   1.000324
  374        6.247290   1.000324
  375        6.247290   1.000324
  376        6.247398   1.000325
  377        6.247398   1.000325
  378        6.247398   1.000325
  379        6.249051   1.000339
  380        6.249051   1.000339
  381        6.249051   1.000339
  382        6.252247   1.000367
  383        6.252247   1.000367
  384        6.252247   1.000367
  385        6.253843   1.000382
  386        6.253843   1.000382
  387        6.253843   1.000382
  388        6.331263   1.002233
  389        6.331264   1.002233
  390        6.331264   1.002233
  391        6.434327   1.013248
  392        6.434328   1.013248
  393        6.434328   1.013248
  394        6.434331   1.013249
  395        6.434331   1.013249
  396        6.434332   1.013249
  397        6.502414   1.028046
  398        6.502414   1.028046
  399        6.502415   1.028046
  400        6.502415   1.028046
  401        6.502415   1.028046
  402        6.502415   1.028046
  403        6.626844   1.005649
  404        6.626844   1.005649
  405        6.626844   1.005649
  406        6.626845   1.005648
  407        6.626845   1.005648
  408        6.626845   1.005648
  409        6.647030   0.981412
  410        6.647030   0.981412
  411        6.647030   0.981412
  412        6.647031   0.981411
  413        6.647031   0.981411
  414        6.647031   0.981411
  415        6.693445   0.889207
  416        6.693445   0.889207
  417        6.693466   0.889152
  418        6.700721   0.869869
  419        6.700741   0.869813
  420        6.700741   0.869813
  421        6.722473   0.804402
  422        6.722473   0.804402
  423        6.808119   0.468366
  424        6.808119   0.468366
  425        6.808119   0.468365
  426        6.808128   0.468330
  427        6.808128   0.468330
  428        6.808128   0.468330
  429        6.880429   0.190323
  430        6.880429   0.190323
  431        6.880429   0.190323
  432        6.880430   0.190319
  433        6.880430   0.190319
  434        6.880430   0.190319
  435        6.890117   0.160145
  436        6.890118   0.160143
  437        6.890118   0.160143
  438        6.926570   0.067119
  439        6.926570   0.067119
  440        6.926570   0.067119
  441        7.038712  -0.035267
  442        7.038712  -0.035267
  443        7.038713  -0.035267
  444        7.038718  -0.035267
  445        7.038718  -0.035267
  446        7.038718  -0.035267
  447        7.049063  -0.035412
  448        7.049063  -0.035412
  449        7.049063  -0.035412
  450        7.053946  -0.035204
  451        7.053946  -0.035204
  452        7.077468  -0.032336
  453        7.077468  -0.032336
  454        7.077468  -0.032336
  455        7.077469  -0.032336
  456        7.077469  -0.032336
  457        7.077469  -0.032336
  458        7.103290  -0.027056
  459        7.103291  -0.027056
  460        7.103291  -0.027056
  461        7.103298  -0.027055
  462        7.103298  -0.027055
  463        7.103298  -0.027054
  464        7.140600  -0.018556
  465        7.140600  -0.018556
  466        7.140601  -0.018555
  467        7.153817  -0.015776
  468        7.153817  -0.015776
  469        7.153818  -0.015776
  470        7.216815  -0.006103
  471        7.216816  -0.006102
  472        7.216816  -0.006102
  473        7.236014  -0.004333
  474        7.236015  -0.004333
  475        7.236015  -0.004333
  476        7.264607  -0.002493
  477        7.264607  -0.002493
  478        7.264607  -0.002493
  479        7.269188  -0.002271
  480        7.269189  -0.002271
  481        7.269189  -0.002271
  482        7.327695  -0.000619
  483        7.327696  -0.000619
  484        7.327696  -0.000619
  485        7.366055  -0.000238
  486        7.366056  -0.000238
  487        7.366056  -0.000238
  488        7.366058  -0.000238
  489        7.366058  -0.000238
  490        7.366063  -0.000238
  491        7.398425  -0.000099
  492        7.398426  -0.000099
  493        7.398430  -0.000099
  494        7.398431  -0.000099
  495        7.398438  -0.000099
  496        7.398444  -0.000099
  497        7.460875  -0.000016
  498        7.460879  -0.000016
  499        7.460891  -0.000016
  500        7.460930  -0.000016
  501        7.461002  -0.000016
  502        7.461125  -0.000016
  503        7.478990  -0.000009
  504        7.479042  -0.000009
  505        7.480816  -0.000008
  506        7.480862  -0.000008
  507        7.481246  -0.000008
  508        7.571254  -0.000000
  509        7.571370  -0.000000
  510        7.571797  -0.000000
  511        7.573763  -0.000000
  512        7.573792  -0.000000
  513        7.573849  -0.000000
  514        7.574125  -0.000000
  515        7.574469  -0.000000
  516        7.576354  -0.000000
  517        7.584273  -0.000000
  518        7.602693  -0.000000
 
  0.3750000E+00  0.1250000E+00  0.1250000E+00  0.3750000E+00
    1       -1.734680   1.000000
    2       -1.350838   1.000000
    3       -0.621689   1.000000
    4       -0.621689   1.000000
    5       -0.276423   1.000000
    6       -0.276423   1.000000
    7        0.049860   1.000000
    8        0.049860   1.000000
    9        0.346320   1.000000
   10        0.370420   1.000000
   11        0.370420   1.000000
   12        0.592455   1.000000
   13        0.631645   1.000000
   14        0.918127   1.000000
   15        0.918127   1.000000
   16        1.093282   1.000000
   17        1.093282   1.000000
   18        1.323080   1.000000
   19        1.414738   1.000000
   20        1.486578   1.000000
   21        1.486578   1.000000
   22        1.490816   1.000000
   23        1.742255   1.000000
   24        1.882620   1.000000
   25        1.882623   1.000000
   26        1.898184   1.000000
   27        1.941933   1.000000
   28        1.941933   1.000000
   29        1.948258   1.000000
   30        1.964387   1.000000
   31        1.964387   1.000000
   32        2.005454   1.000000
   33        2.023530   1.000000
   34        2.023534   1.000000
   35        2.106443   1.000000
   36        2.111291   1.000000
   37        2.111291   1.000000
   38        2.133755   1.000000
   39        2.133755   1.000000
   40        2.140547   1.000000
   41        2.178648   1.000000
   42        2.178650   1.000000
   43        2.207305   1.000000
   44        2.207305   1.000000
   45        2.247530   1.000000
   46        2.247535   1.000000
   47        2.291430   1.000000
   48        2.291431   1.000000
   49        2.389993   1.000000
   50        2.389993   1.000000
   51        2.493108   1.000000
   52        2.493108   1.000000
   53        2.520924   1.000000
   54        2.520924   1.000000
   55        2.521614   1.000000
   56        2.521614   1.000000
   57        2.546503   1.000000
   58        2.546503   1.000000
   59        2.547815   1.000000
   60        2.547815   1.000000
   61        2.603288   1.000000
   62        2.603288   1.000000
   63        2.636482   1.000000
   64        2.636483   1.000000
   65        2.642398   1.000000
   66        2.642399   1.000000
   67        2.697954   1.000000
   68        2.697954   1.000000
   69        2.714287   1.000000
   70        2.727378   1.000000
   71        2.727378   1.000000
   72        2.752475   1.000000
   73        2.752477   1.000000
   74        2.769884   1.000000
   75        2.769886   1.000000
   76        2.770640   1.000000
   77        2.770642   1.000000
   78        2.816353   1.000000
   79        2.816354   1.000000
   80        2.817574   1.000000
   81        2.817575   1.000000
   82        2.861786   1.000000
   83        2.904205   1.000000
   84        2.904205   1.000000
   85        2.912033   1.000000
   86        2.912033   1.000000
   87        2.921719   1.000000
   88        2.921719   1.000000
   89        2.932478   1.000000
   90        2.932479   1.000000
   91        2.947630   1.000000
   92        2.967776   1.000000
   93        3.025390   1.000000
   94        3.025397   1.000000
   95        3.038707   1.000000
   96        3.038707   1.000000
   97        3.043152   1.000000
   98        3.043152   1.000000
   99        3.047105   1.000000
  100        3.047105   1.000000
  101        3.052394   1.000000
  102        3.117167   1.000000
  103        3.117167   1.000000
  104        3.145280   1.000000
  105        3.145280   1.000000
  106        3.215600   1.000000
  107        3.215601   1.000000
  108        3.224321   1.000000
  109        3.224321   1.000000
  110        3.241131   1.000000
  111        3.249845   1.000000
  112        3.249853   1.000000
  113        3.255777   1.000000
  114        3.255777   1.000000
  115        3.286058   1.000000
  116        3.286058   1.000000
  117        3.310919   1.000000
  118        3.310919   1.000000
  119        3.334185   1.000000
  120        3.334185   1.000000
  121        3.400966   1.000000
  122        3.400966   1.000000
  123        3.424172   1.000000
  124        3.424172   1.000000
  125        3.425322   1.000000
  126        3.425322   1.000000
  127        3.495199   1.000000
  128        3.517321   1.000000
  129        3.517321   1.000000
  130        3.518698   1.000000
  131        3.518698   1.000000
  132        3.525949   1.000000
  133        3.525949   1.000000
  134        3.557482   1.000000
  135        3.557482   1.000000
  136        3.564368   1.000000
  137        3.564371   1.000000
  138        3.590155   1.000000
  139        3.590155   1.000000
  140        3.631593   1.000000
  141        3.631594   1.000000
  142        3.635166   1.000000
  143        3.635166   1.000000
  144        3.640820   1.000000
  145        3.640821   1.000000
  146        3.648271   1.000000
  147        3.654473   1.000000
  148        3.715441   1.000000
  149        3.715444   1.000000
  150        3.776518   1.000000
  151        3.776518   1.000000
  152        3.797949   1.000000
  153        3.797949   1.000000
  154        3.825314   1.000000
  155        3.825314   1.000000
  156        3.838900   1.000000
  157        3.905145   1.000000
  158        3.905145   1.000000
  159        3.907314   1.000000
  160        3.907314   1.000000
  161        3.920994   1.000000
  162        3.920995   1.000000
  163        3.944174   1.000000
  164        3.944175   1.000000
  165        3.951152   1.000000
  166        3.951152   1.000000
  167        3.976988   1.000000
  168        4.002308   1.000000
  169        4.002308   1.000000
  170        4.029490   1.000000
  171        4.029493   1.000000
  172        4.048212   1.000000
  173        4.056102   1.000000
  174        4.056102   1.000000
  175        4.096888   1.000000
  176        4.096889   1.000000
  177        4.124164   1.000000
  178        4.124164   1.000000
  179        4.181829   1.000000
  180        4.181829   1.000000
  181        4.216780   1.000000
  182        4.216787   1.000000
  183        4.217103   1.000000
  184        4.217103   1.000000
  185        4.231056   1.000000
  186        4.231056   1.000000
  187        4.263135   1.000000
  188        4.263136   1.000000
  189        4.317888   1.000000
  190        4.317888   1.000000
  191        4.329672   1.000000
  192        4.329672   1.000000
  193        4.406380   1.000000
  194        4.406387   1.000000
  195        4.410906   1.000000
  196        4.434272   1.000000
  197        4.434273   1.000000
  198        4.475745   1.000000
  199        4.475746   1.000000
  200        4.478959   1.000000
  201        4.478959   1.000000
  202        4.479034   1.000000
  203        4.479034   1.000000
  204        4.524198   1.000000
  205        4.526570   1.000000
  206        4.526570   1.000000
  207        4.567345   1.000000
  208        4.567345   1.000000
  209        4.581482   1.000000
  210        4.581482   1.000000
  211        4.586783   1.000000
  212        4.604115   1.000000
  213        4.604115   1.000000
  214        4.619534   1.000000
  215        4.637325   1.000000
  216        4.637329   1.000000
  217        4.656161   1.000000
  218        4.656161   1.000000
  219        4.681632   1.000000
  220        4.681632   1.000000
  221        4.691557   1.000000
  222        4.694907   1.000000
  223        4.694907   1.000000
  224        4.737392   1.000000
  225        4.737396   1.000000
  226        4.791221   1.000000
  227        4.791222   1.000000
  228        4.813615   1.000000
  229        4.833647   1.000000
  230        4.868325   1.000000
  231        4.869484   1.000000
  232        4.869484   1.000000
  233        4.889295   1.000000
  234        4.889295   1.000000
  235        4.899228   1.000000
  236        4.899228   1.000000
  237        4.901578   1.000000
  238        4.901582   1.000000
  239        4.903120   1.000000
  240        4.903121   1.000000
  241        4.912565   1.000000
  242        4.928413   1.000000
  243        4.928413   1.000000
  244        4.952241   1.000000
  245        4.952241   1.000000
  246        4.954377   1.000000
  247        4.954377   1.000000
  248        4.961089   1.000000
  249        4.961089   1.000000
  250        4.997287   1.000000
  251        4.997293   1.000000
  252        5.013906   1.000000
  253        5.013906   1.000000
  254        5.033493   1.000000
  255        5.033499   1.000000
  256        5.040807   1.000000
  257        5.040807   1.000000
  258        5.053948   1.000000
  259        5.065509   1.000000
  260        5.065511   1.000000
  261        5.084519   1.000000
  262        5.087922   1.000000
  263        5.102136   1.000000
  264        5.109035   1.000000
  265        5.109035   1.000000
  266        5.109810   1.000000
  267        5.143883   1.000000
  268        5.158902   1.000000
  269        5.198655   1.000000
  270        5.203141   1.000000
  271        5.203147   1.000000
  272        5.210363   1.000000
  273        5.231342   1.000000
  274        5.233957   1.000000
  275        5.233957   1.000000
  276        5.261691   1.000000
  277        5.265849   1.000000
  278        5.271736   1.000000
  279        5.271736   1.000000
  280        5.272241   1.000000
  281        5.272242   1.000000
  282        5.282368   1.000000
  283        5.289335   1.000000
  284        5.289337   1.000000
  285        5.317755   1.000000
  286        5.317755   1.000000
  287        5.318778   1.000000
  288        5.318778   1.000000
  289        5.331777   1.000000
  290        5.331777   1.000000
  291        5.333292   1.000000
  292        5.333299   1.000000
  293        5.400157   1.000000
  294        5.400319   1.000000
  295        5.400319   1.000000
  296        5.403205   1.000000
  297        5.419028   1.000000
  298        5.427168   1.000000
  299        5.430436   1.000000
  300        5.438182   1.000000
  301        5.438182   1.000000
  302        5.439172   1.000000
  303        5.439173   1.000000
  304        5.449423   1.000000
  305        5.461918   1.000000
  306        5.461918   1.000000
  307        5.462234   1.000000
  308        5.462241   1.000000
  309        5.465149   1.000000
  310        5.487073   1.000000
  311        5.487073   1.000000
  312        5.491794   1.000000
  313        5.491796   1.000000
  314        5.525089   1.000000
  315        5.525089   1.000000
  316        5.525351   1.000000
  317        5.525351   1.000000
  318        5.534020   1.000000
  319        5.534020   1.000000
  320        5.545997   1.000000
  321        5.545997   1.000000
  322        5.557312   1.000000
  323        5.569218   1.000000
  324        5.569218   1.000000
  325        5.597534   1.000000
  326        5.597534   1.000000
  327        5.600511   1.000000
  328        5.610374   1.000000
  329        5.610374   1.000000
  330        5.649192   1.000000
  331        5.649192   1.000000
  332        5.658575   1.000000
  333        5.658576   1.000000
  334        5.667639   1.000000
  335        5.674676   1.000000
  336        5.674684   1.000000
  337        5.686515   1.000000
  338        5.686516   1.000000
  339        5.728112   1.000000
  340        5.730917   1.000000
  341        5.730925   1.000000
  342        5.753768   1.000000
  343        5.774411   1.000000
  344        5.825621   1.000000
  345        5.828104   1.000000
  346        5.828108   1.000000
  347        5.850089   1.000000
  348        5.850090   1.000000
  349        5.858380   1.000000
  350        5.858380   1.000000
  351        5.870463   1.000000
  352        5.870463   1.000000
  353        5.877910   1.000000
  354        5.972009   1.000000
  355        5.972009   1.000000
  356        6.011261   1.000000
  357        6.011261   1.000000
  358        6.074994   1.000002
  359        6.074994   1.000002
  360        6.087168   1.000003
  361        6.087168   1.000003
  362        6.098359   1.000004
  363        6.098359   1.000004
  364        6.127958   1.000011
  365        6.127959   1.000011
  366        6.135873   1.000014
  367        6.146232   1.000019
  368        6.146233   1.000019
  369        6.179275   1.000051
  370        6.194207   1.000078
  371        6.194207   1.000078
  372        6.224658   1.000180
  373        6.224659   1.000180
  374        6.226706   1.000190
  375        6.226709   1.000190
  376        6.249168   1.000340
  377        6.265540   1.000510
  378        6.265541   1.000510
  379        6.274724   1.000637
  380        6.274724   1.000637
  381        6.275743   1.000652