       N       E                     dE             d eps       ncg     rms          rms(c)
DAV:   1     0.629220533458E+04    0.62922E+04   -0.24003E+05  4152   0.144E+03
DAV:   2    -0.249015982764E+03   -0.65412E+04   -0.63531E+04  4144   0.405E+02
DAV:   3    -0.921505846462E+03   -0.67249E+03   -0.58924E+03  4728   0.154E+02
DAV:   4    -0.103527714893E+04   -0.11377E+03   -0.10531E+03  7272   0.489E+01
DAV:   5    -0.104509679100E+04   -0.98196E+01   -0.90702E+01  6512   0.147E+01    0.931E+01
RMM:   6    -0.879412804417E+03    0.16568E+03   -0.13508E+03  4144   0.103E+02    0.873E+00
RMM:   7    -0.881353940384E+03   -0.19411E+01   -0.10027E+02  4510   0.214E+01    0.348E+00
RMM:   8    -0.881004846457E+03    0.34909E+00   -0.12774E+01  4416   0.916E+00    0.117E+01
RMM:   9    -0.880592443665E+03    0.41240E+00   -0.37041E+00  5064   0.282E+00    0.281E+00
RMM:  10    -0.880426786901E+03    0.16566E+00   -0.15599E+00  5279   0.154E+00    0.709E-01
RMM:  11    -0.880443967203E+03   -0.17180E-01   -0.17982E-01  5650   0.369E-01    0.729E-01
RMM:  12    -0.880435982109E+03    0.79851E-02   -0.55343E-02  4485   0.611E-01    0.193E-01
RMM:  13    -0.880436958141E+03   -0.97603E-03   -0.14637E-02  5544   0.102E-01    0.487E-02
RMM:  14    -0.880437021087E+03   -0.62946E-04   -0.75144E-04  4940   0.663E-02    0.319E-02
RMM:  15    -0.880436950965E+03    0.70122E-04   -0.54907E-05  4663   0.478E-02    0.266E-02
RMM:  16    -0.880436924860E+03    0.26105E-04    0.23434E-04  5362   0.175E-02    0.133E-02
RMM:  17    -0.880436909017E+03    0.15842E-04    0.18343E-04  4981   0.737E-03    0.459E-03
RMM:  18    -0.880436889341E+03    0.19677E-04    0.15652E-04  3080   0.256E-03    0.959E-04
RMM:  19    -0.880436869976E+03    0.19365E-04    0.18386E-04  2736   0.242E-03    0.985E-04
RMM:  20    -0.880436858345E+03    0.11630E-04    0.10737E-04  2606   0.210E-03    0.669E-04
RMM:  21    -0.880436846710E+03    0.11635E-04    0.10900E-04  2570   0.181E-03    0.559E-04
RMM:  22    -0.880436838269E+03    0.84411E-05    0.79157E-05  2521   0.128E-03    0.369E-04
RMM:  23    -0.880436831321E+03    0.69479E-05    0.68021E-05  2439   0.114E-03    0.340E-04
RMM:  24    -0.880436824923E+03    0.63984E-05    0.61252E-05  2127   0.768E-04    0.208E-04
RMM:  25    -0.880436819266E+03    0.56568E-05    0.54832E-05  2106   0.772E-04    0.303E-04
RMM:  26    -0.880436813961E+03    0.53048E-05    0.51380E-05  1527   0.493E-04    0.118E-04
RMM:  27    -0.880436809163E+03    0.47987E-05    0.46687E-05  1545   0.510E-04    0.249E-04
RMM:  28    -0.880436804687E+03    0.44760E-05    0.43757E-05  1352   0.416E-04    0.180E-04
RMM:  29    -0.880436800628E+03    0.40586E-05    0.39824E-05  1274   0.413E-04    0.255E-04
RMM:  30    -0.880436796838E+03    0.37898E-05    0.37177E-05  1166   0.396E-04    0.144E-04
RMM:  31    -0.880436793381E+03    0.34576E-05    0.33785E-05  1381   0.396E-04    0.112E-04
RMM:  32    -0.880436790175E+03    0.32059E-05    0.31401E-05   960   0.360E-04    0.714E-05
RMM:  33    -0.880436787269E+03    0.29053E-05    0.28476E-05   865   0.335E-04    0.114E-04
RMM:  34    -0.880436784586E+03    0.26834E-05    0.26355E-05   844   0.332E-04    0.801E-05
RMM:  35    -0.880436782161E+03    0.24249E-05    0.23846E-05   782   0.316E-04    0.109E-04
RMM:  36    -0.880436779924E+03    0.22369E-05    0.21999E-05   774   0.314E-04    0.861E-05
RMM:  37    -0.880436777908E+03    0.20161E-05    0.19863E-05   713   0.303E-04    0.105E-04
RMM:  38    -0.880436776052E+03    0.18558E-05    0.18282E-05   719   0.302E-04    0.894E-05
RMM:  39    -0.880436774381E+03    0.16709E-05    0.16477E-05   650   0.294E-04    0.101E-04
RMM:  40    -0.880436772848E+03    0.15339E-05    0.15145E-05   717   0.293E-04    0.814E-05
RMM:  41    -0.880436771467E+03    0.13806E-05    0.13629E-05   638   0.283E-04    0.834E-05
RMM:  42    -0.880436770200E+03    0.12667E-05    0.12523E-05   607   0.281E-04    0.843E-05
RMM:  43    -0.880436769062E+03    0.11382E-05    0.11252E-05   663   0.278E-04    0.698E-05
RMM:  44    -0.880436768015E+03    0.10468E-05    0.10343E-05   579   0.270E-04    0.713E-05
RMM:  45    -0.880436767074E+03    0.94096E-06    0.92823E-06   564   0.268E-04
   1 F= -.88043677E+03 E0= -.88041333E+03  d E =-.880437E+03
       N       E                     dE             d eps       ncg     rms          rms(c)
DAV:   1    -0.880470414238E+03   -0.33646E-01   -0.87428E-01  4752   0.278E+00    0.141E+00
RMM:   2    -0.880436989500E+03    0.33425E-01   -0.29449E-01  4157   0.139E+00    0.177E-01
RMM:   3    -0.880436289577E+03    0.69992E-03   -0.19341E-02  4495   0.250E-01    0.128E-01
RMM:   4    -0.880436030971E+03    0.25861E-03   -0.98615E-03  4144   0.302E-01    0.176E-01
RMM:   5    -0.880436072785E+03   -0.41814E-04   -0.10582E-03  4230   0.709E-02    0.227E-01
RMM:   6    -0.880435629702E+03    0.44308E-03   -0.27155E-03  4156   0.134E-01    0.230E-02
RMM:   7    -0.880435655166E+03   -0.25464E-04   -0.27986E-04  4855   0.170E-02    0.313E-02
RMM:   8    -0.880435655234E+03   -0.67965E-07   -0.42725E-05  4099   0.183E-02    0.156E-02
RMM:   9    -0.880435666584E+03   -0.11350E-04   -0.25064E-05  4139   0.109E-02    0.275E-03
RMM:  10    -0.880435666060E+03    0.52401E-06   -0.38245E-06  2768   0.246E-03
   2 F= -.88043567E+03 E0= -.88041274E+03  d E =0.110101E-02
       N       E                     dE             d eps       ncg     rms          rms(c)
DAV:   1    -0.880450761517E+03   -0.15095E-01   -0.34559E-01  4720   0.175E+00    0.883E-01
RMM:   2    -0.880437821411E+03    0.12940E-01   -0.11568E-01  4157   0.872E-01    0.111E-01
RMM:   3    -0.880437656239E+03    0.16517E-03   -0.78428E-03  4497   0.156E-01    0.807E-02
RMM:   4    -0.880437522758E+03    0.13348E-03   -0.39161E-03  4144   0.191E-01    0.951E-02
RMM:   5    -0.880437572590E+03   -0.49832E-04   -0.57925E-04  4181   0.571E-02    0.175E-01
RMM:   6    -0.880437394485E+03    0.17811E-03   -0.75178E-04  4159   0.697E-02    0.170E-02
RMM:   7    -0.880437392591E+03    0.18936E-05   -0.91183E-05  5143   0.982E-03    0.186E-02
RMM:   8    -0.880437381560E+03    0.11032E-04   -0.98229E-06  3998   0.832E-03    0.107E-02
RMM:   9    -0.880437370644E+03    0.10916E-04   -0.13310E-05  4043   0.831E-03    0.146E-03
RMM:  10    -0.880437370929E+03   -0.28518E-06   -0.15379E-06  2319   0.138E-03
   3 F= -.88043737E+03 E0= -.88041416E+03  d E =-.603855E-03
