 vasp.5.4.4.18Apr17-6-g9f103f2a35 (build Aug 17 2017 06:00:38) complex          
  
 executed on             LinuxIFC date 2019.07.12  14:57:58
 running on    8 total cores
 distrk:  each k-point on    8 cores,    1 groups
 distr:  one band on NCORES_PER_BAND=   4 cores,    2 groups


--------------------------------------------------------------------------------------------------------


 INCAR:
 POTCAR:   PAW_PBE Fe 06Sep2000                   
 POTCAR:   PAW_PBE Fe 06Sep2000                   
   VRHFIN =Fe:  d7 s1                                                           
   LEXCH  = PE                                                                  
   EATOM  =   594.4687 eV,   43.6922 Ry                                         
                                                                                
   TITEL  = PAW_PBE Fe 06Sep2000                                                
   LULTRA =        F    use ultrasoft PP ?                                      
   IUNSCR =        1    unscreen: 0-lin 1-nonlin 2-no                           
   RPACOR =    2.000    partial core radius                                     
   POMASS =   55.847; ZVAL   =    8.000    mass and valenz                      
   RCORE  =    2.300    outmost cutoff radius                                   
   RWIGS  =    2.460; RWIGS  =    1.302    wigner-seitz radius (au A)           
   ENMAX  =  267.883; ENMIN  =  200.912 eV                                      
   RCLOC  =    1.701    cutoff for local pot                                    
   LCOR   =        T    correct aug charges                                     
   LPAW   =        T    paw PP                                                  
   EAUG   =  511.368                                                            
   DEXC   =    -.022                                                            
   RMAX   =    2.817    core radius for proj-oper                               
   RAUG   =    1.300    factor for augmentation sphere                          
   RDEP   =    2.442    radius for radial grids                                 
   QCUT   =   -4.437; QGAM   =    8.874    optimization parameters              
                                                                                
   Description                                                                  
     l     E      TYP  RCUT    TYP  RCUT                                        
     2   .000     23  2.300                                                     
     2   .000     23  2.300                                                     
     0   .000     23  2.300                                                     
     0   .000     23  2.300                                                     
     1  -.200     23  2.300                                                     
     1   .000     23  2.300                                                     
     3   .000      7   .000                                                     
  local pseudopotential read in
  partial core-charges read in
  atomic valenz-charges read in
  non local Contribution for L=           2  read in
    real space projection operators read in
  non local Contribution for L=           2  read in
    real space projection operators read in
  non local Contribution for L=           0  read in
    real space projection operators read in
  non local Contribution for L=           0  read in
    real space projection operators read in
  non local Contribution for L=           1  read in
    real space projection operators read in
  non local Contribution for L=           1  read in
    real space projection operators read in
    PAW grid and wavefunctions read in
 
   number of l-projection  operators is LMAX  =           6
   number of lm-projection operators is LMMAX =          18
 
 Optimization of the real space projectors (new method)

 maximal supplied QI-value         = 16.25
 optimisation between [QCUT,QGAM] = [  8.78, 17.71] = [ 21.57, 87.87] Ry 
 Optimized for a Real-space Cutoff    1.50 Angstroem

   l    n(q)    QCUT    max X(q) W(low)/X(q) W(high)/X(q)  e(spline) 
   2      7     8.776     4.378    0.31E-04    0.78E-04    0.36E-07
   2      7     8.776    23.237    0.44E-03    0.94E-03    0.27E-06
   0      8     8.776    17.641    0.15E-04    0.87E-05    0.53E-08
   0      8     8.776    50.908    0.26E-03    0.26E-03    0.39E-07
   1      7     8.776     6.148    0.11E-04    0.71E-04    0.24E-07
   1      7     8.776     8.345    0.17E-03    0.29E-03    0.67E-07
 PAW_PBE Fe 06Sep2000                   :
 energy of atom  1       EATOM= -594.4687
 kinetic energy error for atom=    0.0269 (will be added to EATOM!!)
 
 
 POSCAR: fcc_Fe_CON_333                          
  positions in direct lattice
  velocities in cartesian coordinates
 exchange correlation table for  LEXCH =        8
   RHO(1)=    0.500       N(1)  =     2000
   RHO(2)=  100.500       N(2)  =     4000
 


--------------------------------------------------------------------------------------------------------


 ion  position               nearest neighbor table
   1  0.000  0.000  0.000-   2 2.44   3 2.44   4 2.44  11 2.44  12 2.44  26 2.44  28 2.44  74 2.44
                            75 2.44  36 2.44  83 2.44  98 2.44
   2  0.000  0.167  0.167-  49 2.44  37 2.44  13 2.44  40 2.44  15 2.44  48 2.44  23 2.44   3 2.44
                             4 2.44   1 2.44  12 2.44  11 2.44
   3  0.167  0.000  0.167-  41 2.44  37 2.44   5 2.44  40 2.44   6 2.44  30 2.44  64 2.44   2 2.44
                             4 2.44   1 2.44  28 2.44  26 2.44
   4  0.167  0.167  0.000-  17 2.44  13 2.44   5 2.44  15 2.44   6 2.44  78 2.44  87 2.44   2 2.44
                             3 2.44   1 2.44  74 2.44  75 2.44
   5  0.333  0.000  0.000-   3 2.44   4 2.44  28 2.44  75 2.44   6 2.44   7 2.44   8 2.44  30 2.44
                            78 2.44  32 2.44  79 2.44 102 2.44
   6  0.333  0.167  0.167-  15 2.44  40 2.44  53 2.44  17 2.44  19 2.44   4 2.44  41 2.44  44 2.44
                             3 2.44   7 2.44   8 2.44   5 2.44
   7  0.500  0.000  0.167-  41 2.44  44 2.44  45 2.44  68 2.44   6 2.44   5 2.44   8 2.44  10 2.44
                            30 2.44   9 2.44  32 2.44  34 2.44
   8  0.500  0.167  0.000-  17 2.44  19 2.44  21 2.44  91 2.44   6 2.44   5 2.44   7 2.44  78 2.44
                            10 2.44  79 2.44   9 2.44  82 2.44
   9  0.667  0.000  0.000-  11 2.44  12 2.44  36 2.44  83 2.44  10 2.44  82 2.44  34 2.44   8 2.44
                             7 2.44 106 2.44  79 2.44  32 2.44
  10  0.667  0.167  0.167-  23 2.44  48 2.44  57 2.44  12 2.44  11 2.44  21 2.44  45 2.44  44 2.44
                            19 2.44   9 2.44   7 2.44   8 2.44
  11  0.833  0.000  0.167-  45 2.44   9 2.44  10 2.44  34 2.44  48 2.44  37 2.44  72 2.44  12 2.44
                             2 2.44  36 2.44   1 2.44  26 2.44
  12  0.833  0.167  0.000-  21 2.44   9 2.44  10 2.44  82 2.44  23 2.44  13 2.44  95 2.44  11 2.44
                             1 2.44  83 2.44   2 2.44  74 2.44
  13  0.000  0.333  0.000-   2 2.44   4 2.44  12 2.44  74 2.44  15 2.44  16 2.44  14 2.44  23 2.44
                            87 2.44  86 2.44  24 2.44  95 2.44
  14  0.000  0.500  0.167-  49 2.44  52 2.44  60 2.44  61 2.44  15 2.44  13 2.44  16 2.44  23 2.44
                            27 2.44  25 2.44  24 2.44  35 2.44
  15  0.167  0.333  0.167-   6 2.44  40 2.44  53 2.44  17 2.44  18 2.44   4 2.44  49 2.44  52 2.44
                             2 2.44  13 2.44  14 2.44  16 2.44
  16  0.167  0.500  0.000-  17 2.44  18 2.44  29 2.44  90 2.44  15 2.44  14 2.44  13 2.44  87 2.44
                            27 2.44  25 2.44  86 2.44  99 2.44
  17  0.333  0.333  0.000-   4 2.44   8 2.44  16 2.44  15 2.44   6 2.44  78 2.44  87 2.44  20 2.44
                            18 2.44  19 2.44  90 2.44  91 2.44
  18  0.333  0.500  0.167-  52 2.44  16 2.44  56 2.44  53 2.44  15 2.44  27 2.44  65 2.44  20 2.44
                            17 2.44  19 2.44  29 2.44  31 2.44
  19  0.500  0.333  0.167-  44 2.44   8 2.44  56 2.44  53 2.44   6 2.44  10 2.44  57 2.44  18 2.44
                            20 2.44  17 2.44  21 2.44  22 2.44
  20  0.500  0.500  0.000-  17 2.44  18 2.44  19 2.44  21 2.44  22 2.44  29 2.44  31 2.44  90 2.44
                            91 2.44  33 2.44  94 2.44 103 2.44
  21  0.667  0.333  0.000-  12 2.44  24 2.44  23 2.44  95 2.44  10 2.44   8 2.44  82 2.44  22 2.44
                            20 2.44  94 2.44  19 2.44  91 2.44
  22  0.667  0.500  0.167-  60 2.44  24 2.44  23 2.44  35 2.44  57 2.44  56 2.44  69 2.44  21 2.44
                            33 2.44  20 2.44  19 2.44  31 2.44
  23  0.833  0.333  0.167-  10 2.44  57 2.44  48 2.44  21 2.44  22 2.44  12 2.44  60 2.44   2 2.44
                            49 2.44  24 2.44  14 2.44  13 2.44
  24  0.833  0.500  0.000-  21 2.44  22 2.44  33 2.44  94 2.44  23 2.44  35 2.44  95 2.44  14 2.44
                            13 2.44 107 2.44  86 2.44  25 2.44
  25  0.000  0.667  0.000-  26 2.44  28 2.44  36 2.44  98 2.44  27 2.44  35 2.44  99 2.44  16 2.44
                            14 2.44 107 2.44  86 2.44  24 2.44
  26  0.000  0.833  0.167-  61 2.44  25 2.44  27 2.44  35 2.44  64 2.44  37 2.44  72 2.44  28 2.44
                             3 2.44  36 2.44   1 2.44  11 2.44
  27  0.167  0.667  0.167-  30 2.44  64 2.44  65 2.44  28 2.44  26 2.44  29 2.44  61 2.44  52 2.44
                            18 2.44  25 2.44  14 2.44  16 2.44
  28  0.167  0.833  0.000-  29 2.44  25 2.44  27 2.44  99 2.44  30 2.44   5 2.44 102 2.44  26 2.44
                            98 2.44   1 2.44   3 2.44  75 2.44
  29  0.333  0.667  0.000-  28 2.44  32 2.44  30 2.44 102 2.44  27 2.44  16 2.44  99 2.44  31 2.44
                            20 2.44  18 2.44 103 2.44  90 2.44
  30  0.333  0.833  0.167-  27 2.44  65 2.44  64 2.44  29 2.44  31 2.44  28 2.44  68 2.44  41 2.44
                             3 2.44  32 2.44   7 2.44   5 2.44
  31  0.500  0.667  0.167-  68 2.44  32 2.44  30 2.44  34 2.44  65 2.44  56 2.44  69 2.44  29 2.44
                            33 2.44  20 2.44  18 2.44  22 2.44
  32  0.500  0.833  0.000-  29 2.44  31 2.44  33 2.44 103 2.44  30 2.44 102 2.44  34 2.44   7 2.44
                             5 2.44 106 2.44  79 2.44   9 2.44
  33  0.667  0.667  0.000-  36 2.44  35 2.44  34 2.44  32 2.44  24 2.44 106 2.44 107 2.44  22 2.44
                            31 2.44 103 2.44  20 2.44  94 2.44
  34  0.667  0.833  0.167-  35 2.44  69 2.44  72 2.44  33 2.44  36 2.44  31 2.44  11 2.44  45 2.44
                            68 2.44  32 2.44   9 2.44   7 2.44
  35  0.833  0.667  0.167-  34 2.44  69 2.44  72 2.44  33 2.44  36 2.44  26 2.44  22 2.44  60 2.44
                            61 2.44  24 2.44  25 2.44  14 2.44
  36  0.833  0.833  0.000-  33 2.44  34 2.44  35 2.44  25 2.44   9 2.44 106 2.44 107 2.44  26 2.44
                            11 2.44  98 2.44   1 2.44  83 2.44
  37  0.000  0.000  0.333-   2 2.44   3 2.44  11 2.44  26 2.44  40 2.44  39 2.44  38 2.44  48 2.44
                            64 2.44  62 2.44  47 2.44  72 2.44
  38  0.000  0.167  0.500-  49 2.44  51 2.44  59 2.44  85 2.44  40 2.44  39 2.44  37 2.44  76 2.44
                            48 2.44  47 2.44  73 2.44  84 2.44
  39  0.167  0.000  0.500-  41 2.44  42 2.44  66 2.44  77 2.44  40 2.44  38 2.44  37 2.44  76 2.44
                            64 2.44  62 2.44  73 2.44 100 2.44
  40  0.167  0.167  0.333-   6 2.44  15 2.44  53 2.44   3 2.44  41 2.44  42 2.44  49 2.44  51 2.44
                             2 2.44  39 2.44  37 2.44  38 2.44
  41  0.333  0.000  0.333-   3 2.44   7 2.44  39 2.44   6 2.44  40 2.44  30 2.44  64 2.44  43 2.44
                            44 2.44  42 2.44  66 2.44  68 2.44
  42  0.333  0.167  0.500-  51 2.44  39 2.44  55 2.44  53 2.44  40 2.44  76 2.44  89 2.44  44 2.44
                            41 2.44  43 2.44  80 2.44  77 2.44
  43  0.500  0.000  0.500-  41 2.44  42 2.44  44 2.44  45 2.44  46 2.44  66 2.44  68 2.44  77 2.44
                            80 2.44  70 2.44  81 2.44 104 2.44
  44  0.500  0.167  0.333-  19 2.44   7 2.44  55 2.44  53 2.44   6 2.44  10 2.44  57 2.44  41 2.44
                            42 2.44  43 2.44  46 2.44  45 2.44
  45  0.667  0.000  0.333-  11 2.44  47 2.44  48 2.44  72 2.44  10 2.44   7 2.44  34 2.44  46 2.44
                            43 2.44  70 2.44  44 2.44  68 2.44
  46  0.667  0.167  0.500-  59 2.44  47 2.44  48 2.44  84 2.44  57 2.44  55 2.44  93 2.44  45 2.44
                            81 2.44  43 2.44  44 2.44  80 2.44
  47  0.833  0.000  0.500-  45 2.44  46 2.44  70 2.44  81 2.44  48 2.44  72 2.44  84 2.44  38 2.44
                            37 2.44 108 2.44  73 2.44  62 2.44
  48  0.833  0.167  0.333-  10 2.44  57 2.44  23 2.44  46 2.44  45 2.44  11 2.44  59 2.44   2 2.44
                            49 2.44  47 2.44  37 2.44  38 2.44
  49  0.000  0.333  0.333-   2 2.44  14 2.44  38 2.44  15 2.44  40 2.44  23 2.44  48 2.44  50 2.44
                            51 2.44  52 2.44  59 2.44  60 2.44
  50  0.000  0.500  0.500-  49 2.44  51 2.44  52 2.44  59 2.44  60 2.44  61 2.44  63 2.44  85 2.44
                            88 2.44  71 2.44  96 2.44  97 2.44
  51  0.167  0.333  0.500-  42 2.44  38 2.44  54 2.44  53 2.44  40 2.44  76 2.44  89 2.44  50 2.44
                            52 2.44  49 2.44  88 2.44  85 2.44
  52  0.167  0.500  0.333-  18 2.44  14 2.44  54 2.44  53 2.44  15 2.44  27 2.44  65 2.44  49 2.44
                            50 2.44  51 2.44  63 2.44  61 2.44
  53  0.333  0.333  0.333-   6 2.44  15 2.44  40 2.44  19 2.44  18 2.44  42 2.44  44 2.44  51 2.44
                            52 2.44  54 2.44  55 2.44  56 2.44
  54  0.333  0.500  0.500-  51 2.44  52 2.44  63 2.44  88 2.44  53 2.44  55 2.44  56 2.44  65 2.44
                            89 2.44  67 2.44  92 2.44 101 2.44
  55  0.500  0.333  0.500-  42 2.44  44 2.44  46 2.44  80 2.44  53 2.44  56 2.44  54 2.44  57 2.44
                            89 2.44  58 2.44  92 2.44  93 2.44
  56  0.500  0.500  0.333-  18 2.44  19 2.44  22 2.44  31 2.44  53 2.44  54 2.44  55 2.44  57 2.44
                            65 2.44  58 2.44  67 2.44  69 2.44
  57  0.667  0.333  0.333-  23 2.44  48 2.44  10 2.44  59 2.44  60 2.44  46 2.44  22 2.44  19 2.44
                            44 2.44  58 2.44  56 2.44  55 2.44
  58  0.667  0.500  0.500-  59 2.44  60 2.44  71 2.44  96 2.44  57 2.44  93 2.44  69 2.44  56 2.44
                            55 2.44 105 2.44  92 2.44  67 2.44
  59  0.833  0.333  0.500-  46 2.44  58 2.44  57 2.44  93 2.44  48 2.44  38 2.44  84 2.44  60 2.44
                            50 2.44  49 2.44  96 2.44  85 2.44
  60  0.833  0.500  0.333-  22 2.44  58 2.44  57 2.44  69 2.44  23 2.44  14 2.44  35 2.44  59 2.44
                            49 2.44  50 2.44  71 2.44  61 2.44
  61  0.000  0.667  0.333-  26 2.44  62 2.44  64 2.44  72 2.44  27 2.44  14 2.44  35 2.44  63 2.44
                            50 2.44  71 2.44  52 2.44  60 2.44
  62  0.000  0.833  0.500-  61 2.44  63 2.44  71 2.44  97 2.44  64 2.44  72 2.44 100 2.44  39 2.44
                            37 2.44 108 2.44  73 2.44  47 2.44
  63  0.167  0.667  0.500-  66 2.44  62 2.44  64 2.44 100 2.44  65 2.44  54 2.44 101 2.44  61 2.44
                            97 2.44  50 2.44  52 2.44  88 2.44
  64  0.167  0.833  0.333-  27 2.44  65 2.44  30 2.44  63 2.44  61 2.44  26 2.44  66 2.44   3 2.44
                            41 2.44  62 2.44  37 2.44  39 2.44
  65  0.333  0.667  0.333-  30 2.44  64 2.44  27 2.44  66 2.44  68 2.44  63 2.44  31 2.44  18 2.44
                            52 2.44  67 2.44  56 2.44  54 2.44
  66  0.333  0.833  0.500-  63 2.44  67 2.44  65 2.44 101 2.44  64 2.44  39 2.44 100 2.44  68 2.44
                            43 2.44  41 2.44 104 2.44  77 2.44
  67  0.500  0.667  0.500-  66 2.44  68 2.44  70 2.44 104 2.44  65 2.44 101 2.44  69 2.44  56 2.44
                            54 2.44 105 2.44  92 2.44  58 2.44
  68  0.500  0.833  0.333-  31 2.44  67 2.44  65 2.44  69 2.44  30 2.44   7 2.44  34 2.44  66 2.44
                            41 2.44  43 2.44  70 2.44  45 2.44
  69  0.667  0.667  0.333-  72 2.44  35 2.44  34 2.44  71 2.44  70 2.44  68 2.44  60 2.44  31 2.44
                            22 2.44  58 2.44  67 2.44  56 2.44
  70  0.667  0.833  0.500-  71 2.44  69 2.44  72 2.44  67 2.44  47 2.44 105 2.44 108 2.44  68 2.44
                            45 2.44 104 2.44  43 2.44  81 2.44
  71  0.833  0.667  0.500-  70 2.44  69 2.44  72 2.44  62 2.44  58 2.44 105 2.44 108 2.44  60 2.44
                            61 2.44  97 2.44  50 2.44  96 2.44
  72  0.833  0.833  0.333-  69 2.44  35 2.44  34 2.44  70 2.44  71 2.44  61 2.44  45 2.44  26 2.44
                            11 2.44  62 2.44  47 2.44  37 2.44
  73  0.000  0.000  0.667-  74 2.44  75 2.44  83 2.44  98 2.44  76 2.44  84 2.44 100 2.44  39 2.44
                            38 2.44 108 2.44  47 2.44  62 2.44
  74  0.000  0.167  0.833-  85 2.44  73 2.44  76 2.44  84 2.44  87 2.44  13 2.44  95 2.44  75 2.44
                             4 2.44  83 2.44   1 2.44  12 2.44
  75  0.167  0.000  0.833-  77 2.44  73 2.44  76 2.44 100 2.44  78 2.44   5 2.44 102 2.44  74 2.44
                            98 2.44   1 2.44   4 2.44  28 2.44
  76  0.167  0.167  0.667-  78 2.44  87 2.44  89 2.44  75 2.44  74 2.44  77 2.44  85 2.44  51 2.44
                            42 2.44  73 2.44  38 2.44  39 2.44
  77  0.333  0.000  0.667-  75 2.44  79 2.44  78 2.44 102 2.44  76 2.44  39 2.44 100 2.44  80 2.44
                            43 2.44  42 2.44 104 2.44  66 2.44
  78  0.333  0.167  0.833-  76 2.44  89 2.44  87 2.44  77 2.44  80 2.44  75 2.44  91 2.44  17 2.44
                             4 2.44  79 2.44   8 2.44   5 2.44
  79  0.500  0.000  0.833-  77 2.44  80 2.44  81 2.44 104 2.44  78 2.44 102 2.44  82 2.44   8 2.44
                             5 2.44 106 2.44   9 2.44  32 2.44
  80  0.500  0.167  0.667-  91 2.44  79 2.44  78 2.44  82 2.44  89 2.44  55 2.44  93 2.44  77 2.44
                            43 2.44  81 2.44  42 2.44  46 2.44
  81  0.667  0.000  0.667-  83 2.44  82 2.44  84 2.44  79 2.44  47 2.44 106 2.44 108 2.44  80 2.44
                            46 2.44 104 2.44  70 2.44  43 2.44
  82  0.667  0.167  0.833-  84 2.44  93 2.44  95 2.44  83 2.44  81 2.44  80 2.44  12 2.44  21 2.44
                            91 2.44  79 2.44   9 2.44   8 2.44
  83  0.833  0.000  0.833-  81 2.44  82 2.44  84 2.44  73 2.44   9 2.44 106 2.44 108 2.44  74 2.44
                            12 2.44  98 2.44  36 2.44   1 2.44
  84  0.833  0.167  0.667-  82 2.44  93 2.44  95 2.44  81 2.44  83 2.44  74 2.44  46 2.44  59 2.44
                            85 2.44  73 2.44  47 2.44  38 2.44
  85  0.000  0.333  0.667-  74 2.44  86 2.44  87 2.44  95 2.44  76 2.44  38 2.44  84 2.44  88 2.44
                            51 2.44  50 2.44  96 2.44  59 2.44
  86  0.000  0.500  0.833-  85 2.44  88 2.44  96 2.44  97 2.44  87 2.44  95 2.44  99 2.44  16 2.44
                            13 2.44 107 2.44  24 2.44  25 2.44
  87  0.167  0.333  0.833-  76 2.44  89 2.44  78 2.44  88 2.44  85 2.44  74 2.44  90 2.44  17 2.44
                             4 2.44  86 2.44  16 2.44  13 2.44
  88  0.167  0.500  0.667-  90 2.44  86 2.44  87 2.44  99 2.44  89 2.44  54 2.44 101 2.44  85 2.44
                            97 2.44  50 2.44  51 2.44  63 2.44
  89  0.333  0.333  0.667-  78 2.44  87 2.44  76 2.44  90 2.44  91 2.44  80 2.44  88 2.44  51 2.44
                            42 2.44  92 2.44  54 2.44  55 2.44
  90  0.333  0.500  0.833-  88 2.44  92 2.44  89 2.44 101 2.44  87 2.44  16 2.44  99 2.44  91 2.44
                            20 2.44  17 2.44 103 2.44  29 2.44
  91  0.500  0.333  0.833-  80 2.44  92 2.44  89 2.44  93 2.44  78 2.44   8 2.44  82 2.44  90 2.44
                            20 2.44  17 2.44  94 2.44  21 2.44
  92  0.500  0.500  0.667-  90 2.44  91 2.44  94 2.44 103 2.44  89 2.44 101 2.44  93 2.44  55 2.44
                            54 2.44 105 2.44  58 2.44  67 2.44
  93  0.667  0.333  0.667-  95 2.44  84 2.44  82 2.44  94 2.44  96 2.44  91 2.44  59 2.44  46 2.44
                            80 2.44  92 2.44  58 2.44  55 2.44
  94  0.667  0.500  0.833-  96 2.44  95 2.44  93 2.44  92 2.44  24 2.44 105 2.44 107 2.44  21 2.44
                            91 2.44 103 2.44  33 2.44  20 2.44
  95  0.833  0.333  0.833-  93 2.44  84 2.44  82 2.44  94 2.44  96 2.44  85 2.44  21 2.44  12 2.44
                            74 2.44  86 2.44  24 2.44  13 2.44
  96  0.833  0.500  0.667-  94 2.44  93 2.44  95 2.44  86 2.44  58 2.44 105 2.44 107 2.44  59 2.44
                            85 2.44  97 2.44  71 2.44  50 2.44
  97  0.000  0.667  0.667-  98 2.44  99 2.44 100 2.44  86 2.44  62 2.44 107 2.44 108 2.44  88 2.44
                            63 2.44  96 2.44  50 2.44  71 2.44
  98  0.000  0.833  0.833-  97 2.44  99 2.44 100 2.44  73 2.44  25 2.44 107 2.44 108 2.44  75 2.44
                            28 2.44  83 2.44   1 2.44  36 2.44
  99  0.167  0.667  0.833- 100 2.44 101 2.44 102 2.44  98 2.44  97 2.44  88 2.44  28 2.44  90 2.44
                            29 2.44  86 2.44  25 2.44  16 2.44
 100  0.167  0.833  0.667-  99 2.44 101 2.44 102 2.44  98 2.44  97 2.44  75 2.44  63 2.44  77 2.44
                            66 2.44  73 2.44  62 2.44  39 2.44
 101  0.333  0.667  0.667- 102 2.44 100 2.44  99 2.44 103 2.44 104 2.44  90 2.44  66 2.44  63 2.44
                            88 2.44  92 2.44  67 2.44  54 2.44
 102  0.333  0.833  0.833- 101 2.44 100 2.44  99 2.44 103 2.44 104 2.44  77 2.44  29 2.44  28 2.44
                            75 2.44  79 2.44  32 2.44   5 2.44
 103  0.500  0.667  0.833- 104 2.44 102 2.44 101 2.44  92 2.44  32 2.44 105 2.44 106 2.44  29 2.44
                            90 2.44  94 2.44  20 2.44  33 2.44
 104  0.500  0.833  0.667- 103 2.44 102 2.44 101 2.44  79 2.44  67 2.44 105 2.44 106 2.44  66 2.44
                            77 2.44  81 2.44  43 2.44  70 2.44
 105  0.667  0.667  0.667- 106 2.44 107 2.44 108 2.44  96 2.44 103 2.44 104 2.44  70 2.44  71 2.44
                            94 2.44  67 2.44  92 2.44  58 2.44
 106  0.667  0.833  0.833- 105 2.44 107 2.44 108 2.44  83 2.44 103 2.44 104 2.44  33 2.44  36 2.44
                            81 2.44  32 2.44  79 2.44   9 2.44
 107  0.833  0.667  0.833- 105 2.44 106 2.44 108 2.44  96 2.44  97 2.44  98 2.44  33 2.44  36 2.44
                            94 2.44  25 2.44  86 2.44  24 2.44
 108  0.833  0.833  0.667- 105 2.44 106 2.44 107 2.44  83 2.44  97 2.44  98 2.44  70 2.44  71 2.44
                            81 2.44  62 2.44  73 2.44  47 2.44
 
  LATTYP: Found a simple cubic cell.
 ALAT       =    10.3348470474
  
  Lattice vectors:
  
 A1 = (  10.3348470474,   0.0000000000,   0.0000000000)
 A2 = (   0.0000000000,  10.3348470474,   0.0000000000)
 A3 = (   0.0000000000,   0.0000000000,  10.3348470474)


Analysis of symmetry for initial positions (statically):
=====================================================================
 Subroutine PRICEL returns following result:
 
  LATTYP: Found a simple cubic cell.
 ALAT       =     3.4449252899
  
  Lattice vectors:
  
 A1 = (   3.4449252899,   0.0000000000,   0.0000000000)
 A2 = (   0.0000000000,   3.4449252899,   0.0000000000)
 A3 = (   0.0000000000,   0.0000000000,   3.4449252443)
 
  27 primitive cells build up your supercell.
 

 Routine SETGRP: Setting up the symmetry group for a 
 simple cubic supercell.


 Subroutine GETGRP returns: Found 48 space group operations
 (whereof 48 operations were pure point group operations)
 out of a pool of 48 trial point group operations.


The static configuration has the point symmetry O_h .


Analysis of symmetry for dynamics (positions and initial velocities):
=====================================================================
 Subroutine PRICEL returns following result:
 
  LATTYP: Found a simple cubic cell.
 ALAT       =     3.4449252899
  
  Lattice vectors:
  
 A1 = (   3.4449252899,   0.0000000000,   0.0000000000)
 A2 = (   0.0000000000,   3.4449252899,   0.0000000000)
 A3 = (   0.0000000000,   0.0000000000,   3.4449252443)
 
  27 primitive cells build up your supercell.
 

 Routine SETGRP: Setting up the symmetry group for a 
 simple cubic supercell.


 Subroutine GETGRP returns: Found 48 space group operations
 (whereof 48 operations were pure point group operations)
 out of a pool of 48 trial point group operations.


The dynamic configuration has the point symmetry O_h .


 Subroutine INISYM returns: Found 48 space group operations
 (whereof 48 operations are pure point group operations),
 and found    27 'primitive' translations

 
 
 KPOINTS: pymatgen generated KPOINTS with grid den

Automatic generation of k-mesh.
Space group operators:
 irot       det(A)        alpha          n_x          n_y          n_z        tau_x        tau_y        tau_z
    1     1.000000     0.000000     1.000000     0.000000     0.000000     0.000000     0.000000     0.000000
    2    -1.000000     0.000000     1.000000     0.000000     0.000000     0.000000     0.000000     0.000000
    3     1.000000   120.000000    -0.577350    -0.577350    -0.577350     0.000000     0.000000     0.000000
    4    -1.000000   120.000000    -0.577350    -0.577350    -0.577350     0.000000     0.000000     0.000000
    5     1.000000   120.000000     0.577350     0.577350     0.577350     0.000000     0.000000     0.000000
    6    -1.000000   120.000000     0.577350     0.577350     0.577350     0.000000     0.000000     0.000000
    7     1.000000    90.000000     0.000000     0.000000    -1.000000     0.000000     0.000000     0.000000
    8    -1.000000    90.000000     0.000000     0.000000    -1.000000     0.000000     0.000000     0.000000
    9     1.000000   180.000000     0.000000     0.707107     0.707107     0.000000     0.000000     0.000000
   10    -1.000000   180.000000     0.000000     0.707107     0.707107     0.000000     0.000000     0.000000
   11     1.000000    90.000000     0.000000     1.000000     0.000000     0.000000     0.000000     0.000000
   12    -1.000000    90.000000     0.000000     1.000000     0.000000     0.000000     0.000000     0.000000
   13     1.000000   180.000000     0.000000     0.000000     1.000000     0.000000     0.000000     0.000000
   14    -1.000000   180.000000     0.000000     0.000000     1.000000     0.000000     0.000000     0.000000
   15     1.000000   120.000000    -0.577350     0.577350     0.577350     0.000000     0.000000     0.000000
   16    -1.000000   120.000000    -0.577350     0.577350     0.577350     0.000000     0.000000     0.000000
   17     1.000000   120.000000    -0.577350     0.577350    -0.577350     0.000000     0.000000     0.000000
   18    -1.000000   120.000000    -0.577350     0.577350    -0.577350     0.000000     0.000000     0.000000
   19     1.000000    90.000000     0.000000     0.000000     1.000000     0.000000     0.000000     0.000000
   20    -1.000000    90.000000     0.000000     0.000000     1.000000     0.000000     0.000000     0.000000
   21     1.000000    90.000000    -1.000000     0.000000     0.000000     0.000000     0.000000     0.000000
   22    -1.000000    90.000000    -1.000000     0.000000     0.000000     0.000000     0.000000     0.000000
   23     1.000000   180.000000     0.707107     0.000000     0.707107     0.000000     0.000000     0.000000
   24    -1.000000   180.000000     0.707107     0.000000     0.707107     0.000000     0.000000     0.000000
   25     1.000000   120.000000     0.577350    -0.577350     0.577350     0.000000     0.000000     0.000000
   26    -1.000000   120.000000     0.577350    -0.577350     0.577350     0.000000     0.000000     0.000000
   27     1.000000   120.000000    -0.577350    -0.577350     0.577350     0.000000     0.000000     0.000000
   28    -1.000000   120.000000    -0.577350    -0.577350     0.577350     0.000000     0.000000     0.000000
   29     1.000000   180.000000     1.000000     0.000000     0.000000     0.000000     0.000000     0.000000
   30    -1.000000   180.000000     1.000000     0.000000     0.000000     0.000000     0.000000     0.000000
   31     1.000000    90.000000     0.000000    -1.000000     0.000000     0.000000     0.000000     0.000000
   32    -1.000000    90.000000     0.000000    -1.000000     0.000000     0.000000     0.000000     0.000000
   33     1.000000   180.000000     0.707107     0.707107     0.000000     0.000000     0.000000     0.000000
   34    -1.000000   180.000000     0.707107     0.707107     0.000000     0.000000     0.000000     0.000000
   35     1.000000    90.000000     1.000000     0.000000     0.000000     0.000000     0.000000     0.000000
   36    -1.000000    90.000000     1.000000     0.000000     0.000000     0.000000     0.000000     0.000000
   37     1.000000   120.000000     0.577350    -0.577350    -0.577350     0.000000     0.000000     0.000000
   38    -1.000000   120.000000     0.577350    -0.577350    -0.577350     0.000000     0.000000     0.000000
   39     1.000000   180.000000     0.000000     1.000000     0.000000     0.000000     0.000000     0.000000
   40    -1.000000   180.000000     0.000000     1.000000     0.000000     0.000000     0.000000     0.000000
   41     1.000000   120.000000     0.577350     0.577350    -0.577350     0.000000     0.000000     0.000000
   42    -1.000000   120.000000     0.577350     0.577350    -0.577350     0.000000     0.000000     0.000000
   43     1.000000   180.000000     0.000000    -0.707107     0.707107     0.000000     0.000000     0.000000
   44    -1.000000   180.000000     0.000000    -0.707107     0.707107     0.000000     0.000000     0.000000
   45     1.000000   180.000000     0.707107    -0.707107     0.000000     0.000000     0.000000     0.000000
   46    -1.000000   180.000000     0.707107    -0.707107     0.000000     0.000000     0.000000     0.000000
   47     1.000000   180.000000     0.707107     0.000000    -0.707107     0.000000     0.000000     0.000000
   48    -1.000000   180.000000     0.707107     0.000000    -0.707107     0.000000     0.000000     0.000000
 
 Subroutine IBZKPT returns following result:
 ===========================================
 
 Found      4 irreducible k-points:
 
 Following reciprocal coordinates:
            Coordinates               Weight
  0.125000  0.125000  0.125000      8.000000
  0.375000  0.125000  0.125000     24.000000
  0.375000  0.375000  0.125000     24.000000
  0.375000  0.375000  0.375000      8.000000
 
 Following cartesian coordinates:
            Coordinates               Weight
  0.012095  0.012095  0.012095      8.000000
  0.036285  0.012095  0.012095     24.000000
  0.036285  0.036285  0.012095     24.000000
  0.036285  0.036285  0.036285      8.000000
 


--------------------------------------------------------------------------------------------------------




 Dimension of arrays:
   k-points           NKPTS =      4   k-points in BZ     NKDIM =      4   number of bands    NBANDS=    518
   number of dos      NEDOS =    301   number of ions     NIONS =    108
   non local maximal  LDIM  =      6   non local SUM 2l+1 LMDIM =     18
   total plane-waves  NPLWV = 373248
   max r-space proj   IRMAX =   4855   max aug-charges    IRDMAX=  12243
   dimension x,y,z NGX =    72 NGY =   72 NGZ =   72
   dimension x,y,z NGXF=   144 NGYF=  144 NGZF=  144
   support grid    NGXF=   144 NGYF=  144 NGZF=  144
   ions per type =             108
   NGX,Y,Z   is equivalent  to a cutoff of  11.58, 11.58, 11.58 a.u.
   NGXF,Y,Z  is equivalent  to a cutoff of  23.16, 23.16, 23.16 a.u.

 Based on PREC, I would recommend the following setting:
   dimension x,y,z NGX =    48 NGY =   48 NGZ =   48

 SYSTEM =  Opt                                     
 POSCAR =  fcc_Fe_CON_333                          

 Startparameter for this run:
   NWRITE =      2    write-flag & timer
   PREC   = normal    normal or accurate (medium, high low for compatibility)
   ISTART =      0    job   : 0-new  1-cont  2-samecut
   ICHARG =      2    charge: 1-file 2-atom 10-const
   ISPIN  =      1    spin polarized calculation?
   LNONCOLLINEAR =      F non collinear calculations
   LSORBIT =      F    spin-orbit coupling
   INIWAV =      1    electr: 0-lowe 1-rand  2-diag
   LASPH  =      F    aspherical Exc in radial PAW
   METAGGA=      F    non-selfconsistent MetaGGA calc.

 Electronic Relaxation 1
   ENCUT  =  300.0 eV  22.05 Ry    4.70 a.u.  14.60 14.60 14.60*2*pi/ulx,y,z
   ENINI  =  300.0     initial cutoff
   ENAUG  =  511.4 eV  augmentation charge cutoff
   NELM   =    400;   NELMIN=  2; NELMDL= -5     # of ELM steps 
   EDIFF  = 0.1E-05   stopping-criterion for ELM
   LREAL  =      T    real-space projection
   NLSPLINE    = F    spline interpolate recip. space projectors
   LCOMPAT=      F    compatible to vasp.4.4
   GGA_COMPAT  = T    GGA compatible to vasp.4.4-vasp.4.6
   LMAXPAW     = -100 max onsite density
   LMAXMIX     =    2 max onsite mixed and CHGCAR
   VOSKOWN=      0    Vosko Wilk Nusair interpolation
   ROPT   =   -0.00050
 Ionic relaxation
   EDIFFG = -.1E-01   stopping-criterion for IOM
   NSW    =    100    number of steps for IOM
   NBLOCK =      1;   KBLOCK =    100    inner block; outer block 
   IBRION =      2    ionic relax: 0-MD 1-quasi-New 2-CG
   NFREE  =      1    steps in history (QN), initial steepest desc. (CG)
   ISIF   =      3    stress and relaxation
   IWAVPR =     11    prediction:  0-non 1-charg 2-wave 3-comb
   ISYM   =      2    0-nonsym 1-usesym 2-fastsym
   LCORR  =      T    Harris-Foulkes like correction to forces

   POTIM  = 0.5000    time-step for ionic-motion
   TEIN   =    0.0    initial temperature
   TEBEG  =    0.0;   TEEND  =   0.0 temperature during run
   SMASS  =  -3.00    Nose mass-parameter (am)
   estimated Nose-frequenzy (Omega)   =  0.10E-29 period in steps =****** mass=  -0.244E-26a.u.
   SCALEE = 1.0000    scale energy and forces
   NPACO  =    256;   APACO  = 16.0  distance and # of slots for P.C.
   PSTRESS=    0.0 pullay stress

  Mass of Ions in am
   POMASS =  55.85
  Ionic Valenz
   ZVAL   =   8.00
  Atomic Wigner-Seitz radii
   RWIGS  =  -1.00
  virtual crystal weights 
   VCA    =   1.00
   NELECT =     864.0000    total number of electrons
   NUPDOWN=      -1.0000    fix difference up-down

 DOS related values:
   EMIN   =  10.00;   EMAX   =-10.00  energy-range for DOS
   EFERMI =   0.00
   ISMEAR =     1;   SIGMA  =   0.20  broadening in eV -4-tet -1-fermi 0-gaus

 Electronic relaxation 2 (details)
   IALGO  =     68    algorithm
   LDIAG  =      T    sub-space diagonalisation (order eigenvalues)
   LSUBROT=      F    optimize rotation matrix (better conditioning)
   TURBO    =      0    0=normal 1=particle mesh
   IRESTART =      0    0=no restart 2=restart with 2 vectors
   NREBOOT  =      0    no. of reboots
   NMIN     =      0    reboot dimension
   EREF     =   0.00    reference energy to select bands
   IMIX   =      4    mixing-type and parameters
     AMIX     =   0.40;   BMIX     =  1.00
     AMIX_MAG =   1.60;   BMIX_MAG =  1.00
     AMIN     =   0.10
     WC   =   100.;   INIMIX=   1;  MIXPRE=   1;  MAXMIX= -45

 Intra band minimization:
   WEIMIN = 0.0010     energy-eigenvalue tresh-hold
   EBREAK =  0.48E-09  absolut break condition
   DEPER  =   0.30     relativ break condition  

   TIME   =   0.40     timestep for ELM

  volume/ion in A,a.u.               =      10.22        68.97
  Fermi-wavevector in a.u.,A,eV,Ry     =   1.508720  2.851068 30.970078  2.276236
  Thomas-Fermi vector in A             =   2.619137
 
 Write flags
   LWAVE        =      F    write WAVECAR
   LDOWNSAMPLE  =      F    k-point downsampling of WAVECAR
   LCHARG       =      F    write CHGCAR
   LVTOT        =      F    write LOCPOT, total local potential
   LVHAR        =      F    write LOCPOT, Hartree potential only
   LELF         =      F    write electronic localiz. function (ELF)
   LORBIT       =      0    0 simple, 1 ext, 2 COOP (PROOUT), +10 PAW based schemes


 Dipole corrections
   LMONO  =      F    monopole corrections only (constant potential shift)
   LDIPOL =      F    correct potential (dipole corrections)
   IDIPOL =      0    1-x, 2-y, 3-z, 4-all directions 
   EPSILON=  1.0000000 bulk dielectric constant

 Exchange correlation treatment:
   GGA     =    --    GGA type
   LEXCH   =     8    internal setting for exchange type
   VOSKOWN=      0    Vosko Wilk Nusair interpolation
   LHFCALC =     F    Hartree Fock is set to
   LHFONE  =     F    Hartree Fock one center treatment
   AEXX    =    0.0000 exact exchange contribution

 Linear response parameters
   LEPSILON=     F    determine dielectric tensor
   LRPA    =     F    only Hartree local field effects (RPA)
   LNABLA  =     F    use nabla operator in PAW spheres
   LVEL    =     F    velocity operator in full k-point grid
   LINTERFAST=   F  fast interpolation
   KINTER  =     0    interpolate to denser k-point grid
   CSHIFT  =0.1000    complex shift for real part using Kramers Kronig
   OMEGAMAX=  -1.0    maximum frequency
   DEG_THRESHOLD= 0.2000000E-02 threshold for treating states as degnerate
   RTIME   =   -0.100 relaxation time in fs
  (WPLASMAI=    0.000 imaginary part of plasma frequency in eV, 0.658/RTIME)
   DFIELD  = 0.0000000 0.0000000 0.0000000 field for delta impulse in time
 
 Orbital magnetization related:
   ORBITALMAG=     F  switch on orbital magnetization
   LCHIMAG   =     F  perturbation theory with respect to B field
   DQ        =  0.001000  dq finite difference perturbation B field
   LLRAUG    =     F  two centre corrections for induced B field



--------------------------------------------------------------------------------------------------------


 conjugate gradient relaxation of ions
 charge density and potential will be updated during run
 non-spin polarized calculation
 RMM-DIIS sequential band-by-band and
  variant of blocked Davidson during initial phase
 perform sub-space diagonalisation
    before iterative eigenvector-optimisation
 modified Broyden-mixing scheme, WC =      100.0
 initial mixing is a Kerker type mixing with AMIX =  0.4000 and BMIX =      1.0000
 Hartree-type preconditioning will be used
 using additional bands           86
 real space projection scheme for non local part
 use partial core corrections
 calculate Harris-corrections to forces 
   (improved forces if not selfconsistent)
 use gradient corrections 
 use of overlap-Matrix (Vanderbilt PP)
 Methfessel and Paxton  Order N= 1 SIGMA  =   0.20


--------------------------------------------------------------------------------------------------------


  energy-cutoff  :      300.00
  volume of cell :     1103.86
      direct lattice vectors                 reciprocal lattice vectors
    10.334847047  0.000000000  0.000000000     0.096760019  0.000000000  0.000000000
     0.000000000 10.334847047  0.000000000     0.000000000  0.096760019  0.000000000
     0.000000000  0.000000000 10.334847047     0.000000000  0.000000000  0.096760019

  length of vectors
    10.334847047 10.334847047 10.334847047     0.096760019  0.096760019  0.096760019


 
 k-points in units of 2pi/SCALE and weight: pymatgen generated KPOINTS with grid den
   0.01209500  0.01209500  0.01209500       0.125
   0.03628501  0.01209500  0.01209500       0.375
   0.03628501  0.03628501  0.01209500       0.375
   0.03628501  0.03628501  0.03628501       0.125
 
 k-points in reciprocal lattice and weights: pymatgen generated KPOINTS with grid den
   0.12500000  0.12500000  0.12500000       0.125
   0.37500000  0.12500000  0.12500000       0.375
   0.37500000  0.37500000  0.12500000       0.375
   0.37500000  0.37500000  0.37500000       0.125
 
 position of ions in fractional coordinates (direct lattice) 
   0.00000000  0.00000000  0.00000000
   0.00000000  0.16666893  0.16666893
   0.16666893  0.00000000  0.16666893
   0.16666893  0.16666893  0.00000000
   0.33333106  0.00000000  0.00000000
   0.33333107  0.16666893  0.16666893
   0.50000000  0.00000000  0.16666894
   0.50000000  0.16666894  0.00000000
   0.66666897  0.00000000  0.00000000
   0.66666896  0.16666893  0.16666893
   0.83333104  0.00000000  0.16666893
   0.83333104  0.16666893  0.00000000
   0.00000000  0.33333106  0.00000000
   0.00000000  0.50000000  0.16666894
   0.16666893  0.33333107  0.16666893
   0.16666894  0.50000000  0.00000000
   0.33333107  0.33333107  0.00000000
   0.33333107  0.50000000  0.16666893
   0.50000000  0.33333107  0.16666893
   0.50000000  0.50000000  0.00000000
   0.66666896  0.33333107  0.00000000
   0.66666896  0.50000000  0.16666893
   0.83333104  0.33333107  0.16666893
   0.83333103  0.50000000  0.00000000
   0.00000000  0.66666897  0.00000000
   0.00000000  0.83333104  0.16666893
   0.16666893  0.66666896  0.16666893
   0.16666893  0.83333104  0.00000000
   0.33333107  0.66666896  0.00000000
   0.33333107  0.83333104  0.16666893
   0.50000000  0.66666896  0.16666893
   0.50000000  0.83333103  0.00000000
   0.66666896  0.66666896  0.00000000
   0.66666896  0.83333104  0.16666893
   0.83333104  0.66666896  0.16666893
   0.83333104  0.83333104  0.00000000
   0.00000000  0.00000000  0.33333106
   0.00000000  0.16666894  0.50000000
   0.16666894  0.00000000  0.50000000
   0.16666893  0.16666893  0.33333107
   0.33333107  0.00000000  0.33333107
   0.33333107  0.16666893  0.50000000
   0.50000000  0.00000000  0.50000000
   0.50000000  0.16666893  0.33333107
   0.66666896  0.00000000  0.33333107
   0.66666896  0.16666893  0.50000000
   0.83333103  0.00000000  0.50000000
   0.83333104  0.16666893  0.33333107
   0.00000000  0.33333107  0.33333107
   0.00000000  0.50000000  0.50000000
   0.16666893  0.33333107  0.50000000
   0.16666893  0.50000000  0.33333107
   0.33333107  0.33333107  0.33333107
   0.33333106  0.50000000  0.50000000
   0.50000000  0.33333106  0.50000000
   0.50000000  0.50000000  0.33333106
   0.66666896  0.33333107  0.33333107
   0.66666897  0.50000000  0.50000000
   0.83333104  0.33333107  0.50000000
   0.83333104  0.50000000  0.33333107
   0.00000000  0.66666896  0.33333107
   0.00000000  0.83333103  0.50000000
   0.16666893  0.66666896  0.50000000
   0.16666893  0.83333104  0.33333107
   0.33333107  0.66666896  0.33333107
   0.33333107  0.83333104  0.50000000
   0.50000000  0.66666897  0.50000000
   0.50000000  0.83333104  0.33333107
   0.66666896  0.66666896  0.33333107
   0.66666896  0.83333104  0.50000000
   0.83333104  0.66666896  0.50000000
   0.83333104  0.83333104  0.33333107
   0.00000000  0.00000000  0.66666897
   0.00000000  0.16666893  0.83333104
   0.16666893  0.00000000  0.83333104
   0.16666893  0.16666893  0.66666896
   0.33333107  0.00000000  0.66666896
   0.33333107  0.16666893  0.83333104
   0.50000000  0.00000000  0.83333103
   0.50000000  0.16666893  0.66666896
   0.66666896  0.00000000  0.66666896
   0.66666896  0.16666893  0.83333104
   0.83333104  0.00000000  0.83333104
   0.83333104  0.16666893  0.66666896
   0.00000000  0.33333107  0.66666896
   0.00000000  0.50000000  0.83333103
   0.16666893  0.33333107  0.83333104
   0.16666893  0.50000000  0.66666896
   0.33333107  0.33333107  0.66666896
   0.33333107  0.50000000  0.83333104
   0.50000000  0.33333107  0.83333104
   0.50000000  0.50000000  0.66666897
   0.66666896  0.33333107  0.66666896
   0.66666896  0.50000000  0.83333104
   0.83333104  0.33333107  0.83333104
   0.83333104  0.50000000  0.66666896
   0.00000000  0.66666896  0.66666896
   0.00000000  0.83333104  0.83333104
   0.16666893  0.66666896  0.83333104
   0.16666893  0.83333104  0.66666896
   0.33333107  0.66666896  0.66666896
   0.33333107  0.83333104  0.83333104
   0.50000000  0.66666896  0.83333104
   0.50000000  0.83333104  0.66666896
   0.66666896  0.66666896  0.66666896
   0.66666896  0.83333104  0.83333104
   0.83333104  0.66666896  0.83333104
   0.83333104  0.83333104  0.66666896
 
 position of ions in cartesian coordinates  (Angst):
   0.00000000  0.00000000  0.00000000
   0.00000000  1.72249793  1.72249793
   1.72249793  0.00000000  1.72249793
   1.72249793  1.72249793  0.00000000
   3.44492554  0.00000000  0.00000000
   3.44492559  1.72249794  1.72249794
   5.16742352  0.00000000  1.72249798
   5.16742352  1.72249798  0.00000000
   6.88992180  0.00000000  0.00000000
   6.88992176  1.72249794  1.72249794
   8.61234881  0.00000000  1.72249793
   8.61234881  1.72249793  0.00000000
   0.00000000  3.44492554  0.00000000
   0.00000000  5.16742352  1.72249798
   1.72249794  3.44492559  1.72249794
   1.72249798  5.16742352  0.00000000
   3.44492559  3.44492559  0.00000000
   3.44492559  5.16742352  1.72249793
   5.16742352  3.44492559  1.72249793
   5.16742352  5.16742352  0.00000000
   6.88992176  3.44492559  0.00000000
   6.88992176  5.16742352  1.72249793
   8.61234881  3.44492559  1.72249794
   8.61234877  5.16742352  0.00000000
   0.00000000  6.88992180  0.00000000
   0.00000000  8.61234881  1.72249793
   1.72249794  6.88992176  1.72249794
   1.72249793  8.61234881  0.00000000
   3.44492559  6.88992176  0.00000000
   3.44492559  8.61234881  1.72249794
   5.16742352  6.88992176  1.72249793
   5.16742352  8.61234877  0.00000000
   6.88992176  6.88992176  0.00000000
   6.88992176  8.61234881  1.72249794
   8.61234881  6.88992176  1.72249794
   8.61234881  8.61234881  0.00000000
   0.00000000  0.00000000  3.44492554
   0.00000000  1.72249798  5.16742352
   1.72249798  0.00000000  5.16742352
   1.72249794  1.72249794  3.44492559
   3.44492559  0.00000000  3.44492559
   3.44492559  1.72249793  5.16742352
   5.16742352  0.00000000  5.16742352
   5.16742352  1.72249793  3.44492559
   6.88992176  0.00000000  3.44492559
   6.88992176  1.72249793  5.16742352
   8.61234877  0.00000000  5.16742352
   8.61234881  1.72249794  3.44492559
   0.00000000  3.44492559  3.44492559
   0.00000000  5.16742352  5.16742352
   1.72249793  3.44492559  5.16742352
   1.72249793  5.16742352  3.44492559
   3.44492559  3.44492559  3.44492559
   3.44492554  5.16742352  5.16742352
   5.16742352  3.44492554  5.16742352
   5.16742352  5.16742352  3.44492554
   6.88992176  3.44492559  3.44492559
   6.88992180  5.16742352  5.16742352
   8.61234881  3.44492559  5.16742352
   8.61234881  5.16742352  3.44492559
   0.00000000  6.88992176  3.44492559
   0.00000000  8.61234877  5.16742352
   1.72249793  6.88992176  5.16742352
   1.72249794  8.61234881  3.44492559
   3.44492559  6.88992176  3.44492559
   3.44492559  8.61234881  5.16742352
   5.16742352  6.88992180  5.16742352
   5.16742352  8.61234881  3.44492559
   6.88992176  6.88992176  3.44492559
   6.88992176  8.61234881  5.16742352
   8.61234881  6.88992176  5.16742352
   8.61234881  8.61234881  3.44492559
   0.00000000  0.00000000  6.88992180
   0.00000000  1.72249793  8.61234881
   1.72249793  0.00000000  8.61234881
   1.72249794  1.72249794  6.88992176
   3.44492559  0.00000000  6.88992176
   3.44492559  1.72249794  8.61234881
   5.16742352  0.00000000  8.61234877
   5.16742352  1.72249793  6.88992176
   6.88992176  0.00000000  6.88992176
   6.88992176  1.72249794  8.61234881
   8.61234881  0.00000000  8.61234881
   8.61234881  1.72249794  6.88992176
   0.00000000  3.44492559  6.88992176
   0.00000000  5.16742352  8.61234877
   1.72249794  3.44492559  8.61234881
   1.72249793  5.16742352  6.88992176
   3.44492559  3.44492559  6.88992176
   3.44492559  5.16742352  8.61234881
   5.16742352  3.44492559  8.61234881
   5.16742352  5.16742352  6.88992180
   6.88992176  3.44492559  6.88992176
   6.88992176  5.16742352  8.61234881
   8.61234881  3.44492559  8.61234881
   8.61234881  5.16742352  6.88992176
   0.00000000  6.88992176  6.88992176
   0.00000000  8.61234881  8.61234881
   1.72249794  6.88992176  8.61234881
   1.72249794  8.61234881  6.88992176
   3.44492559  6.88992176  6.88992176
   3.44492559  8.61234881  8.61234881
   5.16742352  6.88992176  8.61234881
   5.16742352  8.61234881  6.88992176
   6.88992176  6.88992176  6.88992176
   6.88992176  8.61234881  8.61234881
   8.61234881  6.88992176  8.61234881
   8.61234881  8.61234881  6.88992176
 


--------------------------------------------------------------------------------------------------------


 k-point  1 :   0.1250 0.1250 0.1250  plane waves:   13040
 k-point  2 :   0.3750 0.1250 0.1250  plane waves:   13018
 k-point  3 :   0.3750 0.3750 0.1250  plane waves:   12998
 k-point  4 :   0.3750 0.3750 0.3750  plane waves:   13019

 maximum and minimum number of plane-waves per node :      3269     3234

 maximum number of plane-waves:     13040
 maximum index in each direction: 
   IXMAX=   14   IYMAX=   14   IZMAX=   14
   IXMIN=  -14   IYMIN=  -14   IZMIN=  -14


 real space projection operators:
  total allocation   :      71335.69 KBytes
  max/ min on nodes  :      18240.19      17222.62


 parallel 3D FFT for wavefunctions:
    minimum data exchange during FFTs selected (reduces bandwidth)
 parallel 3D FFT for charge:
    minimum data exchange during FFTs selected (reduces bandwidth)


 total amount of memory used by VASP MPI-rank0   161250. kBytes
=======================================================================

   base      :      30000. kBytes
   nonlr-proj:      31339. kBytes
   fftplans  :      15398. kBytes
   grid      :      21835. kBytes
   one-center:        419. kBytes
   wavefun   :      62259. kBytes
 
     INWAV:  cpu time    0.0000: real time    0.0001
 Broyden mixing: mesh for mixing (old mesh)
   NGX = 29   NGY = 29   NGZ = 29
  (NGX  =144   NGY  =144   NGZ  =144)
  gives a total of  24389 points

 initial charge density was supplied:
 charge density of overlapping atoms calculated
 number of electron     864.0000000 magnetization 
 keeping initial charge density in first step


--------------------------------------------------------------------------------------------------------


 Maximum index for non-local projection operator         1201
 Maximum index for augmentation-charges         1463 (set IRDMAX)


--------------------------------------------------------------------------------------------------------


 First call to EWALD:  gamma=   0.172
 Maximum number of real-space cells 3x 3x 3
 Maximum number of reciprocal cells 3x 3x 3

    FEWALD:  cpu time    0.0103: real time    0.0103


--------------------------------------- Iteration      1(   1)  ---------------------------------------


    POTLOK:  cpu time    0.2754: real time    0.2769
    SETDIJ:  cpu time    0.0515: real time    0.0517
     EDDAV:  cpu time   36.3580: real time   36.4019
       DOS:  cpu time    0.0042: real time    0.0042
    --------------------------------------------
      LOOP:  cpu time   36.6892: real time   36.7348

 eigenvalue-minimisations  :  4152
 total energy-change (2. order) : 0.6292205E+04  (-0.2400302E+05)
 number of electron     864.0000000 magnetization 
 augmentation part      864.0000000 magnetization 

 Free energy of the ion-electron system (eV)
  ---------------------------------------------------
  alpha Z        PSCENC =      7300.31925852
  Ewald energy   TEWEN  =    -66232.83996889
  -Hartree energ DENC   =    -11197.02572337
  -exchange      EXHF   =         0.00000000
  -V(xc)+E(xc)   XCENC  =       446.63038354
  PAW double counting   =     51723.88885462   -52548.28121372
  entropy T*S    EENTRO =         0.00614610
  eigenvalues    EBANDS =     12599.78904734
  atomic energy  EATOM  =     64199.71855043
  Solvation  Ediel_sol  =         0.00000000
  ---------------------------------------------------
  free energy    TOTEN  =      6292.20533458 eV

  energy without entropy =     6292.19918848  energy(sigma->0) =     6292.20328588


--------------------------------------------------------------------------------------------------------




--------------------------------------- Iteration      1(   2)  ---------------------------------------


     EDDAV:  cpu time   36.3007: real time   36.3207
       DOS:  cpu time    0.0066: real time    0.0066
    --------------------------------------------
      LOOP:  cpu time   36.3073: real time   36.3272

 eigenvalue-minimisations  :  4144
 total energy-change (2. order) :-0.6541221E+04  (-0.6353085E+04)
 number of electron     864.0000000 magnetization 
 augmentation part      864.0000000 magnetization 

 Free energy of the ion-electron system (eV)
  ---------------------------------------------------
  alpha Z        PSCENC =      7300.31925852
  Ewald energy   TEWEN  =    -66232.83996889
  -Hartree energ DENC   =    -11197.02572337
  -exchange      EXHF   =         0.00000000
  -V(xc)+E(xc)   XCENC  =       446.63038354
  PAW double counting   =     51723.88885462   -52548.28121372
  entropy T*S    EENTRO =        -0.02778714
  eigenvalues    EBANDS =      6058.60166324
  atomic energy  EATOM  =     64199.71855043
  Solvation  Ediel_sol  =         0.00000000
  ---------------------------------------------------
  free energy    TOTEN  =      -249.01598276 eV

  energy without entropy =     -248.98819562  energy(sigma->0) =     -249.00672038


--------------------------------------------------------------------------------------------------------




--------------------------------------- Iteration      1(   3)  ---------------------------------------


     EDDAV:  cpu time   40.1024: real time   40.1148
       DOS:  cpu time    0.0069: real time    0.0069
    --------------------------------------------
      LOOP:  cpu time   40.1093: real time   40.1217

 eigenvalue-minimisations  :  4728
 total energy-change (2. order) :-0.6724899E+03  (-0.5892368E+03)
 number of electron     864.0000000 magnetization 
 augmentation part      864.0000000 magnetization 

 Free energy of the ion-electron system (eV)
  ---------------------------------------------------
  alpha Z        PSCENC =      7300.31925852
  Ewald energy   TEWEN  =    -66232.83996889
  -Hartree energ DENC   =    -11197.02572337
  -exchange      EXHF   =         0.00000000
  -V(xc)+E(xc)   XCENC  =       446.63038354
  PAW double counting   =     51723.88885462   -52548.28121372
  entropy T*S    EENTRO =         0.01813738
  eigenvalues    EBANDS =      5386.06587503
  atomic energy  EATOM  =     64199.71855043
  Solvation  Ediel_sol  =         0.00000000
  ---------------------------------------------------
  free energy    TOTEN  =      -921.50584646 eV

  energy without entropy =     -921.52398384  energy(sigma->0) =     -921.51189225


--------------------------------------------------------------------------------------------------------




--------------------------------------- Iteration      1(   4)  ---------------------------------------


     EDDAV:  cpu time   57.2822: real time   57.2834
       DOS:  cpu time    0.0074: real time    0.0074
    --------------------------------------------
      LOOP:  cpu time   57.2896: real time   57.2908

 eigenvalue-minimisations  :  7272
 total energy-change (2. order) :-0.1137713E+03  (-0.1053107E+03)
 number of electron     864.0000000 magnetization 
 augmentation part      864.0000000 magnetization 

 Free energy of the ion-electron system (eV)
  ---------------------------------------------------
  alpha Z        PSCENC =      7300.31925852
  Ewald energy   TEWEN  =    -66232.83996889
  -Hartree energ DENC   =    -11197.02572337
  -exchange      EXHF   =         0.00000000
  -V(xc)+E(xc)   XCENC  =       446.63038354
  PAW double counting   =     51723.88885462   -52548.28121372
  entropy T*S    EENTRO =        -0.05993827
  eigenvalues    EBANDS =      5272.37264820
  atomic energy  EATOM  =     64199.71855043
  Solvation  Ediel_sol  =         0.00000000
  ---------------------------------------------------
  free energy    TOTEN  =     -1035.27714893 eV

  energy without entropy =    -1035.21721066  energy(sigma->0) =    -1035.25716951


--------------------------------------------------------------------------------------------------------




--------------------------------------- Iteration      1(   5)  ---------------------------------------


     EDDAV:  cpu time   52.1586: real time   52.1625
       DOS:  cpu time    0.0075: real time    0.0075
    CHARGE:  cpu time    2.0899: real time    2.0899
    MIXING:  cpu time    0.0086: real time    0.0086
    --------------------------------------------
      LOOP:  cpu time   54.2645: real time   54.2684

 eigenvalue-minimisations  :  6512
 total energy-change (2. order) :-0.9819642E+01  (-0.9070179E+01)
 number of electron     864.0000692 magnetization 
 augmentation part      383.1120992 magnetization 

 Broyden mixing:
  rms(total) = 0.93130E+01    rms(broyden)= 0.93114E+01
  rms(prec ) = 0.11619E+02
  weight for this iteration     100.00

 Free energy of the ion-electron system (eV)
  ---------------------------------------------------
  alpha Z        PSCENC =      7300.31925852
  Ewald energy   TEWEN  =    -66232.83996889
  -Hartree energ DENC   =    -11197.02572337
  -exchange      EXHF   =         0.00000000
  -V(xc)+E(xc)   XCENC  =       446.63038354
  PAW double counting   =     51723.88885462   -52548.28121372
  entropy T*S    EENTRO =        -0.10932396
  eigenvalues    EBANDS =      5262.60239182
  atomic energy  EATOM  =     64199.71855043
  Solvation  Ediel_sol  =         0.00000000
  ---------------------------------------------------
  free energy    TOTEN  =     -1045.09679100 eV

  energy without entropy =    -1044.98746704  energy(sigma->0) =    -1045.06034968


--------------------------------------------------------------------------------------------------------




--------------------------------------- Iteration      1(   6)  ---------------------------------------


    POTLOK:  cpu time    0.2977: real time    0.2986
    SETDIJ:  cpu time    0.0540: real time    0.0540
    EDDIAG:  cpu time    4.4715: real time    4.4718
  RMM-DIIS:  cpu time   23.5576: real time   23.5662
    ORTHCH:  cpu time    0.7274: real time    0.7274
       DOS:  cpu time    0.0081: real time    0.0081
    CHARGE:  cpu time    2.0702: real time    2.0702
    MIXING:  cpu time    0.0088: real time    0.0088
    --------------------------------------------
      LOOP:  cpu time   31.1954: real time   31.2051

 eigenvalue-minimisations  :  4144
 total energy-change (2. order) : 0.1656840E+03  (-0.1350812E+03)
 number of electron     864.0000778 magnetization 
 augmentation part      447.9887038 magnetization 

 Broyden mixing:
  rms(total) = 0.87279E+00    rms(broyden)= 0.86942E+00
  rms(prec ) = 0.94321E+00
  weight for this iteration     100.00

 eigenvalues of (default mixing * dielectric matrix)
  average eigenvalue GAMMA=   0.9483
  0.9483

 Free energy of the ion-electron system (eV)
  ---------------------------------------------------
  alpha Z        PSCENC =      7300.31925852
  Ewald energy   TEWEN  =    -66232.83996889
  -Hartree energ DENC   =     -9345.26854725
  -exchange      EXHF   =         0.00000000
  -V(xc)+E(xc)   XCENC  =       356.08576150
  PAW double counting   =     52399.32331996   -52984.66407923
  entropy T*S    EENTRO =        -0.06368867
  eigenvalues    EBANDS =      3427.97658921
  atomic energy  EATOM  =     64199.71855043
  Solvation  Ediel_sol  =         0.00000000
  ---------------------------------------------------
  free energy    TOTEN  =      -879.41280442 eV

  energy without entropy =     -879.34911574  energy(sigma->0) =     -879.39157486


--------------------------------------------------------------------------------------------------------




--------------------------------------- Iteration      1(   7)  ---------------------------------------


    POTLOK:  cpu time    0.2959: real time    0.2969
    SETDIJ:  cpu time    0.0526: real time    0.0526
    EDDIAG:  cpu time    4.3862: real time    4.3863
  RMM-DIIS:  cpu time   26.5909: real time   26.5941
    ORTHCH:  cpu time    0.7175: real time    0.7175
       DOS:  cpu time    0.0081: real time    0.0081
    CHARGE:  cpu time    2.0590: real time    2.0606
    MIXING:  cpu time    0.0100: real time    0.0100
    --------------------------------------------
      LOOP:  cpu time   34.1204: real time   34.1261

 eigenvalue-minimisations  :  4510
 total energy-change (2. order) :-0.1941136E+01  (-0.1002730E+02)
 number of electron     864.0000752 magnetization 
 augmentation part      446.9316391 magnetization 

 Broyden mixing:
  rms(total) = 0.34762E+00    rms(broyden)= 0.34454E+00
  rms(prec ) = 0.39266E+00
  weight for this iteration     100.00

 eigenvalues of (default mixing * dielectric matrix)
  average eigenvalue GAMMA=   1.0928
  1.0928  1.0928

 Free energy of the ion-electron system (eV)
  ---------------------------------------------------
  alpha Z        PSCENC =      7300.31925852
  Ewald energy   TEWEN  =    -66232.83996889
  -Hartree energ DENC   =     -9390.22458409
  -exchange      EXHF   =         0.00000000
  -V(xc)+E(xc)   XCENC  =       360.84821098
  PAW double counting   =     54322.47977078   -55102.04101762
  entropy T*S    EENTRO =        -0.13487782
  eigenvalues    EBANDS =      3660.52071732
  atomic energy  EATOM  =     64199.71855043
  Solvation  Ediel_sol  =         0.00000000
  ---------------------------------------------------
  free energy    TOTEN  =      -881.35394038 eV

  energy without entropy =     -881.21906257  energy(sigma->0) =     -881.30898111


--------------------------------------------------------------------------------------------------------




--------------------------------------- Iteration      1(   8)  ---------------------------------------


    POTLOK:  cpu time    0.3016: real time    0.3021
    SETDIJ:  cpu time    0.0540: real time    0.0540
    EDDIAG:  cpu time    4.5805: real time    4.5808
  RMM-DIIS:  cpu time   25.9581: real time   25.9595
    ORTHCH:  cpu time    0.7477: real time    0.7477
       DOS:  cpu time    0.0083: real time    0.0083
    CHARGE:  cpu time    2.1633: real time    2.1635
    MIXING:  cpu time    0.0089: real time    0.0089
    --------------------------------------------
      LOOP:  cpu time   33.8225: real time   33.8249

 eigenvalue-minimisations  :  4416
 total energy-change (2. order) : 0.3490939E+00  (-0.1277386E+01)
 number of electron     864.0000748 magnetization 
 augmentation part      443.3227503 magnetization 

 Broyden mixing:
  rms(total) = 0.11653E+01    rms(broyden)= 0.11640E+01
  rms(prec ) = 0.16251E+01
  weight for this iteration     100.00

 eigenvalues of (default mixing * dielectric matrix)
  average eigenvalue GAMMA=   0.7927
  1.0229  1.2343  0.1208

 Free energy of the ion-electron system (eV)
  ---------------------------------------------------
  alpha Z        PSCENC =      7300.31925852
  Ewald energy   TEWEN  =    -66232.83996889
  -Hartree energ DENC   =     -9419.58277881
  -exchange      EXHF   =         0.00000000
  -V(xc)+E(xc)   XCENC  =       363.43015314
  PAW double counting   =     56056.47365510   -56940.61752368
  entropy T*S    EENTRO =        -0.10452454
  eigenvalues    EBANDS =      3792.19833227
  atomic energy  EATOM  =     64199.71855043
  Solvation  Ediel_sol  =         0.00000000
  ---------------------------------------------------
  free energy    TOTEN  =      -881.00484646 eV

  energy without entropy =     -880.90032191  energy(sigma->0) =     -880.97000494


--------------------------------------------------------------------------------------------------------




--------------------------------------- Iteration      1(   9)  ---------------------------------------


    POTLOK:  cpu time    0.3095: real time    0.3106
    SETDIJ:  cpu time    0.0544: real time    0.0544
    EDDIAG:  cpu time    4.3895: real time    4.3900
  RMM-DIIS:  cpu time   29.4329: real time   29.4446
    ORTHCH:  cpu time    0.7465: real time    0.7465
       DOS:  cpu time    0.0083: real time    0.0083
    CHARGE:  cpu time    2.1638: real time    2.1639
    MIXING:  cpu time    0.0098: real time    0.0098
    --------------------------------------------
      LOOP:  cpu time   37.1149: real time   37.1282

 eigenvalue-minimisations  :  5064
 total energy-change (2. order) : 0.4124028E+00  (-0.3704145E+00)
 number of electron     864.0000750 magnetization 
 augmentation part      443.3907420 magnetization 

 Broyden mixing:
  rms(total) = 0.28087E+00    rms(broyden)= 0.27673E+00
  rms(prec ) = 0.34138E+00
  weight for this iteration     100.00

 eigenvalues of (default mixing * dielectric matrix)
  average eigenvalue GAMMA=   1.1567
  2.4756  1.0207  1.0207  0.1097

 Free energy of the ion-electron system (eV)
  ---------------------------------------------------
  alpha Z        PSCENC =      7300.31925852
  Ewald energy   TEWEN  =    -66232.83996889
  -Hartree energ DENC   =     -9415.97178737
  -exchange      EXHF   =         0.00000000
  -V(xc)+E(xc)   XCENC  =       363.37602668
  PAW double counting   =     56300.54979725   -57197.02019027
  entropy T*S    EENTRO =        -0.07039999
  eigenvalues    EBANDS =      3801.34626997
  atomic energy  EATOM  =     64199.71855043
  Solvation  Ediel_sol  =         0.00000000
  ---------------------------------------------------
  free energy    TOTEN  =      -880.59244366 eV

  energy without entropy =     -880.52204367  energy(sigma->0) =     -880.56897700


--------------------------------------------------------------------------------------------------------




--------------------------------------- Iteration      1(  10)  ---------------------------------------


    POTLOK:  cpu time    0.3097: real time    0.3108
    SETDIJ:  cpu time    0.0544: real time    0.0544
    EDDIAG:  cpu time    4.4125: real time    4.4126
  RMM-DIIS:  cpu time   30.7621: real time   30.7784
    ORTHCH:  cpu time    0.7471: real time    0.7472
       DOS:  cpu time    0.0084: real time    0.0084
    CHARGE:  cpu time    2.1624: real time    2.1626
    MIXING:  cpu time    0.0096: real time    0.0096
    --------------------------------------------
      LOOP:  cpu time   38.4663: real time   38.4839

 eigenvalue-minimisations  :  5279
 total energy-change (2. order) : 0.1656568E+00  (-0.1559936E+00)
 number of electron     864.0000752 magnetization 
 augmentation part      444.8580427 magnetization 

 Broyden mixing:
  rms(total) = 0.70884E-01    rms(broyden)= 0.70786E-01
  rms(prec ) = 0.90855E-01
  weight for this iteration     100.00

 eigenvalues of (default mixing * dielectric matrix)
  average eigenvalue GAMMA=   1.1441
  2.6023  1.1485  0.9300  0.9300  0.1100

 Free energy of the ion-electron system (eV)
  ---------------------------------------------------
  alpha Z        PSCENC =      7300.31925852
  Ewald energy   TEWEN  =    -66232.83996889
  -Hartree energ DENC   =     -9328.32428042
  -exchange      EXHF   =         0.00000000
  -V(xc)+E(xc)   XCENC  =       359.90956141
  PAW double counting   =     57796.28678040   -58742.03589679
  entropy T*S    EENTRO =        -0.08148022
  eigenvalues    EBANDS =      3766.62068864
  atomic energy  EATOM  =     64199.71855043
  Solvation  Ediel_sol  =         0.00000000
  ---------------------------------------------------
  free energy    TOTEN  =      -880.42678690 eV

  energy without entropy =     -880.34530669  energy(sigma->0) =     -880.39962683


--------------------------------------------------------------------------------------------------------




--------------------------------------- Iteration      1(  11)  ---------------------------------------


    POTLOK:  cpu time    0.3090: real time    0.3100
    SETDIJ:  cpu time    0.0539: real time    0.0539
    EDDIAG:  cpu time    4.6366: real time    4.6373
  RMM-DIIS:  cpu time   32.5777: real time   32.5816
    ORTHCH:  cpu time    0.7491: real time    0.7492
       DOS:  cpu time    0.0083: real time    0.0083
    CHARGE:  cpu time    2.1536: real time    2.1537
    MIXING:  cpu time    0.0090: real time    0.0090
    --------------------------------------------
      LOOP:  cpu time   40.4971: real time   40.5030

 eigenvalue-minimisations  :  5650
 total energy-change (2. order) :-0.1718030E-01  (-0.1798246E-01)
 number of electron     864.0000752 magnetization 
 augmentation part      445.0291082 magnetization 

 Broyden mixing:
  rms(total) = 0.72866E-01    rms(broyden)= 0.72851E-01
  rms(prec ) = 0.93034E-01
  weight for this iteration     100.00

 eigenvalues of (default mixing * dielectric matrix)
  average eigenvalue GAMMA=   1.2764
  2.6502  2.0360  0.9628  0.9628  0.9363  0.1100

 Free energy of the ion-electron system (eV)
  ---------------------------------------------------
  alpha Z        PSCENC =      7300.31925852
  Ewald energy   TEWEN  =    -66232.83996889
  -Hartree energ DENC   =     -9330.79723380
  -exchange      EXHF   =         0.00000000
  -V(xc)+E(xc)   XCENC  =       360.06641949
  PAW double counting   =     57943.25787138   -58889.49907475
  entropy T*S    EENTRO =        -0.07938304
  eigenvalues    EBANDS =      3769.40959345
  atomic energy  EATOM  =     64199.71855043
  Solvation  Ediel_sol  =         0.00000000
  ---------------------------------------------------
  free energy    TOTEN  =      -880.44396720 eV

  energy without entropy =     -880.36458417  energy(sigma->0) =     -880.41750619


--------------------------------------------------------------------------------------------------------




--------------------------------------- Iteration      1(  12)  ---------------------------------------


    POTLOK:  cpu time    0.3131: real time    0.3137
    SETDIJ:  cpu time    0.0541: real time    0.0542
    EDDIAG:  cpu time    4.6432: real time    4.6438
  RMM-DIIS:  cpu time   25.9566: real time   25.9681
    ORTHCH:  cpu time    0.7489: real time    0.7490
       DOS:  cpu time    0.0083: real time    0.0083
    CHARGE:  cpu time    2.1571: real time    2.1573
    MIXING:  cpu time    0.0083: real time    0.0083
    --------------------------------------------
      LOOP:  cpu time   33.8897: real time   33.9026

 eigenvalue-minimisations  :  4485
 total energy-change (2. order) : 0.7985093E-02  (-0.5534268E-02)
 number of electron     864.0000752 magnetization 
 augmentation part      444.6475126 magnetization 

 Broyden mixing:
  rms(total) = 0.19341E-01    rms(broyden)= 0.19248E-01
  rms(prec ) = 0.26403E-01
  weight for this iteration     100.00

 eigenvalues of (default mixing * dielectric matrix)
  average eigenvalue GAMMA=   1.2914
  2.4113  2.4113  1.2435  0.9745  0.9745  0.9152  0.1100

 Free energy of the ion-electron system (eV)
  ---------------------------------------------------
  alpha Z        PSCENC =      7300.31925852
  Ewald energy   TEWEN  =    -66232.83996889
  -Hartree energ DENC   =     -9346.63633277
  -exchange      EXHF   =         0.00000000
  -V(xc)+E(xc)   XCENC  =       360.78771543
  PAW double counting   =     57978.30050849   -58920.58957290
  entropy T*S    EENTRO =        -0.07481310
  eigenvalues    EBANDS =      3780.57867269
  atomic energy  EATOM  =     64199.71855043
  Solvation  Ediel_sol  =         0.00000000
  ---------------------------------------------------
  free energy    TOTEN  =      -880.43598211 eV

  energy without entropy =     -880.36116901  energy(sigma->0) =     -880.41104441


--------------------------------------------------------------------------------------------------------




--------------------------------------- Iteration      1(  13)  ---------------------------------------


    POTLOK:  cpu time    0.3085: real time    0.3095
    SETDIJ:  cpu time    0.0535: real time    0.0535
    EDDIAG:  cpu time    4.6414: real time    4.6419
  RMM-DIIS:  cpu time   31.9500: real time   31.9539
    ORTHCH:  cpu time    0.7464: real time    0.7465
       DOS:  cpu time    0.0083: real time    0.0083
    CHARGE:  cpu time    2.1581: real time    2.1710
    MIXING:  cpu time    0.0103: real time    0.0103
    --------------------------------------------
      LOOP:  cpu time   39.8775: real time   39.8950

 eigenvalue-minimisations  :  5544
 total energy-change (2. order) :-0.9760320E-03  (-0.1463742E-02)
 number of electron     864.0000752 magnetization 
 augmentation part      444.5954679 magnetization 

 Broyden mixing:
  rms(total) = 0.48714E-02    rms(broyden)= 0.48207E-02
  rms(prec ) = 0.64537E-02
  weight for this iteration     100.00

 eigenvalues of (default mixing * dielectric matrix)
  average eigenvalue GAMMA=   1.3418
  2.5882  2.1281  2.1281  0.1100  0.9686  0.9686  0.9213  0.9213

 Free energy of the ion-electron system (eV)
  ---------------------------------------------------
  alpha Z        PSCENC =      7300.31925852
  Ewald energy   TEWEN  =    -66232.83996889
  -Hartree energ DENC   =     -9347.54332207
  -exchange      EXHF   =         0.00000000
  -V(xc)+E(xc)   XCENC  =       360.81512109
  PAW double counting   =     57966.50077401   -58907.20251340
  entropy T*S    EENTRO =        -0.07409240
  eigenvalues    EBANDS =      3779.86923456
  atomic energy  EATOM  =     64199.71855043
  Solvation  Ediel_sol  =         0.00000000
  ---------------------------------------------------
  free energy    TOTEN  =      -880.43695814 eV

  energy without entropy =     -880.36286575  energy(sigma->0) =     -880.41226068


--------------------------------------------------------------------------------------------------------




--------------------------------------- Iteration      1(  14)  ---------------------------------------


    POTLOK:  cpu time    0.3073: real time    0.3083
    SETDIJ:  cpu time    0.0550: real time    0.0551
    EDDIAG:  cpu time    4.6394: real time    4.6400
  RMM-DIIS:  cpu time   28.6739: real time   28.6774
    ORTHCH:  cpu time    0.7412: real time    0.7413
       DOS:  cpu time    0.0083: real time    0.0083
    CHARGE:  cpu time    2.1252: real time    2.1254
    MIXING:  cpu time    0.0090: real time    0.0090
    --------------------------------------------
      LOOP:  cpu time   36.5584: real time   36.5646

 eigenvalue-minimisations  :  4940
 total energy-change (2. order) :-0.6294572E-04  (-0.7514353E-04)
 number of electron     864.0000752 magnetization 
 augmentation part      444.6340841 magnetization 

 Broyden mixing:
  rms(total) = 0.31862E-02    rms(broyden)= 0.31851E-02
  rms(prec ) = 0.41531E-02
  weight for this iteration     100.00

 eigenvalues of (default mixing * dielectric matrix)
  average eigenvalue GAMMA=   1.3644
  2.6492  2.6492  0.1100  1.4839  1.4839  1.0037  1.0037  1.0254  0.8705

 Free energy of the ion-electron system (eV)
  ---------------------------------------------------
  alpha Z        PSCENC =      7300.31925852
  Ewald energy   TEWEN  =    -66232.83996889
  -Hartree energ DENC   =     -9346.30153362
  -exchange      EXHF   =         0.00000000
  -V(xc)+E(xc)   XCENC  =       360.76008104
  PAW double counting   =     57965.04502179   -58905.86705920
  entropy T*S    EENTRO =        -0.07360063
  eigenvalues    EBANDS =      3778.80222946
  atomic energy  EATOM  =     64199.71855043
  Solvation  Ediel_sol  =         0.00000000
  ---------------------------------------------------
  free energy    TOTEN  =      -880.43702109 eV

  energy without entropy =     -880.36342046  energy(sigma->0) =     -880.41248754


--------------------------------------------------------------------------------------------------------




--------------------------------------- Iteration      1(  15)  ---------------------------------------


    POTLOK:  cpu time    0.2960: real time    0.2963
    SETDIJ:  cpu time    0.0546: real time    0.0546
    EDDIAG:  cpu time    4.6376: real time    4.6382
  RMM-DIIS:  cpu time   27.4212: real time   27.4269
    ORTHCH:  cpu time    0.7375: real time    0.7376
       DOS:  cpu time    0.0081: real time    0.0081
    CHARGE:  cpu time    2.0557: real time    2.0559
    MIXING:  cpu time    0.0090: real time    0.0090
    --------------------------------------------
      LOOP:  cpu time   35.2198: real time   35.2266

 eigenvalue-minimisations  :  4663
 total energy-change (2. order) : 0.7012174E-04  (-0.5490699E-05)
 number of electron     864.0000752 magnetization 
 augmentation part      444.6055197 magnetization 

 Broyden mixing:
  rms(total) = 0.26628E-02    rms(broyden)= 0.26583E-02
  rms(prec ) = 0.34303E-02
  weight for this iteration     100.00

 eigenvalues of (default mixing * dielectric matrix)
  average eigenvalue GAMMA=   1.3333
  2.7750  2.5962  1.6895  1.6895  0.1100  0.9850  0.9850  0.9971  0.8761  0.6294

 Free energy of the ion-electron system (eV)
  ---------------------------------------------------
  alpha Z        PSCENC =      7300.31925852
  Ewald energy   TEWEN  =    -66232.83996889
  -Hartree energ DENC   =     -9347.31788875
  -exchange      EXHF   =         0.00000000
  -V(xc)+E(xc)   XCENC  =       360.80877861
  PAW double counting   =     57965.49801076   -58906.23204717
  entropy T*S    EENTRO =        -0.07291460
  eigenvalues    EBANDS =      3779.68127012
  atomic energy  EATOM  =     64199.71855043
  Solvation  Ediel_sol  =         0.00000000
  ---------------------------------------------------
  free energy    TOTEN  =      -880.43695097 eV

  energy without entropy =     -880.36403637  energy(sigma->0) =     -880.41264610


--------------------------------------------------------------------------------------------------------




--------------------------------------- Iteration      1(  16)  ---------------------------------------


    POTLOK:  cpu time    0.2853: real time    0.2858
    SETDIJ:  cpu time    0.0534: real time    0.0535
    EDDIAG:  cpu time    4.4573: real time    4.4578
  RMM-DIIS:  cpu time   31.5809: real time   31.5847
    ORTHCH:  cpu time    0.7307: real time    0.7308
       DOS:  cpu time    0.0082: real time    0.0082
    CHARGE:  cpu time    2.0357: real time    2.0359
    MIXING:  cpu time    0.0091: real time    0.0091
    --------------------------------------------
      LOOP:  cpu time   39.1617: real time   39.1658

 eigenvalue-minimisations  :  5362
 total energy-change (2. order) : 0.2610539E-04  ( 0.2343420E-04)
 number of electron     864.0000752 magnetization 
 augmentation part      444.6134439 magnetization 

 Broyden mixing:
  rms(total) = 0.13313E-02    rms(broyden)= 0.13307E-02
  rms(prec ) = 0.17707E-02
  weight for this iteration     100.00

 eigenvalues of (default mixing * dielectric matrix)
  average eigenvalue GAMMA=   1.3503
  2.8608  2.4147  1.6830  1.6830  0.1100  1.1383  1.1383  0.9999  0.9999  0.9542
  0.8714

 Free energy of the ion-electron system (eV)
  ---------------------------------------------------
  alpha Z        PSCENC =      7300.31925852
  Ewald energy   TEWEN  =    -66232.83996889
  -Hartree energ DENC   =     -9346.95517121
  -exchange      EXHF   =         0.00000000
  -V(xc)+E(xc)   XCENC  =       360.79256501
  PAW double counting   =     57964.49117233   -58905.27736757
  entropy T*S    EENTRO =        -0.07242786
  eigenvalues    EBANDS =      3779.38646439
  atomic energy  EATOM  =     64199.71855043
  Solvation  Ediel_sol  =         0.00000000
  ---------------------------------------------------
  free energy    TOTEN  =      -880.43692486 eV

  energy without entropy =     -880.36449700  energy(sigma->0) =     -880.41278224


--------------------------------------------------------------------------------------------------------




--------------------------------------- Iteration      1(  17)  ---------------------------------------


    POTLOK:  cpu time    0.2996: real time    0.3000
    SETDIJ:  cpu time    0.0545: real time    0.0545
    EDDIAG:  cpu time    4.2699: real time    4.2704
  RMM-DIIS:  cpu time   29.4100: real time   29.4139
    ORTHCH:  cpu time    0.7429: real time    0.7430
       DOS:  cpu time    0.0086: real time    0.0086
    CHARGE:  cpu time    2.1744: real time    2.1746
    MIXING:  cpu time    0.0107: real time    0.0107
    --------------------------------------------
      LOOP:  cpu time   36.9696: real time   36.9756

 eigenvalue-minimisations  :  4981
[...]
   0.105E-01 0.103E-01 0.143E-04   -.205E-01 -.202E-01 -.277E-04   -.230E-21 0.798E-20 -.394E-19   -.903E-07 -.100E-06 0.164E-07
   -.105E-01 -.143E-04 0.143E-04   0.205E-01 0.277E-04 -.277E-04   -.847E-21 -.635E-20 -.593E-20   0.845E-07 -.163E-07 0.164E-07
   -.105E-01 0.103E-01 -.103E-01   0.205E-01 -.202E-01 0.202E-01   -.122E-24 -.788E-21 0.974E-20   0.844E-07 -.100E-06 0.106E-06
   -.143E-04 -.103E-01 -.103E-01   0.277E-04 0.202E-01 0.202E-01   -.937E-25 -.186E-19 0.191E-19   -.163E-07 0.101E-06 0.101E-06
   -.143E-04 0.143E-04 0.143E-04   0.277E-04 -.277E-04 -.277E-04   -.847E-21 -.148E-19 0.169E-20   -.163E-07 0.164E-07 0.164E-07
   0.103E-01 -.103E-01 0.143E-04   -.202E-01 0.202E-01 -.277E-04   0.204E-21 -.208E-19 -.508E-20   -.100E-06 0.106E-06 0.164E-07
   0.103E-01 0.143E-04 -.103E-01   -.202E-01 -.277E-04 0.202E-01   0.554E-21 -.140E-19 -.136E-19   -.100E-06 0.164E-07 0.106E-06
   -.103E-01 -.103E-01 -.103E-01   0.202E-01 0.202E-01 0.202E-01   -.947E-25 0.123E-19 -.169E-20   0.101E-06 0.101E-06 0.101E-06
   -.104E-01 0.143E-04 0.143E-04   0.203E-01 -.277E-04 -.277E-04   0.938E-25 0.140E-19 -.762E-20   0.106E-06 0.164E-07 0.164E-07
   0.143E-04 -.104E-01 0.143E-04   -.277E-04 0.203E-01 -.277E-04   -.423E-21 0.466E-20 0.102E-19   0.164E-07 0.106E-06 0.164E-07
   0.143E-04 0.143E-04 -.104E-01   -.277E-04 -.277E-04 0.203E-01   -.847E-21 0.110E-19 -.203E-19   0.164E-07 0.164E-07 0.106E-06
   0.105E-01 -.103E-01 -.103E-01   -.205E-01 0.202E-01 0.202E-01   -.663E-22 0.157E-19 -.284E-19   -.851E-07 0.101E-06 0.101E-06
   0.105E-01 0.143E-04 0.143E-04   -.205E-01 -.277E-04 -.277E-04   0.129E-21 -.152E-19 0.152E-19   -.905E-07 0.164E-07 0.164E-07
   -.105E-01 -.103E-01 0.142E-04   0.205E-01 0.202E-01 -.277E-04   0.148E-24 -.339E-20 -.847E-20   0.843E-07 0.106E-06 0.164E-07
   -.105E-01 0.143E-04 -.103E-01   0.205E-01 -.277E-04 0.202E-01   -.424E-21 0.805E-20 -.305E-19   0.843E-07 0.164E-07 0.106E-06
   -.143E-04 0.105E-01 -.103E-01   0.277E-04 -.205E-01 0.202E-01   -.121E-24 -.311E-21 0.889E-20   -.163E-07 -.850E-07 0.101E-06
   -.143E-04 -.105E-01 0.143E-04   0.277E-04 0.205E-01 -.277E-04   -.847E-21 0.381E-20 0.254E-19   -.163E-07 0.845E-07 0.164E-07
   0.103E-01 0.105E-01 0.143E-04   -.202E-01 -.205E-01 -.277E-04   0.933E-21 -.452E-20 0.114E-19   -.100E-06 -.903E-07 0.164E-07
   0.103E-01 -.105E-01 -.103E-01   -.202E-01 0.205E-01 0.202E-01   0.635E-21 0.136E-19 0.424E-21   -.100E-06 0.844E-07 0.106E-06
   -.103E-01 0.105E-01 -.103E-01   0.202E-01 -.205E-01 0.202E-01   -.122E-24 -.412E-20 0.292E-19   0.101E-06 -.851E-07 0.101E-06
   -.103E-01 -.105E-01 0.142E-04   0.202E-01 0.205E-01 -.277E-04   0.148E-24 -.635E-20 0.233E-19   0.106E-06 0.843E-07 0.164E-07
   0.143E-04 0.105E-01 0.143E-04   -.277E-04 -.205E-01 -.277E-04   -.847E-21 -.155E-20 -.110E-19   0.164E-07 -.905E-07 0.164E-07
   0.143E-04 -.105E-01 -.103E-01   -.277E-04 0.205E-01 0.202E-01   -.424E-21 0.466E-20 -.339E-20   0.164E-07 0.843E-07 0.106E-06
   0.105E-01 0.105E-01 -.103E-01   -.205E-01 -.205E-01 0.202E-01   -.137E-20 0.858E-20 0.263E-19   -.851E-07 -.851E-07 0.101E-06
   0.105E-01 -.105E-01 0.143E-04   -.205E-01 0.205E-01 -.277E-04   -.771E-21 -.424E-20 0.165E-19   -.903E-07 0.843E-07 0.164E-07
   -.105E-01 0.105E-01 0.143E-04   0.205E-01 -.205E-01 -.277E-04   -.423E-21 -.452E-20 -.635E-20   0.843E-07 -.903E-07 0.164E-07
   -.105E-01 -.105E-01 -.103E-01   0.205E-01 0.205E-01 0.202E-01   -.950E-25 0.551E-20 0.157E-19   0.844E-07 0.844E-07 0.106E-06
   -.143E-04 -.143E-04 0.105E-01   0.277E-04 0.277E-04 -.205E-01   0.847E-21 -.593E-20 -.172E-19   -.163E-07 -.163E-07 -.852E-07
   -.143E-04 0.103E-01 -.105E-01   0.277E-04 -.202E-01 0.205E-01   -.127E-20 -.107E-19 0.364E-19   -.163E-07 -.100E-06 0.843E-07
   0.103E-01 -.143E-04 -.105E-01   -.202E-01 0.277E-04 0.205E-01   -.146E-20 -.381E-20 0.110E-19   -.100E-06 -.163E-07 0.843E-07
   0.103E-01 0.103E-01 0.105E-01   -.202E-01 -.202E-01 -.205E-01   0.566E-21 -.124E-19 -.290E-19   -.100E-06 -.100E-06 -.904E-07
   -.103E-01 -.143E-04 0.105E-01   0.202E-01 0.277E-04 -.205E-01   -.269E-25 -.131E-19 -.172E-19   0.101E-06 -.163E-07 -.850E-07
   -.103E-01 0.103E-01 -.105E-01   0.202E-01 -.202E-01 0.205E-01   -.120E-24 0.701E-21 -.254E-20   0.106E-06 -.100E-06 0.844E-07
   0.143E-04 -.143E-04 -.105E-01   -.277E-04 0.277E-04 0.205E-01   0.423E-21 -.140E-19 0.424E-20   0.164E-07 -.163E-07 0.845E-07
   0.143E-04 0.103E-01 0.105E-01   -.277E-04 -.202E-01 -.205E-01   0.169E-20 0.240E-19 0.192E-21   0.164E-07 -.100E-06 -.903E-07
   0.105E-01 -.143E-04 0.105E-01   -.205E-01 0.277E-04 -.205E-01   0.185E-21 -.805E-20 -.235E-19   -.850E-07 -.163E-07 -.850E-07
   0.105E-01 0.103E-01 -.105E-01   -.205E-01 -.202E-01 0.205E-01   0.165E-20 0.219E-19 0.483E-19   -.904E-07 -.100E-06 0.844E-07
   -.105E-01 -.143E-04 -.105E-01   0.205E-01 0.277E-04 0.205E-01   -.147E-24 0.169E-20 -.127E-19   0.843E-07 -.163E-07 0.843E-07
   -.105E-01 0.103E-01 0.105E-01   0.205E-01 -.202E-01 -.205E-01   -.424E-21 -.944E-20 -.998E-20   0.844E-07 -.100E-06 -.904E-07
   -.143E-04 -.103E-01 0.105E-01   0.277E-04 0.202E-01 -.205E-01   0.284E-25 0.127E-20 -.439E-19   -.163E-07 0.101E-06 -.850E-07
   -.143E-04 0.143E-04 -.105E-01   0.277E-04 -.277E-04 0.205E-01   -.424E-21 -.161E-19 -.212E-19   -.163E-07 0.164E-07 0.845E-07
   0.103E-01 -.103E-01 -.105E-01   -.202E-01 0.202E-01 0.205E-01   -.103E-20 0.508E-20 -.339E-20   -.100E-06 0.106E-06 0.844E-07
   0.103E-01 0.143E-04 0.105E-01   -.202E-01 -.277E-04 -.205E-01   -.331E-22 -.381E-20 0.106E-20   -.100E-06 0.164E-07 -.903E-07
   -.103E-01 -.103E-01 0.105E-01   0.202E-01 0.202E-01 -.205E-01   0.274E-25 0.424E-21 -.468E-19   0.101E-06 0.101E-06 -.851E-07
   -.103E-01 0.143E-04 -.105E-01   0.202E-01 -.277E-04 0.205E-01   -.148E-24 -.635E-20 -.144E-19   0.106E-06 0.164E-07 0.843E-07
   0.143E-04 -.103E-01 -.105E-01   -.277E-04 0.202E-01 0.205E-01   -.921E-25 -.395E-25 -.131E-19   0.164E-07 0.106E-06 0.843E-07
   0.143E-04 0.143E-04 0.105E-01   -.277E-04 -.277E-04 -.205E-01   0.423E-21 0.889E-20 0.570E-20   0.164E-07 0.164E-07 -.905E-07
   0.105E-01 -.103E-01 0.105E-01   -.205E-01 0.202E-01 -.205E-01   0.486E-21 0.169E-20 -.955E-20   -.851E-07 0.101E-06 -.851E-07
   0.105E-01 0.143E-04 -.105E-01   -.205E-01 -.277E-04 0.205E-01   0.120E-21 0.805E-20 -.263E-19   -.903E-07 0.164E-07 0.843E-07
   -.105E-01 -.103E-01 -.105E-01   0.205E-01 0.202E-01 0.205E-01   0.847E-21 -.508E-20 0.140E-19   0.844E-07 0.106E-06 0.844E-07
   -.105E-01 0.143E-04 0.105E-01   0.205E-01 -.277E-04 -.205E-01   -.273E-25 -.932E-20 0.332E-19   0.843E-07 0.164E-07 -.903E-07
   -.143E-04 0.105E-01 0.105E-01   0.277E-04 -.205E-01 -.205E-01   0.879E-27 -.586E-20 -.125E-19   -.163E-07 -.850E-07 -.850E-07
   -.143E-04 -.105E-01 -.105E-01   0.277E-04 0.205E-01 0.205E-01   -.424E-21 -.102E-19 -.199E-19   -.163E-07 0.843E-07 0.843E-07
   0.103E-01 0.105E-01 -.105E-01   -.202E-01 -.205E-01 0.205E-01   0.789E-21 0.200E-20 -.123E-19   -.100E-06 -.904E-07 0.844E-07
   0.103E-01 -.105E-01 0.105E-01   -.202E-01 0.205E-01 -.205E-01   0.114E-20 0.889E-20 -.404E-20   -.100E-06 0.844E-07 -.904E-07
   -.103E-01 0.105E-01 0.105E-01   0.202E-01 -.205E-01 -.205E-01   -.400E-28 -.629E-20 -.527E-19   0.101E-06 -.851E-07 -.851E-07
   -.103E-01 -.105E-01 -.105E-01   0.202E-01 0.205E-01 0.205E-01   -.934E-25 -.254E-20 -.127E-20   0.106E-06 0.844E-07 0.844E-07
   0.143E-04 0.105E-01 -.105E-01   -.277E-04 -.205E-01 0.205E-01   -.119E-24 0.200E-20 0.220E-19   0.164E-07 -.903E-07 0.843E-07
   0.143E-04 -.105E-01 0.105E-01   -.277E-04 0.205E-01 -.205E-01   0.847E-21 0.212E-20 -.786E-20   0.164E-07 0.843E-07 -.903E-07
   0.105E-01 0.105E-01 0.105E-01   -.205E-01 -.205E-01 -.205E-01   -.334E-21 0.218E-20 -.223E-19   -.851E-07 -.851E-07 -.851E-07
   0.105E-01 -.105E-01 -.105E-01   -.205E-01 0.205E-01 0.205E-01   -.602E-21 -.102E-19 0.847E-21   -.904E-07 0.844E-07 0.844E-07
   -.105E-01 0.105E-01 -.105E-01   0.205E-01 -.205E-01 0.205E-01   0.423E-21 0.920E-20 -.720E-20   0.844E-07 -.904E-07 0.844E-07
   -.105E-01 -.105E-01 0.105E-01   0.205E-01 0.205E-01 -.205E-01   -.423E-21 0.254E-20 -.575E-20   0.844E-07 0.844E-07 -.904E-07
 -----------------------------------------------------------------------------------------------
   -.524E-08 -.521E-08 -.529E-08   0.490E-12 -.717E-12 0.120E-11   -.970E-20 -.212E-18 -.289E-18   0.483E-08 0.482E-08 0.482E-08
 
 
 POSITION                                       TOTAL-FORCE (eV/Angst)
 -----------------------------------------------------------------------------------
     -0.00000     -0.00000     -0.00000         0.000000     -0.000000     -0.000000
     -0.00000      1.72294      1.72294         0.000000     -0.000000     -0.000000
      1.72294     -0.00000      1.72294         0.000000     -0.000000      0.000000
      1.72294      1.72294      0.00000        -0.000000     -0.000000     -0.000000
      3.44581     -0.00000      0.00000        -0.000000      0.000000      0.000000
      3.44581      1.72294      1.72294         0.000000     -0.000000      0.000000
      5.16875     -0.00000      1.72294         0.000000     -0.000000      0.000000
      5.16875      1.72294      0.00000        -0.000000     -0.000000      0.000000
      6.89170     -0.00000      0.00000        -0.000000     -0.000000      0.000000
      6.89170      1.72294      1.72294        -0.000000     -0.000000      0.000000
      8.61457     -0.00000      1.72294         0.000000      0.000000      0.000000
      8.61457      1.72294      0.00000        -0.000000     -0.000000      0.000000
      0.00000      3.44581     -0.00000         0.000000      0.000000      0.000000
     -0.00000      5.16875      1.72294         0.000000     -0.000000      0.000000
      1.72294      3.44581      1.72294         0.000000      0.000000      0.000000
      1.72294      5.16875     -0.00000         0.000000      0.000000      0.000000
      3.44581      3.44581      0.00000         0.000000     -0.000000      0.000000
      3.44581      5.16875      1.72294        -0.000000     -0.000000     -0.000000
      5.16875      3.44581      1.72294         0.000000      0.000000      0.000000
      5.16875      5.16875      0.00000         0.000000     -0.000000      0.000000
      6.89170      3.44581      0.00000        -0.000000     -0.000000      0.000000
      6.89170      5.16875      1.72294        -0.000000      0.000000      0.000000
      8.61457      3.44581      1.72294        -0.000000     -0.000000     -0.000000
      8.61457      5.16875      0.00000        -0.000000      0.000000      0.000000
      0.00000      6.89170     -0.00000         0.000000      0.000000     -0.000000
      0.00000      8.61457      1.72294         0.000000      0.000000     -0.000000
      1.72294      6.89170      1.72294        -0.000000     -0.000000     -0.000000
      1.72294      8.61457     -0.00000        -0.000000      0.000000     -0.000000
      3.44581      6.89170     -0.00000        -0.000000      0.000000     -0.000000
      3.44581      8.61457      1.72294        -0.000000      0.000000      0.000000
      5.16875      6.89170      1.72294         0.000000      0.000000     -0.000000
      5.16875      8.61457      0.00000         0.000000     -0.000000     -0.000000
      6.89170      6.89170      0.00000        -0.000000      0.000000     -0.000000
      6.89170      8.61457      1.72294        -0.000000      0.000000      0.000000
      8.61457      6.89170      1.72294         0.000000      0.000000      0.000000
      8.61457      8.61457      0.00000        -0.000000      0.000000      0.000000
     -0.00000     -0.00000      3.44581         0.000000     -0.000000     -0.000000
     -0.00000      1.72294      5.16875         0.000000     -0.000000     -0.000000
      1.72294     -0.00000      5.16875        -0.000000     -0.000000     -0.000000
      1.72294      1.72294      3.44581         0.000000     -0.000000      0.000000
      3.44581     -0.00000      3.44581        -0.000000      0.000000     -0.000000
      3.44581      1.72294      5.16875         0.000000     -0.000000     -0.000000
      5.16875     -0.00000      5.16875        -0.000000      0.000000      0.000000
      5.16875      1.72294      3.44581         0.000000     -0.000000     -0.000000
      6.89170     -0.00000      3.44581        -0.000000      0.000000      0.000000
      6.89170      1.72294      5.16875        -0.000000      0.000000     -0.000000
      8.61457     -0.00000      5.16875        -0.000000     -0.000000     -0.000000
      8.61457      1.72294      3.44581        -0.000000     -0.000000     -0.000000
     -0.00000      3.44581      3.44581         0.000000     -0.000000     -0.000000
     -0.00000      5.16875      5.16875         0.000000     -0.000000      0.000000
      1.72294      3.44581      5.16875         0.000000     -0.000000      0.000000
      1.72294      5.16875      3.44581         0.000000     -0.000000     -0.000000
      3.44581      3.44581      3.44581        -0.000000     -0.000000     -0.000000
      3.44581      5.16875      5.16875        -0.000000     -0.000000     -0.000000
      5.16875      3.44581      5.16875         0.000000      0.000000      0.000000
      5.16875      5.16875      3.44581        -0.000000      0.000000     -0.000000
      6.89170      3.44581      3.44581        -0.000000     -0.000000     -0.000000
      6.89170      5.16875      5.16875        -0.000000      0.000000      0.000000
      8.61457      3.44581      5.16875        -0.000000      0.000000     -0.000000
      8.61457      5.16875      3.44581        -0.000000      0.000000     -0.000000
     -0.00000      6.89170      3.44581         0.000000     -0.000000      0.000000
     -0.00000      8.61457      5.16875         0.000000     -0.000000     -0.000000
      1.72294      6.89170      5.16875        -0.000000     -0.000000     -0.000000
      1.72294      8.61457      3.44581         0.000000     -0.000000      0.000000
      3.44581      6.89170      3.44581         0.000000      0.000000      0.000000
      3.44581      8.61457      5.16875         0.000000      0.000000      0.000000
      5.16875      6.89170      5.16875         0.000000     -0.000000      0.000000
      5.16875      8.61457      3.44581        -0.000000      0.000000     -0.000000
      6.89170      6.89170      3.44581        -0.000000      0.000000      0.000000
      6.89170      8.61457      5.16875        -0.000000      0.000000      0.000000
      8.61457      6.89170      5.16875         0.000000      0.000000      0.000000
      8.61457      8.61457      3.44581         0.000000      0.000000     -0.000000
     -0.00000     -0.00000      6.89170         0.000000      0.000000      0.000000
     -0.00000      1.72294      8.61457         0.000000     -0.000000      0.000000
      1.72294     -0.00000      8.61457         0.000000     -0.000000     -0.000000
      1.72294      1.72294      6.89170         0.000000     -0.000000      0.000000
      3.44581     -0.00000      6.89170         0.000000      0.000000      0.000000
      3.44581      1.72294      8.61457         0.000000     -0.000000      0.000000
      5.16875     -0.00000      8.61457         0.000000      0.000000      0.000000
      5.16875      1.72294      6.89170        -0.000000     -0.000000      0.000000
      6.89170     -0.00000      6.89170        -0.000000      0.000000     -0.000000
      6.89170      1.72294      8.61457        -0.000000      0.000000      0.000000
      8.61457     -0.00000      8.61457         0.000000      0.000000     -0.000000
      8.61457      1.72294      6.89170        -0.000000      0.000000      0.000000
     -0.00000      3.44581      6.89170         0.000000     -0.000000     -0.000000
     -0.00000      5.16875      8.61457         0.000000     -0.000000     -0.000000
      1.72294      3.44581      8.61457        -0.000000     -0.000000     -0.000000
      1.72294      5.16875      6.89170         0.000000      0.000000      0.000000
      3.44581      3.44581      6.89170         0.000000     -0.000000      0.000000
      3.44581      5.16875      8.61457         0.000000     -0.000000     -0.000000
      5.16875      3.44581      8.61457         0.000000      0.000000      0.000000
      5.16875      5.16875      6.89170         0.000000      0.000000      0.000000
      6.89170      3.44581      6.89170        -0.000000     -0.000000      0.000000
      6.89170      5.16875      8.61457        -0.000000      0.000000     -0.000000
      8.61457      3.44581      8.61457        -0.000000     -0.000000     -0.000000
      8.61457      5.16875      6.89170        -0.000000      0.000000      0.000000
     -0.00000      6.89170      6.89170         0.000000      0.000000     -0.000000
     -0.00000      8.61457      8.61457         0.000000      0.000000      0.000000
      1.72294      6.89170      8.61457         0.000000     -0.000000      0.000000
      1.72294      8.61457      6.89170        -0.000000      0.000000      0.000000
      3.44581      6.89170      6.89170        -0.000000      0.000000     -0.000000
      3.44581      8.61457      8.61457         0.000000      0.000000      0.000000
      5.16875      6.89170      8.61457        -0.000000      0.000000     -0.000000
      5.16875      8.61457      6.89170         0.000000      0.000000      0.000000
      6.89170      6.89170      6.89170        -0.000000      0.000000     -0.000000
      6.89170      8.61457      8.61457        -0.000000      0.000000     -0.000000
      8.61457      6.89170      8.61457         0.000000      0.000000     -0.000000
      8.61457      8.61457      6.89170        -0.000000      0.000000      0.000000
 -----------------------------------------------------------------------------------
    total drift:                               -0.000000     -0.000000     -0.000000


--------------------------------------------------------------------------------------------------------



  FREE ENERGIE OF THE ION-ELECTRON SYSTEM (eV)
  ---------------------------------------------------
  free  energy   TOTEN  =      -880.43737093 eV

  energy  without entropy=     -880.36773287  energy(sigma->0) =     -880.41415824
 
 d Force = 0.0000000E+00[ 0.000E+00, 0.000E+00]  d Energy = 0.1704869E-02-0.170E-02
 d Force = 0.0000000E+00[ 0.000E+00, 0.000E+00]  d Ewald  = 0.2872503E+02-0.287E+02


--------------------------------------------------------------------------------------------------------


    POTLOK:  cpu time    0.3437: real time    0.3438


--------------------------------------------------------------------------------------------------------




--------------------------------------------------------------------------------------------------------


  
 reached required accuracy - stopping structural energy minimisation
     LOOP+:  cpu time  383.9621: real time  384.0739
    4ORBIT:  cpu time    0.0000: real time    0.0000

 total amount of memory used by VASP MPI-rank0   161250. kBytes
=======================================================================

   base      :      30000. kBytes
   nonlr-proj:      31339. kBytes
   fftplans  :      15398. kBytes
   grid      :      21835. kBytes
   one-center:        419. kBytes
   wavefun   :      62259. kBytes
 
  
  
 General timing and accounting informations for this job:
 ========================================================
  
                  Total CPU time used (sec):     2074.310
                            User time (sec):     2072.445
                          System time (sec):        1.866
                         Elapsed time (sec):     2074.949
  
                   Maximum memory used (kb):      207096.
                   Average memory used (kb):           0.
  
                          Minor page faults:       277545
                          Major page faults:            0
                 Voluntary context switches:          691
