<?xml version="1.0" encoding="ISO-8859-1"?>
<modeling>
 <generator>
  <i name="program" type="string">vasp </i>
  <i name="version" type="string">5.4.4.18Apr17-6-g9f103f2a35  </i>
  <i name="subversion" type="string">(build Aug 17 2017 06:00:38) complex            parallel </i>
  <i name="platform" type="string">LinuxIFC </i>
  <i name="date" type="string">2019 07 12 </i>
  <i name="time" type="string">14:57:58 </i>
 </generator>
 <incar>
  <i type="string" name="SYSTEM">Opt</i>
  <i type="int" name="ISTART">     0</i>
  <i type="string" name="PREC">normal</i>
  <i type="string" name="ALGO"> Fast</i>
  <i type="int" name="ISPIN">     1</i>
  <i type="int" name="ICHARG">     2</i>
  <i type="int" name="NELM">   400</i>
  <i type="int" name="IBRION">     2</i>
  <i name="EDIFF">      0.00000100</i>
  <i name="EDIFFG">     -0.01000000</i>
  <i type="int" name="NSW">   100</i>
  <i type="int" name="ISIF">     3</i>
  <i name="ENCUT">    300.00000000</i>
  <i type="int" name="NGX">    72</i>
  <i type="int" name="NGY">    72</i>
  <i type="int" name="NGZ">    72</i>
  <i name="POTIM">      0.50000000</i>
  <i type="string" name="LREAL">Auto</i>
  <i type="logical" name="LWAVE"> F  </i>
  <i type="logical" name="LCHARG"> F  </i>
  <v type="int" name="KPOINT_BSE">    -1     0     0     0</v>
  <i type="int" name="NELM">   400</i>
 </incar>
 <structure name="primitive_cell" >
  <crystal>
   <varray name="basis" >
    <v>       3.44492529       0.00000000       0.00000000 </v>
    <v>       0.00000000       3.44492529       0.00000000 </v>
    <v>       0.00000000       0.00000000       3.44492524 </v>
   </varray>
   <i name="volume">     40.88268566 </i>
   <varray name="rec_basis" >
    <v>       0.29028206       0.00000000       0.00000000 </v>
    <v>       0.00000000       0.29028206       0.00000000 </v>
    <v>       0.00000000       0.00000000       0.29028206 </v>
   </varray>
  </crystal>
  <varray name="positions" >
   <v>       0.00000000       0.00000000       0.00000000 </v>
   <v>       0.00000000      -0.49998976      -0.49998975 </v>
   <v>      -0.49998976       0.00000000      -0.49998975 </v>
   <v>      -0.49998976      -0.49998976       0.00000000 </v>
  </varray>
 </structure>
 <varray name="primitive_index" >
  <v type="int" >        1 </v>
  <v type="int" >        2 </v>
  <v type="int" >        3 </v>
  <v type="int" >        4 </v>
 </varray>
 <kpoints>
  <generation param="Monkhorst-Pack">
   <v type="int" name="divisions">       4        4        4 </v>
   <v name="usershift">      0.00000000       0.00000000       0.00000000 </v>
   <v name="genvec1">      0.25000000       0.00000000       0.00000000 </v>
   <v name="genvec2">      0.00000000       0.25000000       0.00000000 </v>
   <v name="genvec3">      0.00000000       0.00000000       0.25000000 </v>
   <v name="shift">      0.50000000       0.50000000       0.50000000 </v>
  </generation>
  <varray name="kpointlist" >
   <v>       0.12500000       0.12500000       0.12500000 </v>
   <v>       0.37500000       0.12500000       0.12500000 </v>
   <v>       0.37500000       0.37500000       0.12500000 </v>
   <v>       0.37500000       0.37500000       0.37500000 </v>
  </varray>
  <varray name="weights" >
   <v>       0.12500000 </v>
   <v>       0.37500000 </v>
   <v>       0.37500000 </v>
   <v>       0.12500000 </v>
  </varray>
 </kpoints>
 <parameters>
  <separator name="general" >
   <i type="string" name="SYSTEM">Opt</i>
   <i type="logical" name="LCOMPAT"> F  </i>
  </separator>
  <separator name="electronic" >
   <i type="string" name="PREC">normal</i>
   <i name="ENMAX">    300.00000000</i>
   <i name="ENAUG">    511.36800000</i>
   <i name="EDIFF">      0.00000100</i>
   <i type="int" name="IALGO">    68</i>
   <i type="int" name="IWAVPR">    11</i>
   <i type="int" name="NBANDS">   518</i>
   <i name="NELECT">    864.00000000</i>
   <i type="int" name="TURBO">     0</i>
   <i type="int" name="IRESTART">     0</i>
   <i type="int" name="NREBOOT">     0</i>
   <i type="int" name="NMIN">     0</i>
   <i name="EREF">      0.00000000</i>
   <separator name="electronic smearing" >
    <i type="int" name="ISMEAR">     1</i>
    <i name="SIGMA">      0.20000000</i>
    <i name="KSPACING">      0.50000000</i>
    <i type="logical" name="KGAMMA"> T  </i>
   </separator>
   <separator name="electronic projectors" >
    <i type="logical" name="LREAL"> T  </i>
    <v name="ROPT">     -0.00050000</v>
    <i type="int" name="LMAXPAW">  -100</i>
    <i type="int" name="LMAXMIX">     2</i>
    <i type="logical" name="NLSPLINE"> F  </i>
   </separator>
   <separator name="electronic startup" >
    <i type="int" name="ISTART">     0</i>
    <i type="int" name="ICHARG">     2</i>
    <i type="int" name="INIWAV">     1</i>
   </separator>
   <separator name="electronic spin" >
    <i type="int" name="ISPIN">     1</i>
    <i type="logical" name="LNONCOLLINEAR"> F  </i>
    <v name="MAGMOM">      1.00000000      1.00000000      1.00000000      1.00000000      1.00000000      1.00000000      1.00000000      1.00000000      1.00000000      1.00000000      1.00000000      1.00000000      1.00000000      1.00000000      1.00000000      1.00000000      1.00000000      1.00000000      1.00000000      1.00000000
      1.00000000      1.00000000      1.00000000      1.00000000      1.00000000      1.00000000      1.00000000      1.00000000      1.00000000      1.00000000      1.00000000      1.00000000      1.00000000      1.00000000      1.00000000      1.00000000      1.00000000      1.00000000      1.00000000      1.00000000
      1.00000000      1.00000000      1.00000000      1.00000000      1.00000000      1.00000000      1.00000000      1.00000000      1.00000000      1.00000000      1.00000000      1.00000000      1.00000000      1.00000000      1.00000000      1.00000000      1.00000000      1.00000000      1.00000000      1.00000000
      1.00000000      1.00000000      1.00000000      1.00000000      1.00000000      1.00000000      1.00000000      1.00000000      1.00000000      1.00000000      1.00000000      1.00000000      1.00000000      1.00000000      1.00000000      1.00000000      1.00000000      1.00000000      1.00000000      1.00000000
      1.00000000      1.00000000      1.00000000      1.00000000      1.00000000      1.00000000      1.00000000      1.00000000      1.00000000      1.00000000      1.00000000      1.00000000      1.00000000      1.00000000      1.00000000      1.00000000      1.00000000      1.00000000      1.00000000      1.00000000
      1.00000000      1.00000000      1.00000000      1.00000000      1.00000000      1.00000000      1.00000000      1.00000000</v>
    <i name="NUPDOWN">     -1.00000000</i>
    <i type="logical" name="LSORBIT"> F  </i>
    <v name="SAXIS">      0.00000000      0.00000000      1.00000000</v>
    <i type="logical" name="LSPIRAL"> F  </i>
    <v name="QSPIRAL">      0.00000000      0.00000000      0.00000000</v>
    <i type="logical" name="LZEROZ"> F  </i>
   </separator>
   <separator name="electronic exchange-correlation" >
    <i type="logical" name="LASPH"> F  </i>
    <i type="logical" name="LMETAGGA"> F  </i>
   </separator>
   <separator name="electronic convergence" >
    <i type="int" name="NELM">   400</i>
    <i type="int" name="NELMDL">    -5</i>
    <i type="int" name="NELMIN">     2</i>
    <i name="ENINI">    300.00000000</i>
    <separator name="electronic convergence detail" >
     <i type="logical" name="LDIAG"> T  </i>
     <i type="logical" name="LSUBROT"> F  </i>
     <i name="WEIMIN">      0.00100000</i>
     <i name="EBREAK">      0.00000000</i>
     <i name="DEPER">      0.30000000</i>
     <i type="int" name="NRMM">     4</i>
     <i name="TIME">      0.40000000</i>
    </separator>
   </separator>
   <separator name="electronic mixer" >
    <i name="AMIX">      0.40000000</i>
    <i name="BMIX">      1.00000000</i>
    <i name="AMIN">      0.10000000</i>
    <i name="AMIX_MAG">      1.60000000</i>
    <i name="BMIX_MAG">      1.00000000</i>
    <separator name="electronic mixer details" >
     <i type="int" name="IMIX">     4</i>
     <i type="logical" name="MIXFIRST"> F  </i>
     <i type="int" name="MAXMIX">   -45</i>
     <i name="WC">    100.00000000</i>
     <i type="int" name="INIMIX">     1</i>
     <i type="int" name="MIXPRE">     1</i>
     <i type="int" name="MREMOVE">     5</i>
    </separator>
   </separator>
   <separator name="electronic dipolcorrection" >
    <i type="logical" name="LDIPOL"> F  </i>
    <i type="logical" name="LMONO"> F  </i>
    <i type="int" name="IDIPOL">     0</i>
    <i name="EPSILON">      1.00000000</i>
    <v name="DIPOL">   -100.00000000   -100.00000000   -100.00000000</v>
    <i name="EFIELD">      0.00000000</i>
   </separator>
  </separator>
  <separator name="grids" >
   <i type="int" name="NGX">    72</i>
   <i type="int" name="NGY">    72</i>
   <i type="int" name="NGZ">    72</i>
   <i type="int" name="NGXF">   144</i>
   <i type="int" name="NGYF">   144</i>
   <i type="int" name="NGZF">   144</i>
   <i type="logical" name="ADDGRID"> F  </i>
  </separator>
  <separator name="ionic" >
   <i type="int" name="NSW">   100</i>
   <i type="int" name="IBRION">     2</i>
   <i type="int" name="MDALGO">     0</i>
   <i type="int" name="ISIF">     3</i>
   <i name="PSTRESS">      0.00000000</i>
   <i name="EDIFFG">     -0.01000000</i>
   <i type="int" name="NFREE">     1</i>
   <i name="POTIM">      0.50000000</i>
   <i name="SMASS">     -3.00000000</i>
   <i name="SCALEE">      1.00000000</i>
  </separator>
  <separator name="ionic md" >
   <i name="TEBEG">      0.00010000</i>
   <i name="TEEND">      0.00010000</i>
   <i type="int" name="NBLOCK">     1</i>
   <i type="int" name="KBLOCK">   100</i>
   <i type="int" name="NPACO">   256</i>
   <i name="APACO">     16.00000000</i>
  </separator>
  <separator name="symmetry" >
   <i type="int" name="ISYM">     2</i>
   <i name="SYMPREC">      0.00001000</i>
  </separator>
  <separator name="dos" >
   <i type="int" name="LORBIT">     0</i>
   <v name="RWIGS">     -1.00000000</v>
   <i type="int" name="NEDOS">   301</i>
   <i name="EMIN">     10.00000000</i>
   <i name="EMAX">    -10.00000000</i>
   <i name="EFERMI">      0.00000000</i>
  </separator>
  <separator name="writing" >
   <i type="int" name="NWRITE">     2</i>
   <i type="logical" name="LWAVE"> F  </i>
   <i type="logical" name="LDOWNSAMPLE"> F  </i>
   <i type="logical" name="LCHARG"> F  </i>
   <i type="logical" name="LPARD"> F  </i>
   <i type="logical" name="LVTOT"> F  </i>
   <i type="logical" name="LVHAR"> F  </i>
   <i type="logical" name="LELF"> F  </i>
   <i type="logical" name="LOPTICS"> F  </i>
   <v name="STM">      0.00000000      0.00000000      0.00000000      0.00000000      0.00000000      0.00000000      0.00000000</v>
  </separator>
  <separator name="performance" >
   <i type="int" name="NPAR">     2</i>
   <i type="int" name="NSIM">     4</i>
   <i type="int" name="NBLK">    -1</i>
   <i type="logical" name="LPLANE"> T  </i>
   <i type="logical" name="LSCALAPACK"> T  </i>
   <i type="logical" name="LSCAAWARE"> F  </i>
   <i type="logical" name="LSCALU"> F  </i>
   <i type="logical" name="LASYNC"> F  </i>
   <i type="logical" name="LORBITALREAL"> F  </i>
  </separator>
  <separator name="miscellaneous" >
   <i type="int" name="IDIOT">     3</i>
   <i type="int" name="ISPECIAL">     0</i>
   <i type="logical" name="LMUSIC"> F  </i>
   <v name="POMASS">     55.84700000</v>
   <v name="DARWINR">      0.00000000</v>
   <v name="DARWINV">      1.00000000</v>
   <i type="logical" name="LCORR"> T  </i>
  </separator>
  <i type="logical" name="GGA_COMPAT"> T  </i>
  <i type="logical" name="LBERRY"> F  </i>
  <i type="int" name="ICORELEVEL">     0</i>
  <i type="logical" name="LDAU"> F  </i>
  <i type="int" name="I_CONSTRAINED_M">     0</i>
  <separator name="electronic exchange-correlation" >
   <i type="string" name="GGA">--</i>
   <i type="int" name="VOSKOWN">     0</i>
   <i type="logical" name="LHFCALC"> F  </i>
   <i type="string" name="PRECFOCK"></i>
   <i type="logical" name="LSYMGRAD"> F  </i>
   <i type="logical" name="LHFONE"> F  </i>
   <i type="logical" name="LRHFCALC"> F  </i>
   <i type="logical" name="LTHOMAS"> F  </i>
   <i type="logical" name="LMODELHF"> F  </i>
   <i name="ENCUT4O">     -1.00000000</i>
   <i type="int" name="EXXOEP">     0</i>
   <i type="int" name="FOURORBIT">     0</i>
   <i name="AEXX">      0.00000000</i>
   <i name="HFALPHA">      0.00000000</i>
   <i name="MCALPHA">      0.00000000</i>
   <i name="ALDAX">      1.00000000</i>
   <i name="AGGAX">      1.00000000</i>
   <i name="ALDAC">      1.00000000</i>
   <i name="AGGAC">      1.00000000</i>
   <i type="int" name="NKREDX">     1</i>
   <i type="int" name="NKREDY">     1</i>
   <i type="int" name="NKREDZ">     1</i>
   <i type="logical" name="SHIFTRED"> F  </i>
   <i type="logical" name="ODDONLY"> F  </i>
   <i type="logical" name="EVENONLY"> F  </i>
   <i type="int" name="LMAXFOCK">     0</i>
   <i type="int" name="NMAXFOCKAE">     0</i>
   <i type="logical" name="LFOCKAEDFT"> F  </i>
   <i name="HFSCREEN">      0.00000000</i>
   <i name="HFSCREENC">      0.00000000</i>
   <i type="int" name="NBANDSGWLOW">     0</i>
  </separator>
  <separator name="vdW DFT" >
   <i type="logical" name="LUSE_VDW"> F  </i>
   <i name="Zab_VDW">     -0.84910000</i>
   <i name="PARAM1">      0.12340000</i>
   <i name="PARAM2">      1.00000000</i>
   <i name="PARAM3">      0.00000000</i>
  </separator>
  <separator name="model GW" >
   <i type="int" name="MODEL_GW">     0</i>
   <i name="MODEL_EPS0">      6.13252964</i>
   <i name="MODEL_ALPHA">      1.00000000</i>
  </separator>
  <separator name="linear response parameters" >
   <i type="logical" name="LEPSILON"> F  </i>
   <i type="logical" name="LRPA"> F  </i>
   <i type="logical" name="LNABLA"> F  </i>
   <i type="logical" name="LVEL"> F  </i>
   <i type="int" name="KINTER">     0</i>
   <i name="CSHIFT">      0.10000000</i>
   <i name="OMEGAMAX">     -1.00000000</i>
   <i name="DEG_THRESHOLD">      0.00200000</i>
   <i name="RTIME">     -0.10000000</i>
   <i name="WPLASMAI">      0.00000000</i>
   <v name="DFIELD">      0.00000000      0.00000000      0.00000000</v>
   <v name="WPLASMA">      0.00000000      0.00000000      0.00000000      0.00000000      0.00000000      0.00000000      0.00000000      0.00000000      0.00000000</v>
  </separator>
  <separator name="orbital magnetization" >
   <i type="logical" name="NUCIND"> F  </i>
   <v name="MAGPOS">      0.00000000      0.00000000      0.00000000</v>
   <i type="logical" name="LNICSALL"> T  </i>
   <i type="logical" name="ORBITALMAG"> F  </i>
   <i type="logical" name="LMAGBLOCH"> F  </i>
   <i type="logical" name="LCHIMAG"> F  </i>
   <i type="logical" name="LGAUGE"> T  </i>
   <i type="int" name="MAGATOM">     0</i>
   <v name="MAGDIPOL">      0.00000000      0.00000000      0.00000000</v>
   <v name="AVECCONST">      0.00000000      0.00000000      0.00000000</v>
  </separator>
  <separator name="response functions" >
   <i type="logical" name="LADDER"> F  </i>
   <i type="logical" name="LRPAFORCE"> F  </i>
   <i type="logical" name="LFXC"> F  </i>
   <i type="logical" name="LHARTREE"> T  </i>
   <i type="int" name="IBSE">     0</i>
   <v type="int" name="KPOINT">    -1     0     0     0</v>
   <i type="logical" name="LTCTE"> F  </i>
   <i type="logical" name="LTETE"> F  </i>
   <i type="logical" name="LTRIPLET"> F  </i>
   <i type="logical" name="LFXCEPS"> F  </i>
   <i type="logical" name="LFXHEG"> F  </i>
   <i type="int" name="NATURALO">     2</i>
   <i type="logical" name="L2ORDER"> F  </i>
   <i type="logical" name="LMP2LT"> F  </i>
   <i type="logical" name="LUSEW"> F  </i>
   <i name="ENCUTGW">     -2.00000000</i>
   <i name="ENCUTGWSOFT">     -2.00000000</i>
   <i name="ENCUTLF">     -1.00000000</i>
   <i type="int" name="LMAXMP2">    -1</i>
   <i name="SCISSOR">      0.00000000</i>
   <i type="int" name="NOMEGA">     0</i>
   <i type="int" name="NOMEGAR">     0</i>
   <i type="int" name="NBANDSGW">    -1</i>
   <i type="int" name="NBANDSO">    -1</i>
   <i type="int" name="NBANDSV">    -1</i>
   <i type="int" name="NELM">   400</i>
   <i type="int" name="NELMHF">     1</i>
   <i type="int" name="DIM">     3</i>
   <i type="int" name="ANTIRES">     0</i>
   <i name="OMEGAMAX">    -30.00000000</i>
   <i name="OMEGAMIN">    -30.00000000</i>
   <i name="OMEGATL">   -200.00000000</i>
   <i type="int" name="OMEGAGRID">   140</i>
   <i name="CSHIFT">     -0.10000000</i>
   <i type="logical" name="SELFENERGY"> F  </i>
   <i type="logical" name="LSPECTRAL"> F  </i>
   <i type="logical" name="LSPECTRALGW"> F  </i>
   <i type="logical" name="LSINGLES"> F  </i>
   <i type="logical" name="LFERMIGW"> F  </i>
   <i type="logical" name="ODDONLYGW"> F  </i>
   <i type="logical" name="EVENONLYGW"> F  </i>
   <i type="int" name="NKREDLFX">     1</i>
   <i type="int" name="NKREDLFY">     1</i>
   <i type="int" name="NKREDLFZ">     1</i>
   <i type="int" name="MAXMEM">  2800</i>
   <i type="int" name="TELESCOPE">     0</i>
   <i type="int" name="TAUPAR">     1</i>
   <i type="int" name="OMEGAPAR">    -1</i>
   <i name="LAMBDA">      1.00000000</i>
  </separator>
  <separator name="External order field" >
   <i name="OFIELD_KAPPA">      0.00000000</i>
   <v name="OFIELD_K">      0.00000000      0.00000000      0.00000000</v>
   <i name="OFIELD_Q6_NEAR">      0.00000000</i>
   <i name="OFIELD_Q6_FAR">      0.00000000</i>
   <i name="OFIELD_A">      0.00000000</i>
  </separator>
 </parameters>
 <atominfo>
  <atoms>     108 </atoms>
  <types>       1 </types>
  <array name="atoms" >
   <dimension dim="1">ion</dimension>
   <field type="string">element</field>
   <field type="int">atomtype</field>
   <set>
    <rc><c>Fe</c><c>   1</c></rc>
    <rc><c>Fe</c><c>   1</c></rc>
    <rc><c>Fe</c><c>   1</c></rc>
    <rc><c>Fe</c><c>   1</c></rc>
    <rc><c>Fe</c><c>   1</c></rc>
    <rc><c>Fe</c><c>   1</c></rc>
    <rc><c>Fe</c><c>   1</c></rc>
    <rc><c>Fe</c><c>   1</c></rc>
    <rc><c>Fe</c><c>   1</c></rc>
    <rc><c>Fe</c><c>   1</c></rc>
    <rc><c>Fe</c><c>   1</c></rc>
    <rc><c>Fe</c><c>   1</c></rc>
    <rc><c>Fe</c><c>   1</c></rc>
    <rc><c>Fe</c><c>   1</c></rc>
    <rc><c>Fe</c><c>   1</c></rc>
    <rc><c>Fe</c><c>   1</c></rc>
    <rc><c>Fe</c><c>   1</c></rc>
    <rc><c>Fe</c><c>   1</c></rc>
    <rc><c>Fe</c><c>   1</c></rc>
    <rc><c>Fe</c><c>   1</c></rc>
    <rc><c>Fe</c><c>   1</c></rc>
    <rc><c>Fe</c><c>   1</c></rc>
    <rc><c>Fe</c><c>   1</c></rc>
    <rc><c>Fe</c><c>   1</c></rc>
    <rc><c>Fe</c><c>   1</c></rc>
    <rc><c>Fe</c><c>   1</c></rc>
    <rc><c>Fe</c><c>   1</c></rc>
    <rc><c>Fe</c><c>   1</c></rc>
    <rc><c>Fe</c><c>   1</c></rc>
    <rc><c>Fe</c><c>   1</c></rc>
    <rc><c>Fe</c><c>   1</c></rc>
    <rc><c>Fe</c><c>   1</c></rc>
    <rc><c>Fe</c><c>   1</c></rc>
    <rc><c>Fe</c><c>   1</c></rc>
    <rc><c>Fe</c><c>   1</c></rc>
    <rc><c>Fe</c><c>   1</c></rc>
    <rc><c>Fe</c><c>   1</c></rc>
    <rc><c>Fe</c><c>   1</c></rc>
    <rc><c>Fe</c><c>   1</c></rc>
    <rc><c>Fe</c><c>   1</c></rc>
    <rc><c>Fe</c><c>   1</c></rc>
    <rc><c>Fe</c><c>   1</c></rc>
    <rc><c>Fe</c><c>   1</c></rc>
    <rc><c>Fe</c><c>   1</c></rc>
    <rc><c>Fe</c><c>   1</c></rc>
    <rc><c>Fe</c><c>   1</c></rc>
    <rc><c>Fe</c><c>   1</c></rc>
    <rc><c>Fe</c><c>   1</c></rc>
    <rc><c>Fe</c><c>   1</c></rc>
    <rc><c>Fe</c><c>   1</c></rc>
    <rc><c>Fe</c><c>   1</c></rc>
    <rc><c>Fe</c><c>   1</c></rc>
    <rc><c>Fe</c><c>   1</c></rc>
    <rc><c>Fe</c><c>   1</c></rc>
    <rc><c>Fe</c><c>   1</c></rc>
    <rc><c>Fe</c><c>   1</c></rc>
    <rc><c>Fe</c><c>   1</c></rc>
    <rc><c>Fe</c><c>   1</c></rc>
    <rc><c>Fe</c><c>   1</c></rc>
    <rc><c>Fe</c><c>   1</c></rc>
    <rc><c>Fe</c><c>   1</c></rc>
    <rc><c>Fe</c><c>   1</c></rc>
    <rc><c>Fe</c><c>   1</c></rc>
    <rc><c>Fe</c><c>   1</c></rc>
    <rc><c>Fe</c><c>   1</c></rc>
    <rc><c>Fe</c><c>   1</c></rc>
    <rc><c>Fe</c><c>   1</c></rc>
    <rc><c>Fe</c><c>   1</c></rc>
    <rc><c>Fe</c><c>   1</c></rc>
    <rc><c>Fe</c><c>   1</c></rc>
    <rc><c>Fe</c><c>   1</c></rc>
    <rc><c>Fe</c><c>   1</c></rc>
    <rc><c>Fe</c><c>   1</c></rc>
    <rc><c>Fe</c><c>   1</c></rc>
    <rc><c>Fe</c><c>   1</c></rc>
    <rc><c>Fe</c><c>   1</c></rc>
    <rc><c>Fe</c><c>   1</c></rc>
    <rc><c>Fe</c><c>   1</c></rc>
    <rc><c>Fe</c><c>   1</c></rc>
    <rc><c>Fe</c><c>   1</c></rc>
    <rc><c>Fe</c><c>   1</c></rc>
    <rc><c>Fe</c><c>   1</c></rc>
    <rc><c>Fe</c><c>   1</c></rc>
    <rc><c>Fe</c><c>   1</c></rc>
    <rc><c>Fe</c><c>   1</c></rc>
    <rc><c>Fe</c><c>   1</c></rc>
    <rc><c>Fe</c><c>   1</c></rc>
    <rc><c>Fe</c><c>   1</c></rc>
    <rc><c>Fe</c><c>   1</c></rc>
    <rc><c>Fe</c><c>   1</c></rc>
    <rc><c>Fe</c><c>   1</c></rc>
    <rc><c>Fe</c><c>   1</c></rc>
    <rc><c>Fe</c><c>   1</c></rc>
    <rc><c>Fe</c><c>   1</c></rc>
    <rc><c>Fe</c><c>   1</c></rc>
    <rc><c>Fe</c><c>   1</c></rc>
    <rc><c>Fe</c><c>   1</c></rc>
    <rc><c>Fe</c><c>   1</c></rc>
    <rc><c>Fe</c><c>   1</c></rc>
    <rc><c>Fe</c><c>   1</c></rc>
    <rc><c>Fe</c><c>   1</c></rc>
    <rc><c>Fe</c><c>   1</c></rc>
    <rc><c>Fe</c><c>   1</c></rc>
    <rc><c>Fe</c><c>   1</c></rc>
    <rc><c>Fe</c><c>   1</c></rc>
    <rc><c>Fe</c><c>   1</c></rc>
    <rc><c>Fe</c><c>   1</c></rc>
    <rc><c>Fe</c><c>   1</c></rc>
   </set>
  </array>
  <array name="atomtypes" >
   <dimension dim="1">type</dimension>
   <field type="int">atomspertype</field>
   <field type="string">element</field>
   <field>mass</field>
   <field>valence</field>
   <field type="string">pseudopotential</field>
   <set>
    <rc><c> 108</c><c>Fe</c><c>     55.84700000</c><c>      8.00000000</c><c> PAW_PBE Fe 06Sep2000                   </c></rc>
   </set>
  </array>
 </atominfo>
 <structure name="initialpos" >
  <crystal>
   <varray name="basis" >
    <v>      10.33484705       0.00000000       0.00000000 </v>
    <v>       0.00000000      10.33484705       0.00000000 </v>
    <v>       0.00000000       0.00000000      10.33484705 </v>
   </varray>
   <i name="volume">   1103.85533447 </i>
   <varray name="rec_basis" >
    <v>       0.09676002       0.00000000       0.00000000 </v>
    <v>       0.00000000       0.09676002       0.00000000 </v>
    <v>       0.00000000       0.00000000       0.09676002 </v>
   </varray>
  </crystal>
  <varray name="positions" >
   <v>       0.00000000       0.00000000       0.00000000 </v>
   <v>       0.00000000       0.16666893       0.16666893 </v>
   <v>       0.16666893       0.00000000       0.16666893 </v>
   <v>       0.16666893       0.16666893       0.00000000 </v>
   <v>       0.33333106       0.00000000       0.00000000 </v>
   <v>       0.33333107       0.16666893       0.16666893 </v>
   <v>       0.50000000       0.00000000       0.16666894 </v>
   <v>       0.50000000       0.16666894       0.00000000 </v>
   <v>       0.66666897       0.00000000       0.00000000 </v>
   <v>       0.66666896       0.16666893       0.16666893 </v>
   <v>       0.83333104       0.00000000       0.16666893 </v>
   <v>       0.83333104       0.16666893       0.00000000 </v>
   <v>       0.00000000       0.33333106       0.00000000 </v>
   <v>       0.00000000       0.50000000       0.16666894 </v>
   <v>       0.16666893       0.33333107       0.16666893 </v>
   <v>       0.16666894       0.50000000       0.00000000 </v>
   <v>       0.33333107       0.33333107       0.00000000 </v>
   <v>       0.33333107       0.50000000       0.16666893 </v>
   <v>       0.50000000       0.33333107       0.16666893 </v>
   <v>       0.50000000       0.50000000       0.00000000 </v>
   <v>       0.66666896       0.33333107       0.00000000 </v>
   <v>       0.66666896       0.50000000       0.16666893 </v>
   <v>       0.83333104       0.33333107       0.16666893 </v>
   <v>       0.83333103       0.50000000       0.00000000 </v>
   <v>       0.00000000       0.66666897       0.00000000 </v>
   <v>       0.00000000       0.83333104       0.16666893 </v>
   <v>       0.16666893       0.66666896       0.16666893 </v>
   <v>       0.16666893       0.83333104       0.00000000 </v>
   <v>       0.33333107       0.66666896       0.00000000 </v>
   <v>       0.33333107       0.83333104       0.16666893 </v>
   <v>       0.50000000       0.66666896       0.16666893 </v>
   <v>       0.50000000       0.83333103       0.00000000 </v>
   <v>       0.66666896       0.66666896       0.00000000 </v>
   <v>       0.66666896       0.83333104       0.16666893 </v>
   <v>       0.83333104       0.66666896       0.16666893 </v>
   <v>       0.83333104       0.83333104       0.00000000 </v>
   <v>       0.00000000       0.00000000       0.33333106 </v>
   <v>       0.00000000       0.16666894       0.50000000 </v>
   <v>       0.16666894       0.00000000       0.50000000 </v>
   <v>       0.16666893       0.16666893       0.33333107 </v>
   <v>       0.33333107       0.00000000       0.33333107 </v>
   <v>       0.33333107       0.16666893       0.50000000 </v>
   <v>       0.50000000       0.00000000       0.50000000 </v>
   <v>       0.50000000       0.16666893       0.33333107 </v>
   <v>       0.66666896       0.00000000       0.33333107 </v>
   <v>       0.66666896       0.16666893       0.50000000 </v>
   <v>       0.83333103       0.00000000       0.50000000 </v>
   <v>       0.83333104       0.16666893       0.33333107 </v>
   <v>       0.00000000       0.33333107       0.33333107 </v>
   <v>       0.00000000       0.50000000       0.50000000 </v>
   <v>       0.16666893       0.33333107       0.50000000 </v>
   <v>       0.16666893       0.50000000       0.33333107 </v>
   <v>       0.33333107       0.33333107       0.33333107 </v>
   <v>       0.33333106       0.50000000       0.50000000 </v>
   <v>       0.50000000       0.33333106       0.50000000 </v>
   <v>       0.50000000       0.50000000       0.33333106 </v>
   <v>       0.66666896       0.33333107       0.33333107 </v>
   <v>       0.66666897       0.50000000       0.50000000 </v>
   <v>       0.83333104       0.33333107       0.50000000 </v>
   <v>       0.83333104       0.50000000       0.33333107 </v>
   <v>       0.00000000       0.66666896       0.33333107 </v>
   <v>       0.00000000       0.83333103       0.50000000 </v>
   <v>       0.16666893       0.66666896       0.50000000 </v>
   <v>       0.16666893       0.83333104       0.33333107 </v>
   <v>       0.33333107       0.66666896       0.33333107 </v>
   <v>       0.33333107       0.83333104       0.50000000 </v>
   <v>       0.50000000       0.66666897       0.50000000 </v>
   <v>       0.50000000       0.83333104       0.33333107 </v>
   <v>       0.66666896       0.66666896       0.33333107 </v>
   <v>       0.66666896       0.83333104       0.50000000 </v>
   <v>       0.83333104       0.66666896       0.50000000 </v>
   <v>       0.83333104       0.83333104       0.33333107 </v>
   <v>       0.00000000       0.00000000       0.66666897 </v>
   <v>       0.00000000       0.16666893       0.83333104 </v>
   <v>       0.16666893       0.00000000       0.83333104 </v>
   <v>       0.16666893       0.16666893       0.66666896 </v>
   <v>       0.33333107       0.00000000       0.66666896 </v>
   <v>       0.33333107       0.16666893       0.83333104 </v>
   <v>       0.50000000       0.00000000       0.83333103 </v>
   <v>       0.50000000       0.16666893       0.66666896 </v>
   <v>       0.66666896       0.00000000       0.66666896 </v>
   <v>       0.66666896       0.16666893       0.83333104 </v>
   <v>       0.83333104       0.00000000       0.83333104 </v>
   <v>       0.83333104       0.16666893       0.66666896 </v>
   <v>       0.00000000       0.33333107       0.66666896 </v>
   <v>       0.00000000       0.50000000       0.83333103 </v>
   <v>       0.16666893       0.33333107       0.83333104 </v>
   <v>       0.16666893       0.50000000       0.66666896 </v>
   <v>       0.33333107       0.33333107       0.66666896 </v>
   <v>       0.33333107       0.50000000       0.83333104 </v>
   <v>       0.50000000       0.33333107       0.83333104 </v>
   <v>       0.50000000       0.50000000       0.66666897 </v>
   <v>       0.66666896       0.33333107       0.66666896 </v>
   <v>       0.66666896       0.50000000       0.83333104 </v>
   <v>       0.83333104       0.33333107       0.83333104 </v>
   <v>       0.83333104       0.50000000       0.66666896 </v>
   <v>       0.00000000       0.66666896       0.66666896 </v>
   <v>       0.00000000       0.83333104       0.83333104 </v>
   <v>       0.16666893       0.66666896       0.83333104 </v>
   <v>       0.16666893       0.83333104       0.66666896 </v>
   <v>       0.33333107       0.66666896       0.66666896 </v>
   <v>       0.33333107       0.83333104       0.83333104 </v>
   <v>       0.50000000       0.66666896       0.83333104 </v>
   <v>       0.50000000       0.83333104       0.66666896 </v>
   <v>       0.66666896       0.66666896       0.66666896 </v>
   <v>       0.66666896       0.83333104       0.83333104 </v>
   <v>       0.83333104       0.66666896       0.83333104 </v>
   <v>       0.83333104       0.83333104       0.66666896 </v>
  </varray>
 </structure>
 <calculation>
  <scstep>
   <time name="dav">   36.36   36.40</time>
   <time name="total">   36.69   36.73</time>
   <energy>
    <i name="alphaZ">   7300.31925852 </i>
    <i name="ewald"> -66232.83996889 </i>
    <i name="hartreedc"> -11197.02572337 </i>
    <i name="XCdc">    446.63038354 </i>
    <i name="pawpsdc">  51723.88885462 </i>
    <i name="pawaedc"> -52548.28121372 </i>
    <i name="eentropy">      0.00614610 </i>
    <i name="bandstr">  12599.78904734 </i>
    <i name="atom">  64199.71855043 </i>
    <i name="e_fr_energy">   6292.20533458 </i>
    <i name="e_wo_entrp">   6292.19918848 </i>
    <i name="e_0_energy">   6292.20328588 </i>
   </energy>
  </scstep>
  <scstep>
   <time name="dav">   36.30   36.32</time>
   <time name="total">   36.31   36.33</time>
   <energy>
    <i name="e_fr_energy">   -249.01598276 </i>
    <i name="e_wo_entrp">   -248.98819562 </i>
    <i name="e_0_energy">   -249.00672038 </i>
   </energy>
  </scstep>
  <scstep>
   <time name="dav">   40.10   40.11</time>
   <time name="total">   40.11   40.12</time>
   <energy>
    <i name="e_fr_energy">   -921.50584646 </i>
    <i name="e_wo_entrp">   -921.52398384 </i>
    <i name="e_0_energy">   -921.51189225 </i>
   </energy>
  </scstep>
  <scstep>
   <time name="dav">   57.28   57.28</time>
   <time name="total">   57.29   57.29</time>
   <energy>
    <i name="e_fr_energy">  -1035.27714893 </i>
    <i name="e_wo_entrp">  -1035.21721066 </i>
    <i name="e_0_energy">  -1035.25716951 </i>
   </energy>
  </scstep>
  <scstep>
   <time name="dav">   52.16   52.16</time>
   <time name="total">   54.26   54.27</time>
   <energy>
    <i name="e_fr_energy">  -1045.09679100 </i>
    <i name="e_wo_entrp">  -1044.98746704 </i>
    <i name="e_0_energy">  -1045.06034968 </i>
   </energy>
  </scstep>
  <scstep>
   <time name="diag">    4.47    4.47</time>
   <time name="diis">   23.56   23.57</time>
   <time name="orth">    0.73    0.73</time>
   <time name="total">   31.20   31.21</time>
   <energy>
    <i name="e_fr_energy">   -879.41280442 </i>
    <i name="e_wo_entrp">   -879.34911574 </i>
    <i name="e_0_energy">   -879.39157486 </i>
   </energy>
  </scstep>
  <scstep>
   <time name="diag">    4.39    4.39</time>
   <time name="diis">   26.59   26.59</time>
   <time name="orth">    0.72    0.72</time>
   <time name="total">   34.12   34.13</time>
   <energy>
    <i name="e_fr_energy">   -881.35394038 </i>
    <i name="e_wo_entrp">   -881.21906257 </i>
    <i name="e_0_energy">   -881.30898111 </i>
   </energy>
  </scstep>
  <scstep>
   <time name="diag">    4.58    4.58</time>
   <time name="diis">   25.96   25.96</time>
   <time name="orth">    0.75    0.75</time>
   <time name="total">   33.82   33.82</time>
   <energy>
    <i name="e_fr_energy">   -881.00484646 </i>
    <i name="e_wo_entrp">   -880.90032191 </i>
    <i name="e_0_energy">   -880.97000494 </i>
   </energy>
  </scstep>
  <scstep>
   <time name="diag">    4.39    4.39</time>
   <time name="diis">   29.43   29.44</time>
   <time name="orth">    0.75    0.75</time>
   <time name="total">   37.11   37.13</time>
   <energy>
    <i name="e_fr_energy">   -880.59244366 </i>
    <i name="e_wo_entrp">   -880.52204367 </i>
    <i name="e_0_energy">   -880.56897700 </i>
   </energy>
  </scstep>
  <scstep>
   <time name="diag">    4.41    4.41</time>
   <time name="diis">   30.76   30.78</time>
   <time name="orth">    0.75    0.75</time>
   <time name="total">   38.47   38.48</time>
   <energy>
    <i name="e_fr_energy">   -880.42678690 </i>
    <i name="e_wo_entrp">   -880.34530669 </i>
    <i name="e_0_energy">   -880.39962683 </i>
   </energy>
  </scstep>
  <scstep>
   <time name="diag">    4.64    4.64</time>
   <time name="diis">   32.58   32.58</time>
   <time name="orth">    0.75    0.75</time>
   <time name="total">   40.50   40.50</time>
   <energy>
    <i name="e_fr_energy">   -880.44396720 </i>
    <i name="e_wo_entrp">   -880.36458417 </i>
    <i name="e_0_energy">   -880.41750619 </i>
   </energy>
  </scstep>
  <scstep>
   <time name="diag">    4.64    4.64</time>
   <time name="diis">   25.96   25.97</time>
   <time name="orth">    0.75    0.75</time>
   <time name="total">   33.89   33.90</time>
   <energy>
    <i name="e_fr_energy">   -880.43598211 </i>
    <i name="e_wo_entrp">   -880.36116901 </i>
    <i name="e_0_energy">   -880.41104441 </i>
   </energy>
  </scstep>
  <scstep>
   <time name="diag">    4.64    4.64</time>
   <time name="diis">   31.95   31.95</time>
   <time name="orth">    0.75    0.75</time>
   <time name="total">   39.88   39.89</time>
   <energy>
    <i name="e_fr_energy">   -880.43695814 </i>
    <i name="e_wo_entrp">   -880.36286575 </i>
    <i name="e_0_energy">   -880.41226068 </i>
   </energy>
  </scstep>
  <scstep>
   <time name="diag">    4.64    4.64</time>
   <time name="diis">   28.67   28.68</time>
   <time name="orth">    0.74    0.74</time>
   <time name="total">   36.56   36.56</time>
   <energy>
    <i name="e_fr_energy">   -880.43702109 </i>
    <i name="e_wo_entrp">   -880.36342046 </i>
    <i name="e_0_energy">   -880.41248754 </i>
   </energy>
  </scstep>
  <scstep>
   <time name="diag">    4.64    4.64</time>
   <time name="diis">   27.42   27.43</time>
   <time name="orth">    0.74    0.74</time>
   <time name="total">   35.22   35.23</time>
   <energy>
    <i name="e_fr_energy">   -880.43695097 </i>
    <i name="e_wo_entrp">   -880.36403637 </i>
    <i name="e_0_energy">   -880.41264610 </i>
   </energy>
  </scstep>
  <scstep>
   <time name="diag">    4.46    4.46</time>
   <time name="diis">   31.58   31.58</time>
   <time name="orth">    0.73    0.73</time>
   <time name="total">   39.16   39.17</time>
   <energy>
    <i name="e_fr_energy">   -880.43692486 </i>
    <i name="e_wo_entrp">   -880.36449700 </i>
    <i name="e_0_energy">   -880.41278224 </i>
   </energy>
  </scstep>
  <scstep>
   <time name="diag">    4.27    4.27</time>
   <time name="diis">   29.41   29.41</time>
   <time name="orth">    0.74    0.74</time>
   <time name="total">   36.97   36.98</time>
   <energy>
    <i name="e_fr_energy">   -880.43690902 </i>
    <i name="e_wo_entrp">   -880.36471584 </i>
    <i name="e_0_energy">   -880.41284462 </i>
   </energy>
  </scstep>
  <scstep>
   <time name="diag">    4.43    4.43</time>
   <time name="diis">   18.39   18.39</time>
   <time name="orth">    0.75    0.75</time>
   <time name="total">   26.12   26.12</time>
   <energy>
    <i name="e_fr_energy">   -880.43688934 </i>
    <i name="e_wo_entrp">   -880.36489300 </i>
    <i name="e_0_energy">   -880.41289056 </i>
   </energy>
  </scstep>
  <scstep>
   <time name="diag">    4.64    4.65</time>
   <time name="diis">   16.78   16.78</time>
   <time name="orth">    0.73    0.73</time>
   <time name="total">   24.65   24.67</time>
   <energy>
    <i name="e_fr_energy">   -880.43686998 </i>
    <i name="e_wo_entrp">   -880.36512208 </i>
    <i name="e_0_energy">   -880.41295401 </i>
   </energy>
  </scstep>
  <scstep>
   <time name="diag">    4.52    4.52</time>
   <time name="diis">   16.26   16.26</time>
   <time name="orth">    0.74    0.74</time>
   <time name="total">   24.04   24.05</time>
   <energy>
    <i name="e_fr_energy">   -880.43685835 </i>
    <i name="e_wo_entrp">   -880.36526063 </i>
    <i name="e_0_energy">   -880.41299244 </i>
   </energy>
  </scstep>
  <scstep>
   <time name="diag">    4.55    4.55</time>
   <time name="diis">   15.98   15.99</time>
   <time name="orth">    0.74    0.74</time>
   <time name="total">   23.72   23.72</time>
   <energy>
    <i name="e_fr_energy">   -880.43684671 </i>
    <i name="e_wo_entrp">   -880.36540592 </i>
    <i name="e_0_energy">   -880.41303311 </i>
   </energy>
  </scstep>
  <scstep>
   <time name="diag">    4.45    4.45</time>
   <time name="diis">   15.71   15.71</time>
   <time name="orth">    0.74    0.74</time>
   <time name="total">   23.41   23.42</time>
   <energy>
    <i name="e_fr_energy">   -880.43683827 </i>
    <i name="e_wo_entrp">   -880.36551259 </i>
    <i name="e_0_energy">   -880.41306304 </i>
   </energy>
  </scstep>
  <scstep>
   <time name="diag">    4.63    4.63</time>
   <time name="diis">   14.94   14.95</time>
   <time name="orth">    0.74    0.74</time>
   <time name="total">   22.83   22.83</time>
   <energy>
    <i name="e_fr_energy">   -880.43683132 </i>
    <i name="e_wo_entrp">   -880.36560637 </i>
    <i name="e_0_energy">   -880.41308967 </i>
   </energy>
  </scstep>
  <scstep>
   <time name="diag">    4.64    4.64</time>
   <time name="diis">   14.58   14.59</time>
   <time name="orth">    0.74    0.74</time>
   <time name="total">   22.49   22.51</time>
   <energy>
    <i name="e_fr_energy">   -880.43682492 </i>
    <i name="e_wo_entrp">   -880.36569072 </i>
    <i name="e_0_energy">   -880.41311352 </i>
   </energy>
  </scstep>
  <scstep>
   <time name="diag">    4.42    4.42</time>
   <time name="diis">   14.50   14.50</time>
   <time name="orth">    0.74    0.74</time>
   <time name="total">   22.13   22.13</time>
   <energy>
    <i name="e_fr_energy">   -880.43681927 </i>
    <i name="e_wo_entrp">   -880.36576633 </i>
    <i name="e_0_energy">   -880.41313495 </i>
   </energy>
  </scstep>
  <scstep>
   <time name="diag">    4.58    4.58</time>
   <time name="diis">   13.38   13.38</time>
   <time name="orth">    0.72    0.72</time>
   <time name="total">   21.10   21.10</time>
   <energy>
    <i name="e_fr_energy">   -880.43681396 </i>
    <i name="e_wo_entrp">   -880.36583726 </i>
    <i name="e_0_energy">   -880.41315506 </i>
   </energy>
  </scstep>
  <scstep>
   <time name="diag">    4.54    4.54</time>
   <time name="diis">   13.32   13.32</time>
   <time name="orth">    0.74    0.74</time>
   <time name="total">   21.10   21.11</time>
   <energy>
    <i name="e_fr_energy">   -880.43680916 </i>
    <i name="e_wo_entrp">   -880.36590092 </i>
    <i name="e_0_energy">   -880.41317308 </i>
   </energy>
  </scstep>
  <scstep>
   <time name="diag">    4.38    4.38</time>
   <time name="diis">   12.92   12.92</time>
   <time name="orth">    0.74    0.74</time>
   <time name="total">   20.52   20.52</time>
   <energy>
    <i name="e_fr_energy">   -880.43680469 </i>
    <i name="e_wo_entrp">   -880.36596127 </i>
    <i name="e_0_energy">   -880.41319021 </i>
   </energy>
  </scstep>
  <scstep>
   <time name="diag">    4.40    4.40</time>
   <time name="diis">   12.92   12.92</time>
   <time name="orth">    0.75    0.75</time>
   <time name="total">   20.50   20.51</time>
   <energy>
    <i name="e_fr_energy">   -880.43680063 </i>
    <i name="e_wo_entrp">   -880.36601540 </i>
    <i name="e_0_energy">   -880.41320555 </i>
   </energy>
  </scstep>
  <scstep>
   <time name="diag">    4.45    4.45</time>
   <time name="diis">   12.42   12.42</time>
   <time name="orth">    0.74    0.74</time>
   <time name="total">   20.09   20.09</time>
   <energy>
    <i name="e_fr_energy">   -880.43679684 </i>
    <i name="e_wo_entrp">   -880.36606585 </i>
    <i name="e_0_energy">   -880.41321984 </i>
   </energy>
  </scstep>
  <scstep>
   <time name="diag">    4.36    4.36</time>
   <time name="diis">   12.64   12.64</time>
   <time name="orth">    0.74    0.74</time>
   <time name="total">   20.24   20.24</time>
   <energy>
    <i name="e_fr_energy">   -880.43679338 </i>
    <i name="e_wo_entrp">   -880.36611143 </i>
    <i name="e_0_energy">   -880.41323273 </i>
   </energy>
  </scstep>
  <scstep>
   <time name="diag">    4.57    4.57</time>
   <time name="diis">   11.59   11.59</time>
   <time name="orth">    0.74    0.74</time>
   <time name="total">   19.40   19.40</time>
   <energy>
    <i name="e_fr_energy">   -880.43679017 </i>
    <i name="e_wo_entrp">   -880.36615420 </i>
    <i name="e_0_energy">   -880.41324485 </i>
   </energy>
  </scstep>
  <scstep>
   <time name="diag">    4.56    4.56</time>
   <time name="diis">   11.42   11.42</time>
   <time name="orth">    0.74    0.74</time>
   <time name="total">   19.19   19.20</time>
   <energy>
    <i name="e_fr_energy">   -880.43678727 </i>
    <i name="e_wo_entrp">   -880.36619293 </i>
    <i name="e_0_energy">   -880.41325582 </i>
   </energy>
  </scstep>
  <scstep>
   <time name="diag">    4.57    4.57</time>
   <time name="diis">   11.52   11.52</time>
   <time name="orth">    0.72    0.72</time>
   <time name="total">   19.26   19.26</time>
   <energy>
    <i name="e_fr_energy">   -880.43678459 </i>
    <i name="e_wo_entrp">   -880.36622871 </i>
    <i name="e_0_energy">   -880.41326596 </i>
   </energy>
  </scstep>
  <scstep>
   <time name="diag">    4.52    4.52</time>
   <time name="diis">   11.73   11.73</time>
   <time name="orth">    0.68    0.68</time>
   <time name="total">   19.23   19.23</time>
   <energy>
    <i name="e_fr_energy">   -880.43678216 </i>
    <i name="e_wo_entrp">   -880.36626113 </i>
    <i name="e_0_energy">   -880.41327515 </i>
   </energy>
  </scstep>
  <scstep>
   <time name="diag">    4.39    4.39</time>
   <time name="diis">   11.88   11.88</time>
   <time name="orth">    0.74    0.74</time>
   <time name="total">   19.39   19.39</time>
   <energy>
    <i name="e_fr_energy">   -880.43677992 </i>
    <i name="e_wo_entrp">   -880.36629099 </i>
    <i name="e_0_energy">   -880.41328361 </i>
   </energy>
  </scstep>
  <scstep>
   <time name="diag">    4.15    4.15</time>
   <time name="diis">   11.62   11.62</time>
   <time name="orth">    0.74    0.74</time>
   <time name="total">   18.93   18.94</time>
   <energy>
    <i name="e_fr_energy">   -880.43677791 </i>
    <i name="e_wo_entrp">   -880.36631802 </i>
    <i name="e_0_energy">   -880.41329128 </i>
   </energy>
  </scstep>
  <scstep>
   <time name="diag">    4.19    4.19</time>
   <time name="diis">   11.34   11.34</time>
   <time name="orth">    0.74    0.74</time>
   <time name="total">   18.75   18.75</time>
   <energy>
    <i name="e_fr_energy">   -880.43677605 </i>
    <i name="e_wo_entrp">   -880.36634285 </i>
    <i name="e_0_energy">   -880.41329832 </i>
   </energy>
  </scstep>
  <scstep>
   <time name="diag">    4.42    4.43</time>
   <time name="diis">   10.91   10.91</time>
   <time name="orth">    0.74    0.74</time>
   <time name="total">   18.54   18.54</time>
   <energy>
    <i name="e_fr_energy">   -880.43677438 </i>
    <i name="e_wo_entrp">   -880.36636532 </i>
    <i name="e_0_energy">   -880.41330470 </i>
   </energy>
  </scstep>
  <scstep>
   <time name="diag">    4.50    4.50</time>
   <time name="diis">   10.93   10.93</time>
   <time name="orth">    0.74    0.74</time>
   <time name="total">   18.62   18.62</time>
   <energy>
    <i name="e_fr_energy">   -880.43677285 </i>
    <i name="e_wo_entrp">   -880.36638589 </i>
    <i name="e_0_energy">   -880.41331053 </i>
   </energy>
  </scstep>
  <scstep>
   <time name="diag">    4.51    4.52</time>
   <time name="diis">   10.81   10.81</time>
   <time name="orth">    0.73    0.73</time>
   <time name="total">   18.56   18.56</time>
   <energy>
    <i name="e_fr_energy">   -880.43677147 </i>
    <i name="e_wo_entrp">   -880.36640449 </i>
    <i name="e_0_energy">   -880.41331581 </i>
   </energy>
  </scstep>
  <scstep>
   <time name="diag">    4.48    4.48</time>
   <time name="diis">   11.02   11.03</time>
   <time name="orth">    0.71    0.71</time>
   <time name="total">   18.60   18.61</time>
   <energy>
    <i name="e_fr_energy">   -880.43677020 </i>
    <i name="e_wo_entrp">   -880.36642166 </i>
    <i name="e_0_energy">   -880.41332069 </i>
   </energy>
  </scstep>
  <scstep>
   <time name="diag">    4.47    4.47</time>
   <time name="diis">   11.20   11.20</time>
   <time name="orth">    0.74    0.74</time>
   <time name="total">   18.90   18.90</time>
   <energy>
    <i name="e_fr_energy">   -880.43676906 </i>
    <i name="e_wo_entrp">   -880.36643695 </i>
    <i name="e_0_energy">   -880.41332503 </i>
   </energy>
  </scstep>
  <scstep>
   <time name="diag">    4.32    4.32</time>
   <time name="diis">   11.10   11.10</time>
   <time name="orth">    0.72    0.72</time>
   <time name="total">   18.62   18.62</time>
   <energy>
    <i name="e_fr_energy">   -880.43676802 </i>
    <i name="e_wo_entrp">   -880.36645118 </i>
    <i name="e_0_energy">   -880.41332907 </i>
   </energy>
  </scstep>
  <scstep>
   <time name="diag">    4.40    4.40</time>
   <time name="diis">   11.15   11.16</time>
   <time name="orth">    0.72    0.72</time>
   <time name="total">   16.62   16.62</time>
   <energy>
    <i name="alphaZ">   7300.31925852 </i>
    <i name="ewald"> -66232.83996889 </i>
    <i name="hartreedc">  -9346.77666713 </i>
    <i name="XCdc">    360.78456169 </i>
    <i name="pawpsdc">  57964.03432838 </i>
    <i name="pawaedc"> -58904.82824022 </i>
    <i name="eentropy">     -0.07030311 </i>
    <i name="bandstr">   3779.22171325 </i>
    <i name="atom">  64199.71855043 </i>
    <i name="e_fr_energy">   -880.43676707 </i>
    <i name="e_wo_entrp">   -880.36646397 </i>
    <i name="e_0_energy">   -880.41333270 </i>
   </energy>
  </scstep>
  <structure>
   <crystal>
    <varray name="basis" >
     <v>      10.33484705       0.00000000       0.00000000 </v>
     <v>       0.00000000      10.33484705       0.00000000 </v>
     <v>       0.00000000       0.00000000      10.33484705 </v>
    </varray>
    <i name="volume">   1103.85533447 </i>
    <varray name="rec_basis" >
     <v>       0.09676002       0.00000000       0.00000000 </v>
     <v>       0.00000000       0.09676002       0.00000000 </v>
     <v>       0.00000000       0.00000000       0.09676002 </v>
    </varray>
   </crystal>
   <varray name="positions" >
    <v>       0.00000000       0.00000000       0.00000000 </v>
    <v>       0.00000000       0.16666893       0.16666893 </v>
    <v>       0.16666893       0.00000000       0.16666893 </v>
    <v>       0.16666893       0.16666893       0.00000000 </v>
    <v>       0.33333106       0.00000000       0.00000000 </v>
    <v>       0.33333107       0.16666893       0.16666893 </v>
    <v>       0.50000000       0.00000000       0.16666894 </v>
    <v>       0.50000000       0.16666894       0.00000000 </v>
    <v>       0.66666897       0.00000000       0.00000000 </v>
    <v>       0.66666896       0.16666893       0.16666893 </v>
    <v>       0.83333104       0.00000000       0.16666893 </v>
    <v>       0.83333104       0.16666893       0.00000000 </v>
    <v>       0.00000000       0.33333106       0.00000000 </v>
    <v>       0.00000000       0.50000000       0.16666894 </v>
    <v>       0.16666893       0.33333107       0.16666893 </v>
    <v>       0.16666894       0.50000000       0.00000000 </v>
    <v>       0.33333107       0.33333107       0.00000000 </v>
    <v>       0.33333107       0.50000000       0.16666893 </v>
    <v>       0.50000000       0.33333107       0.16666893 </v>
    <v>       0.50000000       0.50000000       0.00000000 </v>
    <v>       0.66666896       0.33333107       0.00000000 </v>
    <v>       0.66666896       0.50000000       0.16666893 </v>
    <v>       0.83333104       0.33333107       0.16666893 </v>
    <v>       0.83333103       0.50000000       0.00000000 </v>
    <v>       0.00000000       0.66666897       0.00000000 </v>
    <v>       0.00000000       0.83333104       0.16666893 </v>
    <v>       0.16666893       0.66666896       0.16666893 </v>
    <v>       0.16666893       0.83333104       0.00000000 </v>
    <v>       0.33333107       0.66666896       0.00000000 </v>
    <v>       0.33333107       0.83333104       0.16666893 </v>
    <v>       0.50000000       0.66666896       0.16666893 </v>
    <v>       0.50000000       0.83333103       0.00000000 </v>
    <v>       0.66666896       0.66666896       0.00000000 </v>
    <v>       0.66666896       0.83333104       0.16666893 </v>
    <v>       0.83333104       0.66666896       0.16666893 </v>
    <v>       0.83333104       0.83333104       0.00000000 </v>
    <v>       0.00000000       0.00000000       0.33333106 </v>
    <v>       0.00000000       0.16666894       0.50000000 </v>
    <v>       0.16666894       0.00000000       0.50000000 </v>
    <v>       0.16666893       0.16666893       0.33333107 </v>
    <v>       0.33333107       0.00000000       0.33333107 </v>
    <v>       0.33333107       0.16666893       0.50000000 </v>
    <v>       0.50000000       0.00000000       0.50000000 </v>
    <v>       0.50000000       0.16666893       0.33333107 </v>
    <v>       0.66666896       0.00000000       0.33333107 </v>
    <v>       0.66666896       0.16666893       0.50000000 </v>
    <v>       0.83333103       0.00000000       0.50000000 </v>
    <v>       0.83333104       0.16666893       0.33333107 </v>
    <v>       0.00000000       0.33333107       0.33333107 </v>
    <v>       0.00000000       0.50000000       0.50000000 </v>
    <v>       0.16666893       0.33333107       0.50000000 </v>
    <v>       0.16666893       0.50000000       0.33333107 </v>
    <v>       0.33333107       0.33333107       0.33333107 </v>
    <v>       0.33333106       0.50000000       0.50000000 </v>
    <v>       0.50000000       0.33333106       0.50000000 </v>
    <v>       0.50000000       0.50000000       0.33333106 </v>
    <v>       0.66666896       0.33333107       0.33333107 </v>
    <v>       0.66666897       0.50000000       0.50000000 </v>
    <v>       0.83333104       0.33333107       0.50000000 </v>
    <v>       0.83333104       0.50000000       0.33333107 </v>
    <v>       0.00000000       0.66666896       0.33333107 </v>
    <v>       0.00000000       0.83333103       0.50000000 </v>
    <v>       0.16666893       0.66666896       0.50000000 </v>
    <v>       0.16666893       0.83333104       0.33333107 </v>
    <v>       0.33333107       0.66666896       0.33333107 </v>
    <v>       0.33333107       0.83333104       0.50000000 </v>
    <v>       0.50000000       0.66666897       0.50000000 </v>
    <v>       0.50000000       0.83333104       0.33333107 </v>
    <v>       0.66666896       0.66666896       0.33333107 </v>
    <v>       0.66666896       0.83333104       0.50000000 </v>
    <v>       0.83333104       0.66666896       0.50000000 </v>
    <v>       0.83333104       0.83333104       0.33333107 </v>
    <v>       0.00000000       0.00000000       0.66666897 </v>
    <v>       0.00000000       0.16666893       0.83333104 </v>
    <v>       0.16666893       0.00000000       0.83333104 </v>
    <v>       0.16666893       0.16666893       0.66666896 </v>
    <v>       0.33333107       0.00000000       0.66666896 </v>
    <v>       0.33333107       0.16666893       0.83333104 </v>
    <v>       0.50000000       0.00000000       0.83333103 </v>
    <v>       0.50000000       0.16666893       0.66666896 </v>
    <v>       0.66666896       0.00000000       0.66666896 </v>
    <v>       0.66666896       0.16666893       0.83333104 </v>
    <v>       0.83333104       0.00000000       0.83333104 </v>
    <v>       0.83333104       0.16666893       0.66666896 </v>
    <v>       0.00000000       0.33333107       0.66666896 </v>
    <v>       0.00000000       0.50000000       0.83333103 </v>
    <v>       0.16666893       0.33333107       0.83333104 </v>
    <v>       0.16666893       0.50000000       0.66666896 </v>
    <v>       0.33333107       0.33333107       0.66666896 </v>
    <v>       0.33333107       0.50000000       0.83333104 </v>
    <v>       0.50000000       0.33333107       0.83333104 </v>
    <v>       0.50000000       0.50000000       0.66666897 </v>
    <v>       0.66666896       0.33333107       0.66666896 </v>
    <v>       0.66666896       0.50000000       0.83333104 </v>
    <v>       0.83333104       0.33333107       0.83333104 </v>
    <v>       0.83333104       0.50000000       0.66666896 </v>
    <v>       0.00000000       0.66666896       0.66666896 </v>
    <v>       0.00000000       0.83333104       0.83333104 </v>
    <v>       0.16666893       0.66666896       0.83333104 </v>
    <v>       0.16666893       0.83333104       0.66666896 </v>
    <v>       0.33333107       0.66666896       0.66666896 </v>
    <v>       0.33333107       0.83333104       0.83333104 </v>
    <v>       0.50000000       0.66666896       0.83333104 </v>
    <v>       0.50000000       0.83333104       0.66666896 </v>
    <v>       0.66666896       0.66666896       0.66666896 </v>
    <v>       0.66666896       0.83333104       0.83333104 </v>
    <v>       0.83333104       0.66666896       0.83333104 </v>
    <v>       0.83333104       0.83333104       0.66666896 </v>
   </varray>
  </structure>
  <varray name="forces" >
   <v>      -0.00000000      -0.00000000      -0.00000000 </v>
   <v>      -0.00000000       0.00000000       0.00000000 </v>
   <v>      -0.00000000      -0.00000000       0.00000000 </v>
   <v>       0.00000000      -0.00000000       0.00000000 </v>
   <v>       0.00000000      -0.00000000       0.00000000 </v>
   <v>       0.00000000      -0.00000000       0.00000000 </v>
   <v>      -0.00000000      -0.00000000      -0.00000000 </v>
   <v>       0.00000000       0.00000000      -0.00000000 </v>
   <v>       0.00000000      -0.00000000       0.00000000 </v>
   <v>       0.00000000       0.00000000       0.00000000 </v>
   <v>      -0.00000000      -0.00000000      -0.00000000 </v>
   <v>      -0.00000000      -0.00000000       0.00000000 </v>
   <v>      -0.00000000      -0.00000000       0.00000000 </v>
   <v>      -0.00000000      -0.00000000      -0.00000000 </v>
   <v>       0.00000000       0.00000000      -0.00000000 </v>
   <v>      -0.00000000       0.00000000       0.00000000 </v>
   <v>       0.00000000       0.00000000       0.00000000 </v>
   <v>       0.00000000      -0.00000000      -0.00000000 </v>
   <v>      -0.00000000      -0.00000000      -0.00000000 </v>
   <v>      -0.00000000      -0.00000000      -0.00000000 </v>
   <v>       0.00000000      -0.00000000      -0.00000000 </v>
   <v>      -0.00000000      -0.00000000      -0.00000000 </v>
   <v>      -0.00000000      -0.00000000       0.00000000 </v>
   <v>      -0.00000000       0.00000000      -0.00000000 </v>
   <v>      -0.00000000      -0.00000000      -0.00000000 </v>
   <v>      -0.00000000      -0.00000000      -0.00000000 </v>
   <v>       0.00000000      -0.00000000       0.00000000 </v>
   <v>       0.00000000       0.00000000       0.00000000 </v>
   <v>      -0.00000000       0.00000000      -0.00000000 </v>
   <v>       0.00000000       0.00000000       0.00000000 </v>
   <v>      -0.00000000       0.00000000       0.00000000 </v>
   <v>       0.00000000       0.00000000      -0.00000000 </v>
   <v>       0.00000000       0.00000000       0.00000000 </v>
   <v>       0.00000000      -0.00000000       0.00000000 </v>
   <v>      -0.00000000       0.00000000      -0.00000000 </v>
   <v>       0.00000000       0.00000000       0.00000000 </v>
   <v>      -0.00000000       0.00000000       0.00000000 </v>
   <v>      -0.00000000      -0.00000000       0.00000000 </v>
   <v>       0.00000000      -0.00000000       0.00000000 </v>
   <v>      -0.00000000       0.00000000      -0.00000000 </v>
   <v>      -0.00000000       0.00000000      -0.00000000 </v>
   <v>       0.00000000      -0.00000000      -0.00000000 </v>
   <v>      -0.00000000       0.00000000      -0.00000000 </v>
   <v>      -0.00000000      -0.00000000       0.00000000 </v>
   <v>       0.00000000       0.00000000      -0.00000000 </v>
   <v>       0.00000000       0.00000000       0.00000000 </v>
   <v>      -0.00000000      -0.00000000      -0.00000000 </v>
   <v>       0.00000000       0.00000000      -0.00000000 </v>
   <v>      -0.00000000      -0.00000000      -0.00000000 </v>
   <v>      -0.00000000      -0.00000000      -0.00000000 </v>
   <v>       0.00000000      -0.00000000       0.00000000 </v>
   <v>       0.00000000       0.00000000       0.00000000 </v>
   <v>       0.00000000       0.00000000       0.00000000 </v>
   <v>      -0.00000000      -0.00000000      -0.00000000 </v>
   <v>      -0.00000000      -0.00000000      -0.00000000 </v>
   <v>      -0.00000000       0.00000000       0.00000000 </v>
   <v>       0.00000000      -0.00000000       0.00000000 </v>
   <v>       0.00000000      -0.00000000      -0.00000000 </v>
   <v>      -0.00000000      -0.00000000       0.00000000 </v>
   <v>      -0.00000000       0.00000000       0.00000000 </v>
   <v>      -0.00000000      -0.00000000       0.00000000 </v>
   <v>      -0.00000000      -0.00000000       0.00000000 </v>
   <v>       0.00000000      -0.00000000       0.00000000 </v>
   <v>       0.00000000      -0.00000000      -0.00000000 </v>
   <v>      -0.00000000       0.00000000      -0.00000000 </v>
   <v>      -0.00000000       0.00000000       0.00000000 </v>
   <v>       0.00000000       0.00000000      -0.00000000 </v>
   <v>      -0.00000000       0.00000000       0.00000000 </v>
   <v>       0.00000000      -0.00000000      -0.00000000 </v>
   <v>       0.00000000       0.00000000       0.00000000 </v>
   <v>      -0.00000000      -0.00000000       0.00000000 </v>
   <v>       0.00000000       0.00000000       0.00000000 </v>
   <v>      -0.00000000      -0.00000000      -0.00000000 </v>
   <v>      -0.00000000      -0.00000000      -0.00000000 </v>
   <v>      -0.00000000      -0.00000000       0.00000000 </v>
   <v>       0.00000000       0.00000000       0.00000000 </v>
   <v>       0.00000000       0.00000000       0.00000000 </v>
   <v>      -0.00000000      -0.00000000      -0.00000000 </v>
   <v>      -0.00000000       0.00000000       0.00000000 </v>
   <v>       0.00000000      -0.00000000      -0.00000000 </v>
   <v>       0.00000000       0.00000000       0.00000000 </v>
   <v>       0.00000000       0.00000000      -0.00000000 </v>
   <v>      -0.00000000      -0.00000000       0.00000000 </v>
   <v>      -0.00000000       0.00000000       0.00000000 </v>
   <v>      -0.00000000       0.00000000       0.00000000 </v>
   <v>      -0.00000000      -0.00000000       0.00000000 </v>
   <v>       0.00000000      -0.00000000      -0.00000000 </v>
   <v>       0.00000000       0.00000000       0.00000000 </v>
   <v>       0.00000000       0.00000000      -0.00000000 </v>
   <v>       0.00000000       0.00000000       0.00000000 </v>
   <v>      -0.00000000      -0.00000000       0.00000000 </v>
   <v>      -0.00000000       0.00000000      -0.00000000 </v>
   <v>       0.00000000      -0.00000000      -0.00000000 </v>
   <v>       0.00000000      -0.00000000       0.00000000 </v>
   <v>      -0.00000000      -0.00000000       0.00000000 </v>
   <v>      -0.00000000       0.00000000      -0.00000000 </v>
   <v>      -0.00000000      -0.00000000      -0.00000000 </v>
   <v>      -0.00000000       0.00000000       0.00000000 </v>
   <v>       0.00000000       0.00000000      -0.00000000 </v>
   <v>       0.00000000      -0.00000000       0.00000000 </v>
   <v>      -0.00000000      -0.00000000      -0.00000000 </v>
   <v>       0.00000000       0.00000000      -0.00000000 </v>
   <v>       0.00000000       0.00000000      -0.00000000 </v>
   <v>      -0.00000000      -0.00000000      -0.00000000 </v>
   <v>       0.00000000      -0.00000000       0.00000000 </v>
   <v>       0.00000000      -0.00000000      -0.00000000 </v>
   <v>       0.00000000       0.00000000      -0.00000000 </v>
   <v>       0.00000000       0.00000000       0.00000000 </v>
  </varray>
  <varray name="stress" >
   <v>       2.24699299      -0.00000000       0.00000000 </v>
   <v>       0.00000000       2.24699299      -0.00000000 </v>
   <v>      -0.00000000      -0.00000000       2.24699299 </v>
  </varray>
  <energy>
   <i name="e_fr_energy">   -880.43676707 </i>
   <i name="e_wo_entrp">   -880.41333270 </i>
   <i name="e_0_energy">     -0.07030311 </i>
  </energy>
  <time name="totalsc"> 1297.79 1298.13</time>
 </calculation>
 <calculation>
  <scstep>
   <time name="dav">   40.11   40.14</time>
   <time name="total">   42.50   42.53</time>
   <energy>
    <i name="alphaZ">   7285.19502192 </i>
    <i name="ewald"> -66187.06965542 </i>
    <i name="hartreedc">  -9340.31738533 </i>
    <i name="XCdc">    358.73164098 </i>
    <i name="pawpsdc">  57964.03448108 </i>
    <i name="pawaedc"> -58904.82820023 </i>
    <i name="eentropy">     -0.07545086 </i>
    <i name="bandstr">   3744.14058320 </i>
    <i name="atom">  64199.71855043 </i>
    <i name="e_fr_energy">   -880.47041424 </i>
    <i name="e_wo_entrp">   -880.39496338 </i>
    <i name="e_0_energy">   -880.44526395 </i>
   </energy>
  </scstep>
  <scstep>
   <time name="diag">    4.39    4.39</time>
   <time name="diis">   23.35   23.37</time>
   <time name="orth">    0.72    0.73</time>
   <time name="total">   30.89   30.92</time>
   <energy>
    <i name="e_fr_energy">   -880.43698950 </i>
    <i name="e_wo_entrp">   -880.36908354 </i>
    <i name="e_0_energy">   -880.41435418 </i>
   </energy>
  </scstep>
  <scstep>
   <time name="diag">    4.39    4.39</time>
   <time name="diis">   25.20   25.22</time>
   <time name="orth">    0.73    0.74</time>
   <time name="total">   32.70   32.73</time>
   <energy>
    <i name="e_fr_energy">   -880.43628958 </i>
    <i name="e_wo_entrp">   -880.36778201 </i>
    <i name="e_0_energy">   -880.41345372 </i>
   </energy>
  </scstep>
  <scstep>
   <time name="diag">    4.57    4.57</time>
   <time name="diis">   23.03   23.04</time>
   <time name="orth">    0.70    0.70</time>
   <time name="total">   30.73   30.73</time>
   <energy>
    <i name="e_fr_energy">   -880.43603097 </i>
    <i name="e_wo_entrp">   -880.36649770 </i>
    <i name="e_0_energy">   -880.41285321 </i>
   </energy>
  </scstep>
  <scstep>
   <time name="diag">    4.21    4.21</time>
   <time name="diis">   24.77   24.78</time>
   <time name="orth">    0.74    0.74</time>
   <time name="total">   32.22   32.23</time>
   <energy>
    <i name="e_fr_energy">   -880.43607279 </i>
    <i name="e_wo_entrp">   -880.36668393 </i>
    <i name="e_0_energy">   -880.41294317 </i>
   </energy>
  </scstep>
  <scstep>
   <time name="diag">    4.55    4.55</time>
   <time name="diis">   24.05   24.06</time>
   <time name="orth">    0.74    0.74</time>
   <time name="total">   31.83   31.84</time>
   <energy>
    <i name="e_fr_energy">   -880.43562970 </i>
    <i name="e_wo_entrp">   -880.36703390 </i>
    <i name="e_0_energy">   -880.41276444 </i>
   </energy>
  </scstep>
  <scstep>
   <time name="diag">    4.55    4.56</time>
   <time name="diis">   27.88   27.88</time>
   <time name="orth">    0.74    0.74</time>
   <time name="total">   35.68   35.69</time>
   <energy>
    <i name="e_fr_energy">   -880.43565517 </i>
    <i name="e_wo_entrp">   -880.36700862 </i>
    <i name="e_0_energy">   -880.41277298 </i>
   </energy>
  </scstep>
  <scstep>
   <time name="diag">    4.56    4.56</time>
   <time name="diis">   23.78   23.79</time>
   <time name="orth">    0.75    0.75</time>
   <time name="total">   31.61   31.62</time>
   <energy>
    <i name="e_fr_energy">   -880.43565523 </i>
    <i name="e_wo_entrp">   -880.36693308 </i>
    <i name="e_0_energy">   -880.41274785 </i>
   </energy>
  </scstep>
  <scstep>
   <time name="diag">    4.54    4.54</time>
   <time name="diis">   24.07   24.08</time>
   <time name="orth">    0.74    0.74</time>
   <time name="total">   31.84   31.85</time>
   <energy>
    <i name="e_fr_energy">   -880.43566658 </i>
    <i name="e_wo_entrp">   -880.36688728 </i>
    <i name="e_0_energy">   -880.41274015 </i>
   </energy>
  </scstep>
  <scstep>
   <time name="diag">    4.56    4.56</time>
   <time name="diis">   17.09   17.10</time>
   <time name="orth">    0.74    0.74</time>
   <time name="total">   22.75   22.76</time>
   <energy>
    <i name="alphaZ">   7285.19502192 </i>
    <i name="ewald"> -66187.06965542 </i>
    <i name="hartreedc">  -9362.92813917 </i>
    <i name="XCdc">    360.06579268 </i>
    <i name="pawpsdc">  57909.12768545 </i>
    <i name="pawaedc"> -58848.83969032 </i>
    <i name="eentropy">     -0.06878729 </i>
    <i name="bandstr">   3764.36355566 </i>
    <i name="atom">  64199.71855043 </i>
    <i name="e_fr_energy">   -880.43566606 </i>
    <i name="e_wo_entrp">   -880.36687877 </i>
    <i name="e_0_energy">   -880.41273697 </i>
   </energy>
  </scstep>
  <structure>
   <crystal>
    <varray name="basis" >
     <v>      10.34199390      -0.00000000       0.00000000 </v>
     <v>       0.00000000      10.34199390      -0.00000000 </v>
     <v>      -0.00000000      -0.00000000      10.34199390 </v>
    </varray>
    <i name="volume">   1106.14696417 </i>
    <varray name="rec_basis" >
     <v>       0.09669315      -0.00000000       0.00000000 </v>
     <v>       0.00000000       0.09669315       0.00000000 </v>
     <v>      -0.00000000       0.00000000       0.09669315 </v>
    </varray>
   </crystal>
   <varray name="positions" >
    <v>      -0.00000000      -0.00000000      -0.00000000 </v>
    <v>      -0.00000000       0.16666893       0.16666893 </v>
    <v>       0.16666893      -0.00000000       0.16666893 </v>
    <v>       0.16666893       0.16666893       0.00000000 </v>
    <v>       0.33333106      -0.00000000       0.00000000 </v>
    <v>       0.33333107       0.16666893       0.16666893 </v>
    <v>       0.50000000      -0.00000000       0.16666894 </v>
    <v>       0.50000000       0.16666894      -0.00000000 </v>
    <v>       0.66666897      -0.00000000       0.00000000 </v>
    <v>       0.66666896       0.16666893       0.16666893 </v>
    <v>       0.83333104      -0.00000000       0.16666893 </v>
    <v>       0.83333104       0.16666893       0.00000000 </v>
    <v>      -0.00000000       0.33333106       0.00000000 </v>
    <v>      -0.00000000       0.50000000       0.16666894 </v>
    <v>       0.16666893       0.33333107       0.16666893 </v>
    <v>       0.16666894       0.50000000       0.00000000 </v>
    <v>       0.33333107       0.33333107       0.00000000 </v>
    <v>       0.33333107       0.50000000       0.16666893 </v>
    <v>       0.50000000       0.33333107       0.16666893 </v>
    <v>       0.50000000       0.50000000      -0.00000000 </v>
    <v>       0.66666896       0.33333107      -0.00000000 </v>
    <v>       0.66666896       0.50000000       0.16666893 </v>
    <v>       0.83333104       0.33333107       0.16666893 </v>
    <v>       0.83333103       0.50000000      -0.00000000 </v>
    <v>      -0.00000000       0.66666897      -0.00000000 </v>
    <v>      -0.00000000       0.83333104       0.16666893 </v>
    <v>       0.16666893       0.66666896       0.16666893 </v>
    <v>       0.16666893       0.83333104       0.00000000 </v>
    <v>       0.33333107       0.66666896      -0.00000000 </v>
    <v>       0.33333107       0.83333104       0.16666893 </v>
    <v>       0.50000000       0.66666896       0.16666893 </v>
    <v>       0.50000000       0.83333103      -0.00000000 </v>
    <v>       0.66666896       0.66666896       0.00000000 </v>
    <v>       0.66666896       0.83333104       0.16666893 </v>
    <v>       0.83333104       0.66666896       0.16666893 </v>
    <v>       0.83333104       0.83333104       0.00000000 </v>
    <v>      -0.00000000       0.00000000       0.33333106 </v>
    <v>      -0.00000000       0.16666894       0.50000000 </v>
    <v>       0.16666894      -0.00000000       0.50000000 </v>
    <v>       0.16666893       0.16666893       0.33333107 </v>
    <v>       0.33333107       0.00000000       0.33333107 </v>
    <v>       0.33333107       0.16666893       0.50000000 </v>
    <v>       0.50000000       0.00000000       0.50000000 </v>
    <v>       0.50000000       0.16666893       0.33333107 </v>
    <v>       0.66666896       0.00000000       0.33333107 </v>
    <v>       0.66666896       0.16666893       0.50000000 </v>
    <v>       0.83333103      -0.00000000       0.50000000 </v>
    <v>       0.83333104       0.16666893       0.33333107 </v>
    <v>      -0.00000000       0.33333107       0.33333107 </v>
    <v>      -0.00000000       0.50000000       0.50000000 </v>
    <v>       0.16666893       0.33333107       0.50000000 </v>
    <v>       0.16666893       0.50000000       0.33333107 </v>
    <v>       0.33333107       0.33333107       0.33333107 </v>
    <v>       0.33333106       0.50000000       0.50000000 </v>
    <v>       0.50000000       0.33333106       0.50000000 </v>
    <v>       0.50000000       0.50000000       0.33333106 </v>
    <v>       0.66666896       0.33333107       0.33333107 </v>
    <v>       0.66666897       0.50000000       0.50000000 </v>
    <v>       0.83333104       0.33333107       0.50000000 </v>
    <v>       0.83333104       0.50000000       0.33333107 </v>
    <v>      -0.00000000       0.66666896       0.33333107 </v>
    <v>      -0.00000000       0.83333103       0.50000000 </v>
    <v>       0.16666893       0.66666896       0.50000000 </v>
    <v>       0.16666893       0.83333104       0.33333107 </v>
    <v>       0.33333107       0.66666896       0.33333107 </v>
    <v>       0.33333107       0.83333104       0.50000000 </v>
    <v>       0.50000000       0.66666897       0.50000000 </v>
    <v>       0.50000000       0.83333104       0.33333107 </v>
    <v>       0.66666896       0.66666896       0.33333107 </v>
    <v>       0.66666896       0.83333104       0.50000000 </v>
    <v>       0.83333104       0.66666896       0.50000000 </v>
    <v>       0.83333104       0.83333104       0.33333107 </v>
    <v>      -0.00000000      -0.00000000       0.66666897 </v>
    <v>      -0.00000000       0.16666893       0.83333104 </v>
    <v>       0.16666893      -0.00000000       0.83333104 </v>
    <v>       0.16666893       0.16666893       0.66666896 </v>
    <v>       0.33333107       0.00000000       0.66666896 </v>
    <v>       0.33333107       0.16666893       0.83333104 </v>
    <v>       0.50000000       0.00000000       0.83333103 </v>
    <v>       0.50000000       0.16666893       0.66666896 </v>
    <v>       0.66666896       0.00000000       0.66666896 </v>
    <v>       0.66666896       0.16666893       0.83333104 </v>
    <v>       0.83333104      -0.00000000       0.83333104 </v>
    <v>       0.83333104       0.16666893       0.66666896 </v>
    <v>      -0.00000000       0.33333107       0.66666896 </v>
    <v>      -0.00000000       0.50000000       0.83333103 </v>
    <v>       0.16666893       0.33333107       0.83333104 </v>
    <v>       0.16666893       0.50000000       0.66666896 </v>
    <v>       0.33333107       0.33333107       0.66666896 </v>
    <v>       0.33333107       0.50000000       0.83333104 </v>
    <v>       0.50000000       0.33333107       0.83333104 </v>
    <v>       0.50000000       0.50000000       0.66666897 </v>
    <v>       0.66666896       0.33333107       0.66666896 </v>
    <v>       0.66666896       0.50000000       0.83333104 </v>
    <v>       0.83333104       0.33333107       0.83333104 </v>
    <v>       0.83333104       0.50000000       0.66666896 </v>
    <v>      -0.00000000       0.66666896       0.66666896 </v>
    <v>      -0.00000000       0.83333104       0.83333104 </v>
    <v>       0.16666893       0.66666896       0.83333104 </v>
    <v>       0.16666893       0.83333104       0.66666896 </v>
    <v>       0.33333107       0.66666896       0.66666896 </v>
    <v>       0.33333107       0.83333104       0.83333104 </v>
    <v>       0.50000000       0.66666896       0.83333104 </v>
    <v>       0.50000000       0.83333104       0.66666896 </v>
    <v>       0.66666896       0.66666896       0.66666896 </v>
    <v>       0.66666896       0.83333104       0.83333104 </v>
    <v>       0.83333104       0.66666896       0.83333104 </v>
    <v>       0.83333104       0.83333104       0.66666896 </v>
   </varray>
  </structure>
  <varray name="forces" >
   <v>       0.00000000       0.00000000      -0.00000000 </v>
   <v>       0.00000000       0.00000000       0.00000000 </v>
   <v>       0.00000000       0.00000000       0.00000000 </v>
   <v>       0.00000000      -0.00000000      -0.00000000 </v>
   <v>      -0.00000000       0.00000000       0.00000000 </v>
   <v>      -0.00000000      -0.00000000       0.00000000 </v>
   <v>      -0.00000000      -0.00000000       0.00000000 </v>
   <v>      -0.00000000       0.00000000      -0.00000000 </v>
   <v>      -0.00000000      -0.00000000       0.00000000 </v>
   <v>      -0.00000000       0.00000000      -0.00000000 </v>
   <v>       0.00000000       0.00000000       0.00000000 </v>
   <v>       0.00000000       0.00000000      -0.00000000 </v>
   <v>       0.00000000      -0.00000000       0.00000000 </v>
   <v>       0.00000000      -0.00000000      -0.00000000 </v>
   <v>       0.00000000      -0.00000000      -0.00000000 </v>
   <v>       0.00000000       0.00000000       0.00000000 </v>
   <v>      -0.00000000       0.00000000       0.00000000 </v>
   <v>       0.00000000      -0.00000000       0.00000000 </v>
   <v>      -0.00000000      -0.00000000       0.00000000 </v>
   <v>      -0.00000000      -0.00000000       0.00000000 </v>
   <v>      -0.00000000      -0.00000000      -0.00000000 </v>
   <v>      -0.00000000       0.00000000       0.00000000 </v>
   <v>      -0.00000000      -0.00000000      -0.00000000 </v>
   <v>      -0.00000000       0.00000000      -0.00000000 </v>
   <v>       0.00000000       0.00000000       0.00000000 </v>
   <v>       0.00000000       0.00000000       0.00000000 </v>
   <v>       0.00000000       0.00000000      -0.00000000 </v>
   <v>       0.00000000      -0.00000000      -0.00000000 </v>
   <v>      -0.00000000       0.00000000       0.00000000 </v>
   <v>      -0.00000000      -0.00000000       0.00000000 </v>
   <v>      -0.00000000      -0.00000000      -0.00000000 </v>
   <v>      -0.00000000       0.00000000      -0.00000000 </v>
   <v>      -0.00000000      -0.00000000       0.00000000 </v>
   <v>      -0.00000000      -0.00000000      -0.00000000 </v>
   <v>       0.00000000       0.00000000      -0.00000000 </v>
   <v>      -0.00000000      -0.00000000      -0.00000000 </v>
   <v>       0.00000000       0.00000000       0.00000000 </v>
   <v>       0.00000000      -0.00000000       0.00000000 </v>
   <v>       0.00000000       0.00000000       0.00000000 </v>
   <v>       0.00000000      -0.00000000       0.00000000 </v>
   <v>      -0.00000000       0.00000000      -0.00000000 </v>
   <v>      -0.00000000      -0.00000000      -0.00000000 </v>
   <v>      -0.00000000       0.00000000       0.00000000 </v>
   <v>      -0.00000000      -0.00000000       0.00000000 </v>
   <v>      -0.00000000      -0.00000000       0.00000000 </v>
   <v>      -0.00000000      -0.00000000       0.00000000 </v>
   <v>       0.00000000       0.00000000       0.00000000 </v>
   <v>      -0.00000000       0.00000000       0.00000000 </v>
   <v>       0.00000000      -0.00000000      -0.00000000 </v>
   <v>       0.00000000       0.00000000       0.00000000 </v>
   <v>       0.00000000      -0.00000000      -0.00000000 </v>
   <v>       0.00000000      -0.00000000      -0.00000000 </v>
   <v>      -0.00000000       0.00000000      -0.00000000 </v>
   <v>      -0.00000000       0.00000000       0.00000000 </v>
   <v>       0.00000000      -0.00000000       0.00000000 </v>
   <v>      -0.00000000      -0.00000000       0.00000000 </v>
   <v>      -0.00000000       0.00000000      -0.00000000 </v>
   <v>      -0.00000000       0.00000000       0.00000000 </v>
   <v>      -0.00000000      -0.00000000       0.00000000 </v>
   <v>      -0.00000000      -0.00000000      -0.00000000 </v>
   <v>       0.00000000       0.00000000      -0.00000000 </v>
   <v>       0.00000000       0.00000000       0.00000000 </v>
   <v>       0.00000000       0.00000000       0.00000000 </v>
   <v>       0.00000000       0.00000000       0.00000000 </v>
   <v>       0.00000000      -0.00000000      -0.00000000 </v>
   <v>      -0.00000000      -0.00000000       0.00000000 </v>
   <v>      -0.00000000       0.00000000      -0.00000000 </v>
   <v>      -0.00000000      -0.00000000       0.00000000 </v>
   <v>      -0.00000000      -0.00000000      -0.00000000 </v>
   <v>      -0.00000000      -0.00000000      -0.00000000 </v>
   <v>       0.00000000       0.00000000      -0.00000000 </v>
   <v>       0.00000000      -0.00000000       0.00000000 </v>
   <v>       0.00000000       0.00000000      -0.00000000 </v>
   <v>       0.00000000      -0.00000000       0.00000000 </v>
   <v>       0.00000000       0.00000000      -0.00000000 </v>
   <v>      -0.00000000       0.00000000      -0.00000000 </v>
   <v>      -0.00000000       0.00000000       0.00000000 </v>
   <v>       0.00000000      -0.00000000       0.00000000 </v>
   <v>      -0.00000000       0.00000000      -0.00000000 </v>
   <v>      -0.00000000       0.00000000      -0.00000000 </v>
   <v>      -0.00000000      -0.00000000      -0.00000000 </v>
   <v>      -0.00000000       0.00000000      -0.00000000 </v>
   <v>       0.00000000      -0.00000000      -0.00000000 </v>
   <v>       0.00000000       0.00000000      -0.00000000 </v>
   <v>       0.00000000       0.00000000       0.00000000 </v>
   <v>       0.00000000       0.00000000       0.00000000 </v>
   <v>      -0.00000000      -0.00000000       0.00000000 </v>
   <v>       0.00000000       0.00000000       0.00000000 </v>
   <v>       0.00000000       0.00000000       0.00000000 </v>
   <v>       0.00000000      -0.00000000      -0.00000000 </v>
   <v>       0.00000000      -0.00000000       0.00000000 </v>
   <v>      -0.00000000      -0.00000000       0.00000000 </v>
   <v>      -0.00000000       0.00000000       0.00000000 </v>
   <v>      -0.00000000       0.00000000      -0.00000000 </v>
   <v>       0.00000000      -0.00000000      -0.00000000 </v>
   <v>      -0.00000000       0.00000000       0.00000000 </v>
   <v>       0.00000000       0.00000000       0.00000000 </v>
   <v>       0.00000000      -0.00000000      -0.00000000 </v>
   <v>       0.00000000       0.00000000       0.00000000 </v>
   <v>       0.00000000       0.00000000      -0.00000000 </v>
   <v>       0.00000000      -0.00000000      -0.00000000 </v>
   <v>      -0.00000000      -0.00000000       0.00000000 </v>
   <v>       0.00000000      -0.00000000      -0.00000000 </v>
   <v>      -0.00000000      -0.00000000      -0.00000000 </v>
   <v>      -0.00000000       0.00000000       0.00000000 </v>
   <v>      -0.00000000       0.00000000       0.00000000 </v>
   <v>       0.00000000      -0.00000000       0.00000000 </v>
   <v>      -0.00000000       0.00000000      -0.00000000 </v>
[...]
       <r>    -1.7919     2.8265     0.4103 </r>
       <r>    -1.7464     3.3365     0.5621 </r>
       <r>    -1.7009     3.6899     0.7301 </r>
       <r>    -1.6554     3.8705     0.9062 </r>
       <r>    -1.6099     3.9324     1.0852 </r>
       <r>    -1.5644     3.9628     1.2655 </r>
       <r>    -1.5189     4.0385     1.4493 </r>
       <r>    -1.4734     4.2087     1.6408 </r>
       <r>    -1.4279     4.4997     1.8456 </r>
       <r>    -1.3824     4.9219     2.0696 </r>
       <r>    -1.3368     5.4690     2.3185 </r>
       <r>    -1.2913     6.1044     2.5963 </r>
       <r>    -1.2458     6.7350     2.9028 </r>
       <r>    -1.2003     7.1988     3.2304 </r>
       <r>    -1.1548     7.3136     3.5632 </r>
       <r>    -1.1093     6.9858     3.8812 </r>
       <r>    -1.0638     6.3093     4.1683 </r>
       <r>    -1.0183     5.5593     4.4213 </r>
       <r>    -0.9728     5.0742     4.6522 </r>
       <r>    -0.9273     5.1026     4.8844 </r>
       <r>    -0.8818     5.7144     5.1445 </r>
       <r>    -0.8362     6.8091     5.4543 </r>
       <r>    -0.7907     8.1842     5.8268 </r>
       <r>    -0.7452     9.5929     6.2634 </r>
       <r>    -0.6997    10.7567     6.7529 </r>
       <r>    -0.6542    11.3749     7.2706 </r>
       <r>    -0.6087    11.2074     7.7806 </r>
       <r>    -0.5632    10.2271     8.2460 </r>
       <r>    -0.5177     8.7287     8.6432 </r>
       <r>    -0.4722     7.2619     8.9737 </r>
       <r>    -0.4267     6.3946     9.2647 </r>
       <r>    -0.3812     6.4533     9.5584 </r>
       <r>    -0.3356     7.4027     9.8953 </r>
       <r>    -0.2901     8.9119    10.3009 </r>
       <r>    -0.2446    10.5255    10.7799 </r>
       <r>    -0.1991    11.8288    11.3182 </r>
       <r>    -0.1536    12.5522    11.8894 </r>
       <r>    -0.1081    12.6261    12.4641 </r>
       <r>    -0.0626    12.2009    13.0193 </r>
       <r>    -0.0171    11.6021    13.5473 </r>
       <r>     0.0284    11.1979    14.0569 </r>
       <r>     0.0739    11.2269    14.5678 </r>
       <r>     0.1194    11.6958    15.1001 </r>
       <r>     0.1650    12.4160    15.6651 </r>
       <r>     0.2105    13.1434    16.2633 </r>
       <r>     0.2560    13.7064    16.8870 </r>
       <r>     0.3015    14.0420    17.5261 </r>
       <r>     0.3470    14.1477    18.1699 </r>
       <r>     0.3925    14.0250    18.8082 </r>
       <r>     0.4380    13.6707    19.4303 </r>
       <r>     0.4835    13.1172    20.0273 </r>
       <r>     0.5290    12.4895    20.5957 </r>
       <r>     0.5745    12.0433    21.1437 </r>
       <r>     0.6200    12.1394    21.6962 </r>
       <r>     0.6656    13.1044    22.2926 </r>
       <r>     0.7111    15.0058    22.9755 </r>
       <r>     0.7566    17.4832    23.7711 </r>
       <r>     0.8021    19.8232    24.6732 </r>
       <r>     0.8476    21.3049    25.6428 </r>
       <r>     0.8931    21.6106    26.6263 </r>
       <r>     0.9386    20.9874    27.5814 </r>
       <r>     0.9841    20.0179    28.4924 </r>
       <r>     1.0296    19.1709    29.3648 </r>
       <r>     1.0751    18.5056    30.2070 </r>
       <r>     1.1206    17.7840    31.0163 </r>
       <r>     1.1662    16.8895    31.7850 </r>
       <r>     1.2117    16.1682    32.5208 </r>
       <r>     1.2572    16.3604    33.2653 </r>
       <r>     1.3027    18.1425    34.0910 </r>
       <r>     1.3482    21.6151    35.0746 </r>
       <r>     1.3937    26.0971    36.2623 </r>
       <r>     1.4392    30.3471    37.6434 </r>
       <r>     1.4847    33.0755    39.1486 </r>
       <r>     1.5302    33.4953    40.6729 </r>
       <r>     1.5757    31.6877    42.1150 </r>
       <r>     1.6212    28.6512    43.4189 </r>
       <r>     1.6668    26.0199    44.6030 </r>
       <r>     1.7123    25.5561    45.7661 </r>
       <r>     1.7578    28.5891    47.0671 </r>
       <r>     1.8033    35.5810    48.6864 </r>
       <r>     1.8488    45.9723    50.7785 </r>
       <r>     1.8943    58.3974    53.4361 </r>
       <r>     1.9398    71.1967    56.6762 </r>
       <r>     1.9853    82.9495    60.4512 </r>
       <r>     2.0308    92.7105    64.6703 </r>
       <r>     2.0763    99.9039    69.2169 </r>
       <r>     2.1218   104.1722    73.9576 </r>
       <r>     2.1674   105.4835    78.7581 </r>
       <r>     2.2129   104.4320    83.5107 </r>
       <r>     2.2584   102.3384    88.1680 </r>
       <r>     2.3039   100.8696    92.7585 </r>
       <r>     2.3494   101.3085    97.3689 </r>
       <r>     2.3949   103.9246   102.0984 </r>
       <r>     2.4404   107.8794   107.0079 </r>
       <r>     2.4859   111.8048   112.0960 </r>
       <r>     2.5314   114.7578   117.3185 </r>
       <r>     2.5769   116.9128   122.6391 </r>
       <r>     2.6224   119.4222   128.0739 </r>
       <r>     2.6679   123.4745   133.6931 </r>
       <r>     2.7135   129.2927   139.5771 </r>
       <r>     2.7590   135.9405   145.7636 </r>
       <r>     2.8045   142.1206   152.2314 </r>
       <r>     2.8500   147.2419   158.9322 </r>
       <r>     2.8955   151.7868   165.8399 </r>
       <r>     2.9410   156.6568   172.9692 </r>
       <r>     2.9865   162.1057   180.3464 </r>
       <r>     3.0320   167.2315   187.9570 </r>
       <r>     3.0775   170.4937   195.7160 </r>
       <r>     3.1230   170.8238   203.4900 </r>
       <r>     3.1685   168.3828   211.1529 </r>
       <r>     3.2141   164.3553   218.6326 </r>
       <r>     3.2596   160.0505   225.9163 </r>
       <r>     3.3051   156.1807   233.0239 </r>
       <r>     3.3506   152.9048   239.9825 </r>
       <r>     3.3961   150.3718   246.8257 </r>
       <r>     3.4416   148.9949   253.6064 </r>
       <r>     3.4871   149.0764   260.3907 </r>
       <r>     3.5326   150.2055   267.2264 </r>
       <r>     3.5781   151.1542   274.1052 </r>
       <r>     3.6236   150.5012   280.9544 </r>
       <r>     3.6691   147.5271   287.6682 </r>
       <r>     3.7147   142.7222   294.1634 </r>
       <r>     3.7602   137.5813   300.4245 </r>
       <r>     3.8057   133.8067   306.5140 </r>
       <r>     3.8512   132.3286   312.5361 </r>
       <r>     3.8967   132.6883   318.5746 </r>
       <r>     3.9422   133.2602   324.6391 </r>
       <r>     3.9877   132.3532   330.6624 </r>
       <r>     4.0332   129.5403   336.5577 </r>
       <r>     4.0787   126.1923   342.3005 </r>
       <r>     4.1242   124.6604   347.9737 </r>
       <r>     4.1697   126.6499   353.7374 </r>
       <r>     4.2153   132.1107   359.7496 </r>
       <r>     4.2608   139.5869   366.1021 </r>
       <r>     4.3063   147.6386   372.8210 </r>
       <r>     4.3518   155.9198   379.9167 </r>
       <r>     4.3973   164.8626   387.4195 </r>
       <r>     4.4428   174.3651   395.3547 </r>
       <r>     4.4883   182.9074   403.6786 </r>
       <r>     4.5338   188.0794   412.2379 </r>
       <r>     4.5793   188.1355   420.7997 </r>
       <r>     4.6248   183.3375   429.1433 </r>
       <r>     4.6703   176.1769   437.1609 </r>
       <r>     4.7159   170.4582   444.9183 </r>
       <r>     4.7614   169.7932   452.6454 </r>
       <r>     4.8069   176.1180   460.6603 </r>
       <r>     4.8524   188.7816   469.2516 </r>
       <r>     4.8979   204.6710   478.5660 </r>
       <r>     4.9434   219.4818   488.5544 </r>
       <r>     4.9889   229.5928   499.0029 </r>
       <r>     5.0344   233.5256   509.6304 </r>
       <r>     5.0799   232.2115   520.1981 </r>
       <r>     5.1254   228.1166   530.5795 </r>
       <r>     5.1709   224.0055   540.7738 </r>
       <r>     5.2165   222.1397   550.8831 </r>
       <r>     5.2620   224.0852   561.0810 </r>
       <r>     5.3075   230.6565   571.5780 </r>
       <r>     5.3530   241.4856   582.5677 </r>
       <r>     5.3985   254.3490   594.1429 </r>
       <r>     5.4440   265.0876   606.2068 </r>
       <r>     5.4895   268.8710   618.4428 </r>
       <r>     5.5350   262.5132   630.3895 </r>
       <r>     5.5805   246.4087   641.6033 </r>
       <r>     5.6260   224.5907   651.8242 </r>
       <r>     5.6715   202.6553   661.0469 </r>
       <r>     5.7171   184.8766   669.4604 </r>
       <r>     5.7626   172.4195   677.3071 </r>
       <r>     5.8081   163.6908   684.7565 </r>
       <r>     5.8536   156.3007   691.8695 </r>
       <r>     5.8991   149.0822   698.6541 </r>
       <r>     5.9446   142.8220   705.1538 </r>
       <r>     5.9901   139.4616   711.5006 </r>
       <r>     6.0356   140.5837   717.8984 </r>
       <r>     6.0811   146.2938   724.5561 </r>
       <r>     6.1266   155.1160   731.6153 </r>
       <r>     6.1721   164.7883   739.1146 </r>
       <r>     6.2177   173.3935   747.0056 </r>
       <r>     6.2632   180.2249   755.2074 </r>
       <r>     6.3087   185.9488   763.6698 </r>
       <r>     6.3542   191.9003   772.4030 </r>
       <r>     6.3997   198.8273   781.4514 </r>
       <r>     6.4452   205.9499   790.8240 </r>
       <r>     6.4907   211.2299   800.4368 </r>
       <r>     6.5362   212.8688   810.1243 </r>
       <r>     6.5817   210.8628   819.7204 </r>
       <r>     6.6272   207.1611   829.1481 </r>
       <r>     6.6727   204.0969   838.4364 </r>
       <r>     6.7182   202.3621   847.6457 </r>
       <r>     6.7638   200.3462   856.7632 </r>
       <r>     6.8093   195.5531   865.6626 </r>
       <r>     6.8548   186.9856   874.1722 </r>
       <r>     6.9003   176.4817   882.2037 </r>
       <r>     6.9458   167.8131   889.8407 </r>
       <r>     6.9913   164.2194   897.3141 </r>
       <r>     7.0368   166.3242   904.8834 </r>
       <r>     7.0823   171.9860   912.7103 </r>
       <r>     7.1278   177.9943   920.8106 </r>
       <r>     7.1733   182.1307   929.0992 </r>
       <r>     7.2188   184.1253   937.4786 </r>
       <r>     7.2644   185.2127   945.9074 </r>
       <r>     7.3099   187.0611   954.4204 </r>
       <r>     7.3554   190.9160   963.1088 </r>
       <r>     7.4009   197.1376   972.0803 </r>
       <r>     7.4464   204.8529   981.4030 </r>
       <r>     7.4919   211.6441   991.0347 </r>
       <r>     7.5374   213.6593  1000.7581 </r>
       <r>     7.5829   206.5963  1010.1601 </r>
       <r>     7.6284   187.4777  1018.6920 </r>
       <r>     7.6739   156.4121  1025.8101 </r>
       <r>     7.7194   117.2464  1031.1459 </r>
       <r>     7.7650    76.4875  1034.6268 </r>
       <r>     7.8105    40.8908  1036.4877 </r>
       <r>     7.8560    14.9855  1037.1697 </r>
       <r>     7.9015    -0.1553  1037.1626 </r>
       <r>     7.9470    -6.4397  1036.8695 </r>
       <r>     7.9925    -7.1783  1036.5428 </r>
       <r>     8.0380    -5.4805  1036.2934 </r>
       <r>     8.0835    -3.3792  1036.1396 </r>
       <r>     8.1290    -1.7715  1036.0590 </r>
       <r>     8.1745    -0.8076  1036.0223 </r>
       <r>     8.2200    -0.3240  1036.0075 </r>
       <r>     8.2656    -0.1152  1036.0023 </r>
       <r>     8.3111    -0.0365  1036.0006 </r>
       <r>     8.3566    -0.0103  1036.0002 </r>
       <r>     8.4021    -0.0026  1036.0000 </r>
       <r>     8.4476    -0.0006  1036.0000 </r>
       <r>     8.4931    -0.0001  1036.0000 </r>
       <r>     8.5386    -0.0000  1036.0000 </r>
       <r>     8.5841    -0.0000  1036.0000 </r>
       <r>     8.6296    -0.0000  1036.0000 </r>
       <r>     8.6751    -0.0000  1036.0000 </r>
       <r>     8.7206    -0.0000  1036.0000 </r>
       <r>     8.7662    -0.0000  1036.0000 </r>
       <r>     8.8117    -0.0000  1036.0000 </r>
       <r>     8.8572    -0.0000  1036.0000 </r>
       <r>     8.9027    -0.0000  1036.0000 </r>
       <r>     8.9482    -0.0000  1036.0000 </r>
       <r>     8.9937     0.0000  1036.0000 </r>
       <r>     9.0392     0.0000  1036.0000 </r>
       <r>     9.0847     0.0000  1036.0000 </r>
       <r>     9.1302     0.0000  1036.0000 </r>
       <r>     9.1757     0.0000  1036.0000 </r>
       <r>     9.2212     0.0000  1036.0000 </r>
       <r>     9.2668     0.0000  1036.0000 </r>
       <r>     9.3123     0.0000  1036.0000 </r>
       <r>     9.3578     0.0000  1036.0000 </r>
       <r>     9.4033     0.0000  1036.0000 </r>
       <r>     9.4488     0.0000  1036.0000 </r>
       <r>     9.4943     0.0000  1036.0000 </r>
       <r>     9.5398     0.0000  1036.0000 </r>
       <r>     9.5853     0.0000  1036.0000 </r>
       <r>     9.6308     0.0000  1036.0000 </r>
       <r>     9.6763     0.0000  1036.0000 </r>
       <r>     9.7218     0.0000  1036.0000 </r>
      </set>
     </set>
    </array>
   </total>
  </dos>
 </calculation>
 <structure name="finalpos" >
  <crystal>
   <varray name="basis" >
    <v>      10.33750745      -0.00000000       0.00000000 </v>
    <v>       0.00000000      10.33750745      -0.00000000 </v>
    <v>      -0.00000000      -0.00000000      10.33750745 </v>
   </varray>
   <i name="volume">   1104.70801776 </i>
   <varray name="rec_basis" >
    <v>       0.09673512      -0.00000000       0.00000000 </v>
    <v>       0.00000000       0.09673512       0.00000000 </v>
    <v>      -0.00000000       0.00000000       0.09673512 </v>
   </varray>
  </crystal>
  <varray name="positions" >
   <v>      -0.00000000      -0.00000000      -0.00000000 </v>
   <v>      -0.00000000       0.16666893       0.16666893 </v>
   <v>       0.16666893      -0.00000000       0.16666893 </v>
   <v>       0.16666893       0.16666893       0.00000000 </v>
   <v>       0.33333106      -0.00000000       0.00000000 </v>
   <v>       0.33333107       0.16666893       0.16666893 </v>
   <v>       0.50000000      -0.00000000       0.16666894 </v>
   <v>       0.50000000       0.16666894      -0.00000000 </v>
   <v>       0.66666897      -0.00000000       0.00000000 </v>
   <v>       0.66666896       0.16666893       0.16666893 </v>
   <v>       0.83333104      -0.00000000       0.16666893 </v>
   <v>       0.83333104       0.16666893       0.00000000 </v>
   <v>      -0.00000000       0.33333106       0.00000000 </v>
   <v>      -0.00000000       0.50000000       0.16666894 </v>
   <v>       0.16666893       0.33333107       0.16666893 </v>
   <v>       0.16666894       0.50000000       0.00000000 </v>
   <v>       0.33333107       0.33333107       0.00000000 </v>
   <v>       0.33333107       0.50000000       0.16666893 </v>
   <v>       0.50000000       0.33333107       0.16666893 </v>
   <v>       0.50000000       0.50000000      -0.00000000 </v>
   <v>       0.66666896       0.33333107      -0.00000000 </v>
   <v>       0.66666896       0.50000000       0.16666893 </v>
   <v>       0.83333104       0.33333107       0.16666893 </v>
   <v>       0.83333103       0.50000000      -0.00000000 </v>
   <v>      -0.00000000       0.66666897      -0.00000000 </v>
   <v>      -0.00000000       0.83333104       0.16666893 </v>
   <v>       0.16666893       0.66666896       0.16666893 </v>
   <v>       0.16666893       0.83333104       0.00000000 </v>
   <v>       0.33333107       0.66666896      -0.00000000 </v>
   <v>       0.33333107       0.83333104       0.16666893 </v>
   <v>       0.50000000       0.66666896       0.16666893 </v>
   <v>       0.50000000       0.83333103      -0.00000000 </v>
   <v>       0.66666896       0.66666896       0.00000000 </v>
   <v>       0.66666896       0.83333104       0.16666893 </v>
   <v>       0.83333104       0.66666896       0.16666893 </v>
   <v>       0.83333104       0.83333104       0.00000000 </v>
   <v>      -0.00000000       0.00000000       0.33333106 </v>
   <v>      -0.00000000       0.16666894       0.50000000 </v>
   <v>       0.16666894      -0.00000000       0.50000000 </v>
   <v>       0.16666893       0.16666893       0.33333107 </v>
   <v>       0.33333107       0.00000000       0.33333107 </v>
   <v>       0.33333107       0.16666893       0.50000000 </v>
   <v>       0.50000000       0.00000000       0.50000000 </v>
   <v>       0.50000000       0.16666893       0.33333107 </v>
   <v>       0.66666896       0.00000000       0.33333107 </v>
   <v>       0.66666896       0.16666893       0.50000000 </v>
   <v>       0.83333103      -0.00000000       0.50000000 </v>
   <v>       0.83333104       0.16666893       0.33333107 </v>
   <v>      -0.00000000       0.33333107       0.33333107 </v>
   <v>      -0.00000000       0.50000000       0.50000000 </v>
   <v>       0.16666893       0.33333107       0.50000000 </v>
   <v>       0.16666893       0.50000000       0.33333107 </v>
   <v>       0.33333107       0.33333107       0.33333107 </v>
   <v>       0.33333106       0.50000000       0.50000000 </v>
   <v>       0.50000000       0.33333106       0.50000000 </v>
   <v>       0.50000000       0.50000000       0.33333106 </v>
   <v>       0.66666896       0.33333107       0.33333107 </v>
   <v>       0.66666897       0.50000000       0.50000000 </v>
   <v>       0.83333104       0.33333107       0.50000000 </v>
   <v>       0.83333104       0.50000000       0.33333107 </v>
   <v>      -0.00000000       0.66666896       0.33333107 </v>
   <v>      -0.00000000       0.83333103       0.50000000 </v>
   <v>       0.16666893       0.66666896       0.50000000 </v>
   <v>       0.16666893       0.83333104       0.33333107 </v>
   <v>       0.33333107       0.66666896       0.33333107 </v>
   <v>       0.33333107       0.83333104       0.50000000 </v>
   <v>       0.50000000       0.66666897       0.50000000 </v>
   <v>       0.50000000       0.83333104       0.33333107 </v>
   <v>       0.66666896       0.66666896       0.33333107 </v>
   <v>       0.66666896       0.83333104       0.50000000 </v>
   <v>       0.83333104       0.66666896       0.50000000 </v>
   <v>       0.83333104       0.83333104       0.33333107 </v>
   <v>      -0.00000000      -0.00000000       0.66666897 </v>
   <v>      -0.00000000       0.16666893       0.83333104 </v>
   <v>       0.16666893      -0.00000000       0.83333104 </v>
   <v>       0.16666893       0.16666893       0.66666896 </v>
   <v>       0.33333107       0.00000000       0.66666896 </v>
   <v>       0.33333107       0.16666893       0.83333104 </v>
   <v>       0.50000000       0.00000000       0.83333103 </v>
   <v>       0.50000000       0.16666893       0.66666896 </v>
   <v>       0.66666896       0.00000000       0.66666896 </v>
   <v>       0.66666896       0.16666893       0.83333104 </v>
   <v>       0.83333104      -0.00000000       0.83333104 </v>
   <v>       0.83333104       0.16666893       0.66666896 </v>
   <v>      -0.00000000       0.33333107       0.66666896 </v>
   <v>      -0.00000000       0.50000000       0.83333103 </v>
   <v>       0.16666893       0.33333107       0.83333104 </v>
   <v>       0.16666893       0.50000000       0.66666896 </v>
   <v>       0.33333107       0.33333107       0.66666896 </v>
   <v>       0.33333107       0.50000000       0.83333104 </v>
   <v>       0.50000000       0.33333107       0.83333104 </v>
   <v>       0.50000000       0.50000000       0.66666897 </v>
   <v>       0.66666896       0.33333107       0.66666896 </v>
   <v>       0.66666896       0.50000000       0.83333104 </v>
   <v>       0.83333104       0.33333107       0.83333104 </v>
   <v>       0.83333104       0.50000000       0.66666896 </v>
   <v>      -0.00000000       0.66666896       0.66666896 </v>
   <v>      -0.00000000       0.83333104       0.83333104 </v>
   <v>       0.16666893       0.66666896       0.83333104 </v>
   <v>       0.16666893       0.83333104       0.66666896 </v>
   <v>       0.33333107       0.66666896       0.66666896 </v>
   <v>       0.33333107       0.83333104       0.83333104 </v>
   <v>       0.50000000       0.66666896       0.83333104 </v>
   <v>       0.50000000       0.83333104       0.66666896 </v>
   <v>       0.66666896       0.66666896       0.66666896 </v>
   <v>       0.66666896       0.83333104       0.83333104 </v>
   <v>       0.83333104       0.66666896       0.83333104 </v>
   <v>       0.83333104       0.83333104       0.66666896 </v>
  </varray>
 </structure>
</modeling>
