 108 108   0   0
  0.1022088E+02  0.1033485E-08  0.1033485E-08  0.1033485E-08  0.5000000E-15
  1.000000000000000E-004
  CAR 
 Opt                                     
      9.82476485     -3.92620125  301      6.80383177      1.00000000
     -3.926  0.0000E+00  0.0000E+00
     -3.880  0.0000E+00  0.0000E+00
     -3.835  0.0000E+00  0.0000E+00
     -3.789  0.0000E+00  0.0000E+00
     -3.743  0.0000E+00  0.0000E+00
     -3.697  0.0000E+00  0.0000E+00
     -3.651  0.0000E+00  0.0000E+00
     -3.605  0.0000E+00  0.0000E+00
     -3.560 -0.1365E-29 -0.6255E-31
     -3.514 -0.5179E-28 -0.2436E-29
     -3.468 -0.1809E-26 -0.8537E-28
     -3.422 -0.5683E-25 -0.2690E-26
     -3.376 -0.1605E-23 -0.7626E-25
     -3.330 -0.4075E-22 -0.1944E-23
     -3.284 -0.9300E-21 -0.4457E-22
     -3.239 -0.1907E-19 -0.9189E-21
     -3.193 -0.3516E-18 -0.1703E-19
     -3.147 -0.5823E-17 -0.2839E-18
     -3.101 -0.8360E-16 -0.4116E-17
     -3.055 -0.1121E-14 -0.5550E-16
     -3.009 -0.1342E-13 -0.6705E-15
     -2.964 -0.1440E-12 -0.7273E-14
     -2.918 -0.1387E-11 -0.7085E-13
     -2.872 -0.1198E-10 -0.6198E-12
     -2.826 -0.9264E-10 -0.4866E-11
     -2.780 -0.6417E-09 -0.3428E-10
     -2.734 -0.3978E-08 -0.2166E-09
     -2.689 -0.2204E-07 -0.1227E-08
     -2.643 -0.1090E-06 -0.6225E-08
     -2.597 -0.4810E-06 -0.2827E-07
     -2.551 -0.1888E-05 -0.1148E-06
     -2.505 -0.6581E-05 -0.4165E-06
     -2.459 -0.2030E-04 -0.1347E-05
     -2.414 -0.5515E-04 -0.3874E-05
     -2.368 -0.1312E-03 -0.9886E-05
     -2.322 -0.2703E-03 -0.2228E-04
     -2.276 -0.4747E-03 -0.4404E-04
     -2.230 -0.6864E-03 -0.7550E-04
     -2.184 -0.7488E-03 -0.1098E-03
     -2.139 -0.4106E-03 -0.1286E-03
     -2.093  0.5975E-03 -0.1013E-03
     -2.047  0.2449E-02  0.1101E-04
     -2.001  0.5173E-02  0.2481E-03
     -1.955  0.8734E-02  0.6485E-03
     -1.909  0.1315E-01  0.1251E-02
     -1.864  0.1843E-01  0.2096E-02
     -1.818  0.2431E-01  0.3210E-02
     -1.772  0.3007E-01  0.4588E-02
     -1.726  0.3474E-01  0.6181E-02
     -1.680  0.3768E-01  0.7908E-02
     -1.634  0.3899E-01  0.9696E-02
     -1.589  0.3940E-01  0.1150E-01
     -1.543  0.3979E-01  0.1333E-01
     -1.497  0.4086E-01  0.1520E-01
     -1.451  0.4301E-01  0.1717E-01
     -1.405  0.4643E-01  0.1930E-01
     -1.359  0.5119E-01  0.2164E-01
     -1.314  0.5712E-01  0.2426E-01
     -1.268  0.6365E-01  0.2718E-01
     -1.222  0.6954E-01  0.3037E-01
     -1.176  0.7296E-01  0.3371E-01
     -1.130  0.7226E-01  0.3702E-01
     -1.084  0.6722E-01  0.4010E-01
     -1.038  0.5966E-01  0.4284E-01
     -0.993  0.5289E-01  0.4526E-01
     -0.947  0.5011E-01  0.4756E-01
     -0.901  0.5309E-01  0.4999E-01
     -0.855  0.6170E-01  0.5282E-01
     -0.809  0.7434E-01  0.5623E-01
     -0.763  0.8867E-01  0.6029E-01
     -0.718  0.1020E+00  0.6497E-01
     -0.672  0.1114E+00  0.7008E-01
     -0.626  0.1140E+00  0.7530E-01
     -0.580  0.1080E+00  0.8025E-01
     -0.534  0.9490E-01  0.8460E-01
     -0.488  0.7921E-01  0.8823E-01
     -0.443  0.6698E-01  0.9130E-01
     -0.397  0.6300E-01  0.9419E-01
     -0.351  0.6867E-01  0.9734E-01
     -0.305  0.8183E-01  0.1011E+00
     -0.259  0.9817E-01  0.1056E+00
     -0.213  0.1131E+00  0.1108E+00
     -0.168  0.1232E+00  0.1164E+00
     -0.122  0.1267E+00  0.1222E+00
     -0.076  0.1242E+00  0.1279E+00
     -0.030  0.1184E+00  0.1333E+00
      0.016  0.1132E+00  0.1385E+00
      0.062  0.1116E+00  0.1436E+00
      0.107  0.1147E+00  0.1489E+00
      0.153  0.1212E+00  0.1545E+00
      0.199  0.1288E+00  0.1604E+00
      0.245  0.1352E+00  0.1666E+00
      0.291  0.1394E+00  0.1730E+00
      0.337  0.1413E+00  0.1794E+00
      0.382  0.1409E+00  0.1859E+00
      0.428  0.1382E+00  0.1922E+00
      0.474  0.1332E+00  0.1983E+00
      0.520  0.1270E+00  0.2042E+00
      0.566  0.1215E+00  0.2097E+00
      0.612  0.1203E+00  0.2152E+00
      0.657  0.1270E+00  0.2211E+00
      0.703  0.1435E+00  0.2276E+00
      0.749  0.1673E+00  0.2353E+00
      0.795  0.1922E+00  0.2441E+00
      0.841  0.2101E+00  0.2537E+00
      0.887  0.2165E+00  0.2637E+00
      0.932  0.2123E+00  0.2734E+00
      0.978  0.2028E+00  0.2827E+00
      1.024  0.1938E+00  0.2916E+00
      1.070  0.1867E+00  0.3001E+00
      1.116  0.1798E+00  0.3084E+00
      1.162  0.1711E+00  0.3162E+00
      1.207  0.1629E+00  0.3237E+00
      1.253  0.1623E+00  0.3311E+00
      1.299  0.1767E+00  0.3392E+00
      1.345  0.2086E+00  0.3488E+00
      1.391  0.2527E+00  0.3604E+00
      1.437  0.2970E+00  0.3740E+00
      1.483  0.3279E+00  0.3890E+00
      1.528  0.3362E+00  0.4044E+00
      1.574  0.3210E+00  0.4191E+00
      1.620  0.2915E+00  0.4325E+00
      1.666  0.2637E+00  0.4446E+00
      1.712  0.2562E+00  0.4563E+00
      1.758  0.2836E+00  0.4693E+00
      1.803  0.3516E+00  0.4854E+00
      1.849  0.4553E+00  0.5063E+00
      1.895  0.5808E+00  0.5329E+00
      1.941  0.7108E+00  0.5655E+00
      1.987  0.8301E+00  0.6036E+00
      2.033  0.9289E+00  0.6461E+00
      2.078  0.1001E+01  0.6920E+00
      2.124  0.1044E+01  0.7399E+00
      2.170  0.1057E+01  0.7883E+00
      2.216  0.1046E+01  0.8363E+00
      2.262  0.1025E+01  0.8833E+00
      2.308  0.1009E+01  0.9295E+00
      2.353  0.1013E+01  0.9760E+00
      2.399  0.1039E+01  0.1024E+01
      2.445  0.1080E+01  0.1073E+01
      2.491  0.1120E+01  0.1124E+01
      2.537  0.1151E+01  0.1177E+01
      2.583  0.1174E+01  0.1231E+01
      2.628  0.1201E+01  0.1286E+01
      2.674  0.1244E+01  0.1343E+01
      2.720  0.1303E+01  0.1403E+01
      2.766  0.1369E+01  0.1466E+01
      2.812  0.1429E+01  0.1531E+01
      2.858  0.1479E+01  0.1599E+01
      2.903  0.1525E+01  0.1669E+01
      2.949  0.1576E+01  0.1741E+01
      2.995  0.1631E+01  0.1816E+01
      3.041  0.1681E+01  0.1893E+01
      3.087  0.1709E+01  0.1971E+01
      3.133  0.1706E+01  0.2049E+01
      3.178  0.1676E+01  0.2126E+01
      3.224  0.1634E+01  0.2201E+01
      3.270  0.1591E+01  0.2274E+01
      3.316  0.1553E+01  0.2345E+01
      3.362  0.1522E+01  0.2415E+01
      3.408  0.1498E+01  0.2484E+01
      3.453  0.1488E+01  0.2552E+01
      3.499  0.1492E+01  0.2620E+01
      3.545  0.1505E+01  0.2689E+01
      3.591  0.1512E+01  0.2759E+01
      3.637  0.1500E+01  0.2827E+01
      3.683  0.1464E+01  0.2894E+01
      3.729  0.1413E+01  0.2959E+01
      3.774  0.1363E+01  0.3022E+01
      3.820  0.1331E+01  0.3083E+01
      3.866  0.1322E+01  0.3143E+01
      3.912  0.1328E+01  0.3204E+01
      3.958  0.1331E+01  0.3265E+01
      4.004  0.1316E+01  0.3325E+01
      4.049  0.1283E+01  0.3384E+01
      4.095  0.1253E+01  0.3442E+01
      4.141  0.1247E+01  0.3499E+01
      4.187  0.1280E+01  0.3558E+01
      4.233  0.1343E+01  0.3619E+01
      4.279  0.1422E+01  0.3684E+01
      4.324  0.1503E+01  0.3753E+01
      4.370  0.1588E+01  0.3826E+01
      4.416  0.1681E+01  0.3903E+01
      4.462  0.1776E+01  0.3984E+01
      4.508  0.1852E+01  0.4069E+01
      4.554  0.1886E+01  0.4156E+01
      4.599  0.1866E+01  0.4241E+01
      4.645  0.1804E+01  0.4324E+01
      4.691  0.1733E+01  0.4403E+01
      4.737  0.1692E+01  0.4481E+01
      4.783  0.1713E+01  0.4559E+01
      4.829  0.1806E+01  0.4642E+01
      4.874  0.1952E+01  0.4732E+01
      4.920  0.2113E+01  0.4828E+01
      4.966  0.2245E+01  0.4931E+01
      5.012  0.2320E+01  0.5038E+01
      5.058  0.2334E+01  0.5145E+01
      5.104  0.2304E+01  0.5250E+01
      5.149  0.2260E+01  0.5354E+01
      5.195  0.2227E+01  0.5456E+01
      5.241  0.2225E+01  0.5558E+01
      5.287  0.2267E+01  0.5662E+01
      5.333  0.2355E+01  0.5770E+01
      5.379  0.2478E+01  0.5883E+01
      5.424  0.2602E+01  0.6003E+01
      5.470  0.2680E+01  0.6125E+01
      5.516  0.2667E+01  0.6248E+01
      5.562  0.2549E+01  0.6365E+01
      5.608  0.2350E+01  0.6472E+01
      5.654  0.2123E+01  0.6570E+01
      5.699  0.1922E+01  0.6658E+01
      5.745  0.1773E+01  0.6739E+01
      5.791  0.1672E+01  0.6816E+01
      5.837  0.1595E+01  0.6889E+01
      5.883  0.1522E+01  0.6958E+01
      5.929  0.1453E+01  0.7025E+01
      5.974  0.1404E+01  0.7089E+01
      6.020  0.1394E+01  0.7153E+01
      6.066  0.1433E+01  0.7219E+01
      6.112  0.1512E+01  0.7288E+01
      6.158  0.1610E+01  0.7362E+01
      6.204  0.1704E+01  0.7440E+01
      6.250  0.1781E+01  0.7522E+01
      6.295  0.1842E+01  0.7606E+01
      6.341  0.1899E+01  0.7693E+01
      6.387  0.1964E+01  0.7783E+01
      6.433  0.2036E+01  0.7877E+01
      6.479  0.2097E+01  0.7973E+01
      6.525  0.2125E+01  0.8070E+01
      6.570  0.2115E+01  0.8167E+01
      6.616  0.2080E+01  0.8262E+01
      6.662  0.2046E+01  0.8356E+01
      6.708  0.2026E+01  0.8449E+01
      6.754  0.2010E+01  0.8541E+01
      6.800  0.1973E+01  0.8632E+01
      6.845  0.1897E+01  0.8719E+01
      6.891  0.1794E+01  0.8801E+01
      6.937  0.1698E+01  0.8879E+01
      6.983  0.1647E+01  0.8954E+01
      7.029  0.1655E+01  0.9030E+01
      7.075  0.1706E+01  0.9108E+01
      7.120  0.1769E+01  0.9189E+01
      7.166  0.1815E+01  0.9272E+01
      7.212  0.1836E+01  0.9357E+01
      7.258  0.1840E+01  0.9441E+01
      7.304  0.1840E+01  0.9525E+01
      7.350  0.1850E+01  0.9610E+01
      7.395  0.1875E+01  0.9696E+01
      7.441  0.1915E+01  0.9784E+01
      7.487  0.1964E+01  0.9874E+01
      7.533  0.2007E+01  0.9966E+01
      7.579  0.2021E+01  0.1006E+02
      7.625  0.1975E+01  0.1015E+02
      7.670  0.1842E+01  0.1023E+02
      7.716  0.1609E+01  0.1031E+02
      7.762  0.1289E+01  0.1037E+02
      7.808  0.9219E+00  0.1041E+02
      7.854  0.5664E+00  0.1043E+02
      7.900  0.2754E+00  0.1045E+02
      7.945  0.7807E-01  0.1045E+02
      7.991 -0.2671E-01  0.1045E+02
      8.037 -0.6231E-01  0.1045E+02
      8.083 -0.5901E-01  0.1044E+02
      8.129 -0.4157E-01  0.1044E+02
      8.175 -0.2423E-01  0.1044E+02
      8.220 -0.1214E-01  0.1044E+02
      8.266 -0.5329E-02  0.1044E+02
      8.312 -0.2070E-02  0.1044E+02
      8.358 -0.7155E-03  0.1044E+02
      8.404 -0.2211E-03  0.1044E+02
      8.450 -0.6119E-04  0.1044E+02
      8.496 -0.1520E-04  0.1044E+02
      8.541 -0.3395E-05  0.1044E+02
      8.587 -0.6819E-06  0.1044E+02
      8.633 -0.1233E-06  0.1044E+02
      8.679 -0.2007E-07  0.1044E+02
      8.725 -0.2942E-08  0.1044E+02
      8.771 -0.3886E-09  0.1044E+02
      8.816 -0.4624E-10  0.1044E+02
      8.862 -0.4959E-11  0.1044E+02
      8.908 -0.4793E-12  0.1044E+02
      8.954 -0.4172E-13  0.1044E+02
      9.000 -0.3185E-14  0.1044E+02
      9.046 -0.2301E-15  0.1044E+02
      9.091 -0.1211E-16  0.1044E+02
      9.137  0.0000E+00  0.1044E+02
      9.183  0.0000E+00  0.1044E+02
      9.229  0.0000E+00  0.1044E+02
      9.275  0.0000E+00  0.1044E+02
      9.321  0.0000E+00  0.1044E+02
      9.366  0.0000E+00  0.1044E+02
      9.412  0.0000E+00  0.1044E+02
      9.458  0.0000E+00  0.1044E+02
      9.504  0.0000E+00  0.1044E+02
      9.550  0.0000E+00  0.1044E+02
      9.596  0.0000E+00  0.1044E+02
      9.641  0.0000E+00  0.1044E+02
      9.687  0.0000E+00  0.1044E+02
      9.733  0.0000E+00  0.1044E+02
      9.779  0.0000E+00  0.1044E+02
      9.825  0.0000E+00  0.1044E+02
