       N       E                     dE             d eps       ncg     rms          rms(c)
DAV:   1     0.754175403540E+04    0.75418E+04   -0.28913E+05  4188   0.182E+03
DAV:   2    -0.450935387526E+02   -0.75868E+04   -0.74070E+04  4176   0.452E+02
DAV:   3    -0.857620746740E+03   -0.81253E+03   -0.69331E+03  4176   0.189E+02
DAV:   4    -0.103109070927E+04   -0.17347E+03   -0.16263E+03  7572   0.561E+01
DAV:   5    -0.104521555796E+04   -0.14125E+02   -0.13409E+02  6672   0.212E+01    0.934E+01
RMM:   6    -0.877686372520E+03    0.16753E+03   -0.13534E+03  4176   0.109E+02    0.898E+00
RMM:   7    -0.880316985402E+03   -0.26306E+01   -0.10881E+02  4525   0.234E+01    0.332E+00
RMM:   8    -0.879372410119E+03    0.94458E+00   -0.12619E+01  4425   0.101E+01    0.361E+00
RMM:   9    -0.879720692766E+03   -0.34828E+00   -0.43334E+00  5774   0.193E+00    0.482E+00
RMM:  10    -0.879512595863E+03    0.20810E+00   -0.98218E-01  4893   0.172E+00    0.100E+00
RMM:  11    -0.879515441649E+03   -0.28458E-02   -0.23523E-01  5045   0.797E-01    0.478E-01
RMM:  12    -0.879516392847E+03   -0.95120E-03   -0.65519E-02  5171   0.372E-01    0.119E-01
RMM:  13    -0.879517163835E+03   -0.77099E-03   -0.11866E-02  6058   0.775E-02    0.498E-02
RMM:  14    -0.879517211437E+03   -0.47602E-04   -0.46351E-04  5669   0.341E-02    0.805E-02
RMM:  15    -0.879517110017E+03    0.10142E-03    0.11612E-04  4790   0.252E-02    0.827E-03
RMM:  16    -0.879517077147E+03    0.32870E-04    0.10600E-04  5409   0.130E-02    0.106E-02
RMM:  17    -0.879517065236E+03    0.11911E-04    0.18576E-04  4566   0.891E-03    0.233E-03
RMM:  18    -0.879517053261E+03    0.11975E-04    0.10824E-04  3525   0.206E-03    0.265E-04
RMM:  19    -0.879517033039E+03    0.20223E-04    0.18210E-04  2685   0.181E-03    0.120E-03
RMM:  20    -0.879517019778E+03    0.13261E-04    0.11918E-04  2628   0.176E-03    0.366E-04
RMM:  21    -0.879517011437E+03    0.83406E-05    0.76591E-05  2586   0.123E-03    0.303E-04
RMM:  22    -0.879517004962E+03    0.64751E-05    0.62044E-05  2455   0.112E-03    0.200E-04
RMM:  23    -0.879516999303E+03    0.56594E-05    0.54582E-05  2339   0.877E-04    0.631E-05
RMM:  24    -0.879516994137E+03    0.51659E-05    0.50188E-05  2155   0.788E-04    0.187E-04
RMM:  25    -0.879516989425E+03    0.47119E-05    0.45779E-05  1883   0.630E-04    0.551E-05
RMM:  26    -0.879516985061E+03    0.43643E-05    0.42615E-05  1697   0.579E-04    0.161E-04
RMM:  27    -0.879516981054E+03    0.40063E-05    0.39085E-05  1396   0.494E-04    0.103E-04
RMM:  28    -0.879516977328E+03    0.37261E-05    0.36374E-05  1317   0.461E-04    0.152E-04
RMM:  29    -0.879516973914E+03    0.34145E-05    0.33345E-05  1154   0.423E-04    0.122E-04
RMM:  30    -0.879516970787E+03    0.31270E-05    0.30922E-05  1078   0.394E-04    0.146E-04
RMM:  31    -0.879516967907E+03    0.28797E-05    0.28290E-05  1357   0.404E-04    0.412E-05
RMM:  32    -0.879516965240E+03    0.26673E-05    0.26126E-05  1160   0.351E-04    0.489E-05
RMM:  33    -0.879516962808E+03    0.24313E-05    0.23858E-05   907   0.321E-04    0.362E-05
RMM:  34    -0.879516960574E+03    0.22345E-05    0.21940E-05   870   0.298E-04    0.564E-05
RMM:  35    -0.879516958543E+03    0.20310E-05    0.19995E-05   774   0.291E-04    0.456E-05
RMM:  36    -0.879516956699E+03    0.18444E-05    0.18321E-05   780   0.295E-04    0.647E-05
RMM:  37    -0.879516955019E+03    0.16800E-05    0.16664E-05   795   0.307E-04    0.555E-05
RMM:  38    -0.879516953477E+03    0.15420E-05    0.15226E-05   785   0.311E-04    0.799E-05
RMM:  39    -0.879516952076E+03    0.14010E-05    0.13827E-05   689   0.302E-04    0.732E-05
RMM:  40    -0.879516950799E+03    0.12763E-05    0.12604E-05   671   0.301E-04    0.864E-05
RMM:  41    -0.879516949643E+03    0.11565E-05    0.11428E-05   668   0.299E-04    0.854E-05
RMM:  42    -0.879516948591E+03    0.10517E-05    0.10399E-05   632   0.296E-04    0.917E-05
RMM:  43    -0.879516947638E+03    0.95319E-06    0.94202E-06   611   0.293E-04
   1 F= -.87951695E+03 E0= -.87949331E+03  d E =-.879517E+03
