 vasp.5.4.4.18Apr17-6-g9f103f2a35 (build Aug 17 2017 06:00:38) complex          
  
 executed on             LinuxIFC date 2019.07.12  19:00:50
 running on   24 total cores
 distrk:  each k-point on   24 cores,    1 groups
 distr:  one band on NCORES_PER_BAND=   4 cores,    6 groups


--------------------------------------------------------------------------------------------------------


 INCAR:
 POTCAR:   PAW_PBE Fe 06Sep2000                   
 POTCAR:   PAW_PBE Fe 06Sep2000                   
   VRHFIN =Fe:  d7 s1                                                           
   LEXCH  = PE                                                                  
   EATOM  =   594.4687 eV,   43.6922 Ry                                         
                                                                                
   TITEL  = PAW_PBE Fe 06Sep2000                                                
   LULTRA =        F    use ultrasoft PP ?                                      
   IUNSCR =        1    unscreen: 0-lin 1-nonlin 2-no                           
   RPACOR =    2.000    partial core radius                                     
   POMASS =   55.847; ZVAL   =    8.000    mass and valenz                      
   RCORE  =    2.300    outmost cutoff radius                                   
   RWIGS  =    2.460; RWIGS  =    1.302    wigner-seitz radius (au A)           
   ENMAX  =  267.883; ENMIN  =  200.912 eV                                      
   RCLOC  =    1.701    cutoff for local pot                                    
   LCOR   =        T    correct aug charges                                     
   LPAW   =        T    paw PP                                                  
   EAUG   =  511.368                                                            
   DEXC   =    -.022                                                            
   RMAX   =    2.817    core radius for proj-oper                               
   RAUG   =    1.300    factor for augmentation sphere                          
   RDEP   =    2.442    radius for radial grids                                 
   QCUT   =   -4.437; QGAM   =    8.874    optimization parameters              
                                                                                
   Description                                                                  
     l     E      TYP  RCUT    TYP  RCUT                                        
     2   .000     23  2.300                                                     
     2   .000     23  2.300                                                     
     0   .000     23  2.300                                                     
     0   .000     23  2.300                                                     
     1  -.200     23  2.300                                                     
     1   .000     23  2.300                                                     
     3   .000      7   .000                                                     
  local pseudopotential read in
  partial core-charges read in
  atomic valenz-charges read in
  non local Contribution for L=           2  read in
    real space projection operators read in
  non local Contribution for L=           2  read in
    real space projection operators read in
  non local Contribution for L=           0  read in
    real space projection operators read in
  non local Contribution for L=           0  read in
    real space projection operators read in
  non local Contribution for L=           1  read in
    real space projection operators read in
  non local Contribution for L=           1  read in
    real space projection operators read in
    PAW grid and wavefunctions read in
 
   number of l-projection  operators is LMAX  =           6
   number of lm-projection operators is LMMAX =          18
 
 Optimization of the real space projectors (new method)

 maximal supplied QI-value         = 16.25
 optimisation between [QCUT,QGAM] = [ 10.24, 20.48] = [ 29.35,117.42] Ry 
 Optimized for a Real-space Cutoff    1.51 Angstroem

   l    n(q)    QCUT    max X(q) W(low)/X(q) W(high)/X(q)  e(spline) 
   2      8    10.239     4.378    0.29E-04    0.57E-04    0.52E-07
   2      8    10.239    23.237    0.44E-03    0.68E-03    0.20E-06
   0      9    10.239    17.641    0.18E-04    0.41E-06    0.72E-08
   0      9    10.239    50.908    0.75E-04    0.38E-04    0.65E-07
   1      9    10.239     6.148    0.18E-04    0.27E-04    0.19E-07
   1      9    10.239     8.345    0.39E-04    0.13E-03    0.98E-07
 PAW_PBE Fe 06Sep2000                   :
 energy of atom  1       EATOM= -594.4687
 kinetic energy error for atom=    0.0088 (will be added to EATOM!!)
 
 
 POSCAR: fcc_Fe_CON_333                          
  positions in direct lattice
  velocities in cartesian coordinates
  No initial velocities read in
 exchange correlation table for  LEXCH =        8
   RHO(1)=    0.500       N(1)  =     2000
   RHO(2)=  100.500       N(2)  =     4000
 


--------------------------------------------------------------------------------------------------------


 ion  position               nearest neighbor table
   1  0.000  0.000  0.000-   2 2.44  19 2.44  20 2.44   6 2.44  14 2.44  21 2.44  25 2.44 101 2.44
                           102 2.44  18 2.44 103 2.44 107 2.44
   2  0.000  0.167  0.167-   9 2.44   7 2.44   3 2.44  27 2.44  29 2.44  93 2.44  95 2.44  19 2.44
                            20 2.44   1 2.44 101 2.44 102 2.44
   3  0.000  0.333  0.000-   2 2.44  20 2.44  14 2.44 102 2.44  27 2.44  35 2.44   4 2.44  93 2.44
                            32 2.44  16 2.44  91 2.44  98 2.44
   4  0.000  0.500  0.167-   9 2.44  23 2.44  11 2.44 105 2.44  27 2.44  35 2.44   3 2.44  93 2.44
                            28 2.44   5 2.44  91 2.44  94 2.44
   5  0.000  0.667  0.000-   6 2.44  21 2.44  18 2.44 103 2.44  28 2.44  94 2.44  33 2.44   4 2.44
                            35 2.44  99 2.44  91 2.44  16 2.44
   6  0.000  0.833  0.167-  11 2.44   5 2.44  28 2.44  94 2.44  30 2.44   7 2.44  96 2.44  21 2.44
                            19 2.44   1 2.44 103 2.44 101 2.44
   7  0.000  0.000  0.333-   2 2.44  19 2.44   6 2.44 101 2.44  29 2.44  36 2.44   8 2.44  95 2.44
                            30 2.44  12 2.44  92 2.44  96 2.44
   8  0.000  0.167  0.500-   9 2.44  22 2.44  15 2.44 104 2.44  29 2.44  36 2.44   7 2.44  95 2.44
                            31 2.44  13 2.44  92 2.44  97 2.44
   9  0.000  0.333  0.333-   2 2.44   4 2.44   8 2.44  27 2.44  29 2.44  93 2.44  95 2.44  22 2.44
                            23 2.44  10 2.44 104 2.44 105 2.44
  10  0.000  0.500  0.500-   9 2.44  22 2.44  23 2.44  11 2.44  15 2.44  24 2.44  26 2.44 104 2.44
                           105 2.44  17 2.44 106 2.44 108 2.44
  11  0.000  0.667  0.333-   6 2.44  12 2.44  30 2.44  96 2.44  28 2.44   4 2.44  94 2.44  24 2.44
                            23 2.44  10 2.44 106 2.44 105 2.44
  12  0.000  0.833  0.500-  11 2.44  24 2.44  17 2.44 106 2.44  30 2.44  96 2.44  34 2.44   7 2.44
                            36 2.44 100 2.44  92 2.44  13 2.44
  13  0.000  0.000  0.667-  14 2.44  25 2.44  18 2.44 107 2.44  31 2.44  97 2.44  34 2.44   8 2.44
                            36 2.44 100 2.44  92 2.44  12 2.44
  14  0.000  0.167  0.833-  15 2.44  13 2.44  31 2.44  97 2.44  32 2.44   3 2.44  98 2.44  25 2.44
                            20 2.44   1 2.44 107 2.44 102 2.44
  15  0.000  0.333  0.667-  14 2.44  16 2.44  32 2.44  98 2.44  31 2.44   8 2.44  97 2.44  26 2.44
                            22 2.44  10 2.44 108 2.44 104 2.44
  16  0.000  0.500  0.833-  15 2.44  26 2.44  17 2.44 108 2.44  32 2.44  98 2.44  33 2.44   3 2.44
                            35 2.44  99 2.44  91 2.44   5 2.44
  17  0.000  0.667  0.667-  18 2.44  33 2.44  34 2.44  16 2.44  12 2.44  99 2.44 100 2.44  24 2.44
                            26 2.44  10 2.44 106 2.44 108 2.44
  18  0.000  0.833  0.833-  17 2.44  33 2.44  34 2.44  13 2.44   5 2.44  99 2.44 100 2.44  21 2.44
                            25 2.44   1 2.44 103 2.44 107 2.44
  19  0.167  0.000  0.167-  50 2.44  37 2.44   7 2.44  39 2.44  29 2.44  40 2.44  30 2.44   2 2.44
                             1 2.44  20 2.44   6 2.44  21 2.44
  20  0.167  0.167  0.000-  47 2.44  37 2.44   3 2.44  39 2.44  27 2.44  43 2.44  32 2.44   2 2.44
                             1 2.44  19 2.44  14 2.44  25 2.44
  21  0.167  0.833  0.000-  49 2.44   5 2.44  28 2.44  33 2.44  40 2.44  37 2.44  46 2.44   6 2.44
                             1 2.44  18 2.44  19 2.44  25 2.44
  22  0.167  0.333  0.500-  51 2.44  38 2.44   8 2.44  41 2.44  29 2.44  44 2.44  31 2.44   9 2.44
                            10 2.44  23 2.44  15 2.44  26 2.44
  23  0.167  0.500  0.333-  48 2.44  38 2.44   4 2.44  41 2.44  27 2.44  42 2.44  28 2.44   9 2.44
                            10 2.44  22 2.44  11 2.44  24 2.44
  24  0.167  0.667  0.500-  52 2.44  12 2.44  30 2.44  34 2.44  42 2.44  38 2.44  45 2.44  11 2.44
                            10 2.44  17 2.44  23 2.44  26 2.44
  25  0.167  0.000  0.833-  53 2.44  13 2.44  31 2.44  34 2.44  43 2.44  37 2.44  46 2.44  14 2.44
                             1 2.44  18 2.44  20 2.44  21 2.44
  26  0.167  0.500  0.667-  54 2.44  16 2.44  32 2.44  33 2.44  44 2.44  38 2.44  45 2.44  15 2.44
                            10 2.44  17 2.44  22 2.44  24 2.44
  27  0.167  0.333  0.167-  29 2.44  39 2.44  41 2.44  23 2.44   2 2.44   9 2.44  20 2.44  47 2.44
                            48 2.44   4 2.44  35 2.44   3 2.44
  28  0.167  0.667  0.167-  30 2.44  40 2.44  42 2.44  21 2.44   6 2.44  11 2.44  49 2.44  48 2.44
                            23 2.44   5 2.44   4 2.44  35 2.44
  29  0.167  0.167  0.333-  27 2.44  39 2.44  41 2.44  22 2.44   2 2.44   9 2.44  19 2.44  50 2.44
                            51 2.44   8 2.44  36 2.44   7 2.44
  30  0.167  0.833  0.333-  28 2.44  42 2.44  40 2.44  24 2.44  11 2.44   6 2.44  52 2.44  50 2.44
                            19 2.44  12 2.44   7 2.44  36 2.44
  31  0.167  0.167  0.667-  32 2.44  43 2.44  44 2.44  25 2.44  14 2.44  15 2.44  53 2.44  51 2.44
                            22 2.44  13 2.44   8 2.44  36 2.44
  32  0.167  0.333  0.833-  31 2.44  44 2.44  43 2.44  26 2.44  15 2.44  14 2.44  54 2.44  47 2.44
                            20 2.44  16 2.44   3 2.44  35 2.44
  33  0.167  0.667  0.833-  34 2.44  45 2.44  46 2.44  18 2.44  17 2.44  26 2.44  21 2.44  49 2.44
                            54 2.44  16 2.44   5 2.44  35 2.44
  34  0.167  0.833  0.667-  33 2.44  45 2.44  46 2.44  18 2.44  17 2.44  25 2.44  24 2.44  52 2.44
                            53 2.44  13 2.44  12 2.44  36 2.44
  35  0.167  0.500  0.000-  47 2.44  48 2.44  49 2.44  54 2.44  27 2.44   4 2.44   3 2.44  28 2.44
                            32 2.44  16 2.44   5 2.44  33 2.44
  36  0.167  0.000  0.500-  50 2.44  51 2.44  52 2.44  53 2.44  29 2.44   8 2.44   7 2.44  30 2.44
                            31 2.44  13 2.44  12 2.44  34 2.44
  37  0.333  0.000  0.000-  19 2.44  20 2.44  21 2.44  25 2.44  39 2.44  55 2.44  56 2.44  40 2.44
                            43 2.44  60 2.44  67 2.44  46 2.44
  38  0.333  0.500  0.500-  22 2.44  23 2.44  24 2.44  26 2.44  41 2.44  63 2.44  64 2.44  42 2.44
                            44 2.44  65 2.44  70 2.44  45 2.44
  39  0.333  0.167  0.167-  27 2.44  29 2.44  41 2.44  20 2.44  19 2.44  47 2.44  50 2.44  57 2.44
                            62 2.44  56 2.44  37 2.44  55 2.44
  40  0.333  0.833  0.167-  28 2.44  42 2.44  30 2.44  49 2.44  59 2.44  21 2.44  66 2.44  19 2.44
                            50 2.44  60 2.44  55 2.44  37 2.44
  41  0.333  0.333  0.333-  27 2.44  29 2.44  39 2.44  23 2.44  22 2.44  48 2.44  51 2.44  57 2.44
                            62 2.44  38 2.44  63 2.44  64 2.44
  42  0.333  0.667  0.333-  30 2.44  40 2.44  28 2.44  52 2.44  66 2.44  59 2.44  24 2.44  48 2.44
                            23 2.44  65 2.44  38 2.44  64 2.44
  43  0.333  0.167  0.833-  31 2.44  44 2.44  32 2.44  53 2.44  68 2.44  25 2.44  69 2.44  47 2.44
                            20 2.44  67 2.44  56 2.44  37 2.44
  44  0.333  0.333  0.667-  32 2.44  43 2.44  31 2.44  54 2.44  69 2.44  68 2.44  26 2.44  51 2.44
                            22 2.44  70 2.44  63 2.44  38 2.44
  45  0.333  0.667  0.667-  46 2.44  34 2.44  33 2.44  71 2.44  72 2.44  52 2.44  54 2.44  26 2.44
                            24 2.44  65 2.44  70 2.44  38 2.44
  46  0.333  0.833  0.833-  45 2.44  34 2.44  33 2.44  71 2.44  72 2.44  49 2.44  53 2.44  25 2.44
                            21 2.44  60 2.44  67 2.44  37 2.44
  47  0.333  0.333  0.000-  20 2.44  35 2.44  56 2.44  39 2.44  27 2.44  43 2.44  32 2.44  48 2.44
                            57 2.44  58 2.44  54 2.44  69 2.44
  48  0.333  0.500  0.167-  23 2.44  35 2.44  64 2.44  41 2.44  27 2.44  42 2.44  28 2.44  57 2.44
                            58 2.44  47 2.44  59 2.44  49 2.44
  49  0.333  0.667  0.000-  21 2.44  60 2.44  40 2.44  46 2.44  28 2.44  35 2.44  33 2.44  59 2.44
                            48 2.44  58 2.44  71 2.44  54 2.44
  50  0.333  0.000  0.333-  19 2.44  36 2.44  55 2.44  39 2.44  29 2.44  40 2.44  30 2.44  51 2.44
                            61 2.44  62 2.44  52 2.44  66 2.44
  51  0.333  0.167  0.500-  22 2.44  36 2.44  63 2.44  41 2.44  29 2.44  44 2.44  31 2.44  61 2.44
                            62 2.44  50 2.44  53 2.44  68 2.44
  52  0.333  0.833  0.500-  24 2.44  65 2.44  42 2.44  45 2.44  30 2.44  36 2.44  34 2.44  66 2.44
                            50 2.44  61 2.44  72 2.44  53 2.44
  53  0.333  0.000  0.667-  25 2.44  67 2.44  43 2.44  46 2.44  31 2.44  36 2.44  34 2.44  68 2.44
                            51 2.44  61 2.44  72 2.44  52 2.44
  54  0.333  0.500  0.833-  26 2.44  70 2.44  44 2.44  45 2.44  32 2.44  35 2.44  33 2.44  69 2.44
                            47 2.44  58 2.44  71 2.44  49 2.44
  55  0.500  0.000  0.167-  50 2.44  62 2.44  66 2.44  76 2.44  39 2.44  56 2.44  37 2.44  40 2.44
                            81 2.44  60 2.44  89 2.44  82 2.44
  56  0.500  0.167  0.000-  47 2.44  57 2.44  69 2.44  73 2.44  39 2.44  55 2.44  37 2.44  43 2.44
                            81 2.44  67 2.44  89 2.44  85 2.44
  57  0.500  0.333  0.167-  62 2.44  56 2.44  64 2.44  41 2.44  39 2.44  81 2.44  83 2.44  47 2.44
                            58 2.44  48 2.44  73 2.44  74 2.44
  58  0.500  0.500  0.000-  47 2.44  48 2.44  57 2.44  54 2.44  49 2.44  59 2.44  69 2.44  73 2.44
                            74 2.44  71 2.44  75 2.44  80 2.44
  59  0.500  0.667  0.167-  66 2.44  60 2.44  40 2.44  82 2.44  42 2.44  64 2.44  84 2.44  49 2.44
                            75 2.44  58 2.44  48 2.44  74 2.44
  60  0.500  0.833  0.000-  49 2.44  59 2.44  71 2.44  75 2.44  40 2.44  46 2.44  82 2.44  37 2.44
                            55 2.44  88 2.44  67 2.44  89 2.44
  61  0.500  0.000  0.500-  50 2.44  51 2.44  62 2.44  53 2.44  52 2.44  66 2.44  68 2.44  76 2.44
                            77 2.44  72 2.44  78 2.44  79 2.44
  62  0.500  0.167  0.333-  57 2.44  55 2.44  63 2.44  41 2.44  39 2.44  81 2.44  83 2.44  50 2.44
                            51 2.44  61 2.44  76 2.44  77 2.44
  63  0.500  0.333  0.500-  51 2.44  62 2.44  68 2.44  77 2.44  41 2.44  38 2.44  64 2.44  44 2.44
                            83 2.44  70 2.44  90 2.44  86 2.44
  64  0.500  0.500  0.333-  48 2.44  57 2.44  59 2.44  74 2.44  41 2.44  63 2.44  38 2.44  42 2.44
                            83 2.44  65 2.44  90 2.44  84 2.44
  65  0.500  0.667  0.500-  52 2.44  66 2.44  72 2.44  78 2.44  42 2.44  45 2.44  84 2.44  38 2.44
                            64 2.44  87 2.44  70 2.44  90 2.44
  66  0.500  0.833  0.333-  59 2.44  65 2.44  42 2.44  84 2.44  40 2.44  55 2.44  82 2.44  52 2.44
                            78 2.44  61 2.44  50 2.44  76 2.44
  67  0.500  0.000  0.833-  53 2.44  68 2.44  72 2.44  79 2.44  43 2.44  46 2.44  85 2.44  37 2.44
                            56 2.44  88 2.44  60 2.44  89 2.44
  68  0.500  0.167  0.667-  69 2.44  67 2.44  43 2.44  85 2.44  44 2.44  63 2.44  86 2.44  53 2.44
                            79 2.44  61 2.44  51 2.44  77 2.44
  69  0.500  0.333  0.833-  68 2.44  70 2.44  44 2.44  86 2.44  43 2.44  56 2.44  85 2.44  54 2.44
                            80 2.44  47 2.44  58 2.44  73 2.44
  70  0.500  0.500  0.667-  54 2.44  69 2.44  71 2.44  80 2.44  44 2.44  45 2.44  86 2.44  38 2.44
                            63 2.44  87 2.44  65 2.44  90 2.44
  71  0.500  0.667  0.833-  72 2.44  46 2.44  45 2.44  70 2.44  60 2.44  87 2.44  88 2.44  54 2.44
                            49 2.44  80 2.44  58 2.44  75 2.44
  72  0.500  0.833  0.667-  71 2.44  46 2.44  45 2.44  67 2.44  65 2.44  87 2.44  88 2.44  53 2.44
                            52 2.44  79 2.44  61 2.44  78 2.44
  73  0.667  0.333  0.000- 102 2.44  91 2.44  93 2.44  98 2.44  81 2.44  56 2.44  85 2.44  74 2.44
                            58 2.44  57 2.44  80 2.44  69 2.44
  74  0.667  0.500  0.167- 105 2.44  91 2.44  93 2.44  94 2.44  83 2.44  64 2.44  84 2.44  73 2.44
                            57 2.44  58 2.44  75 2.44  59 2.44
  75  0.667  0.667  0.000- 103 2.44  94 2.44  82 2.44  60 2.44  91 2.44  99 2.44  88 2.44  59 2.44
                            74 2.44  71 2.44  58 2.44  80 2.44
  76  0.667  0.000  0.333- 101 2.44  92 2.44  95 2.44  96 2.44  81 2.44  55 2.44  82 2.44  77 2.44
                            62 2.44  61 2.44  78 2.44  66 2.44
  77  0.667  0.167  0.500- 104 2.44  92 2.44  95 2.44  97 2.44  83 2.44  63 2.44  86 2.44  76 2.44
                            61 2.44  62 2.44  79 2.44  68 2.44
  78  0.667  0.833  0.500- 106 2.44  96 2.44  84 2.44  65 2.44  92 2.44 100 2.44  87 2.44  66 2.44
                            76 2.44  72 2.44  61 2.44  79 2.44
  79  0.667  0.000  0.667- 107 2.44  97 2.44  85 2.44  67 2.44  92 2.44 100 2.44  88 2.44  68 2.44
                            77 2.44  72 2.44  61 2.44  78 2.44
  80  0.667  0.500  0.833- 108 2.44  98 2.44  86 2.44  70 2.44  91 2.44  99 2.44  87 2.44  69 2.44
                            73 2.44  71 2.44  58 2.44  75 2.44
  81  0.667  0.167  0.167-  93 2.44  95 2.44  83 2.44 101 2.44 102 2.44  76 2.44  73 2.44  62 2.44
                            57 2.44  89 2.44  55 2.44  56 2.44
  82  0.667  0.833  0.167-  94 2.44  84 2.44  96 2.44  75 2.44 103 2.44 101 2.44  59 2.44  76 2.44
                            66 2.44  60 2.44  89 2.44  55 2.44
  83  0.667  0.333  0.333-  93 2.44  95 2.44  81 2.44 104 2.44 105 2.44  77 2.44  74 2.44  62 2.44
                            57 2.44  90 2.44  63 2.44  64 2.44
  84  0.667  0.667  0.333-  96 2.44  94 2.44  82 2.44  78 2.44 106 2.44 105 2.44  66 2.44  59 2.44
                            74 2.44  65 2.44  90 2.44  64 2.44
  85  0.667  0.167  0.833-  97 2.44  86 2.44  98 2.44  79 2.44 107 2.44 102 2.44  68 2.44  69 2.44
                            73 2.44  67 2.44  89 2.44  56 2.44
  86  0.667  0.333  0.667-  98 2.44  97 2.44  85 2.44  80 2.44 108 2.44 104 2.44  69 2.44  68 2.44
                            77 2.44  70 2.44  90 2.44  63 2.44
  87  0.667  0.667  0.667-  88 2.44  99 2.44 100 2.44  80 2.44  71 2.44  72 2.44  78 2.44 106 2.44
                           108 2.44  65 2.44  90 2.44  70 2.44
  88  0.667  0.833  0.833-  87 2.44  99 2.44 100 2.44  79 2.44  71 2.44  72 2.44  75 2.44 103 2.44
                           107 2.44  60 2.44  89 2.44  67 2.44
  89  0.667  0.000  0.000- 101 2.44 102 2.44 103 2.44 107 2.44  81 2.44  82 2.44  85 2.44  56 2.44
                            55 2.44  88 2.44  60 2.44  67 2.44
  90  0.667  0.500  0.500- 104 2.44 105 2.44 106 2.44 108 2.44  83 2.44  84 2.44  86 2.44  64 2.44
                            63 2.44  87 2.44  65 2.44  70 2.44
  91  0.833  0.500  0.000-  73 2.44  74 2.44  75 2.44  80 2.44  93 2.44  94 2.44  98 2.44   4 2.44
                             3 2.44  99 2.44   5 2.44  16 2.44
  92  0.833  0.000  0.500-  76 2.44  77 2.44  78 2.44  79 2.44  95 2.44  96 2.44  97 2.44   8 2.44
                             7 2.44 100 2.44  12 2.44  13 2.44
  93  0.833  0.333  0.167-  81 2.44  83 2.44  95 2.44  74 2.44  73 2.44 102 2.44 105 2.44   9 2.44
                             2 2.44  91 2.44   4 2.44   3 2.44
  94  0.833  0.667  0.167-  82 2.44  84 2.44  96 2.44  75 2.44 103 2.44  74 2.44   6 2.44  11 2.44
                           105 2.44  91 2.44   5 2.44   4 2.44
  95  0.833  0.167  0.333-  81 2.44  83 2.44  93 2.44  77 2.44  76 2.44 101 2.44 104 2.44   9 2.44
                             2 2.44  92 2.44   8 2.44   7 2.44
  96  0.833  0.833  0.333-  84 2.44  82 2.44  94 2.44  78 2.44 106 2.44  76 2.44  11 2.44 101 2.44
                             6 2.44  92 2.44  12 2.44   7 2.44
  97  0.833  0.167  0.667-  85 2.44  86 2.44  98 2.44  79 2.44 107 2.44  77 2.44  14 2.44 104 2.44
                            15 2.44  92 2.44  13 2.44   8 2.44
  98  0.833  0.333  0.833-  86 2.44  85 2.44  97 2.44  80 2.44 108 2.44  73 2.44  15 2.44 102 2.44
                            14 2.44  91 2.44  16 2.44   3 2.44
  99  0.833  0.667  0.833-  87 2.44  88 2.44 100 2.44  80 2.44  17 2.44  18 2.44  75 2.44 103 2.44
                           108 2.44   5 2.44  16 2.44  91 2.44
 100  0.833  0.833  0.667-  87 2.44  88 2.44  99 2.44  79 2.44  17 2.44  18 2.44  78 2.44 106 2.44
                           107 2.44  12 2.44  13 2.44  92 2.44
 101  0.833  0.000  0.167-  76 2.44  89 2.44  81 2.44  82 2.44  95 2.44   7 2.44  96 2.44 102 2.44
                             1 2.44   2 2.44 103 2.44   6 2.44
 102  0.833  0.167  0.000-  73 2.44  89 2.44  81 2.44  85 2.44  93 2.44   3 2.44  98 2.44 101 2.44
                             1 2.44   2 2.44 107 2.44  14 2.44
 103  0.833  0.833  0.000-  75 2.44  82 2.44  94 2.44  89 2.44   5 2.44  88 2.44  99 2.44   6 2.44
                           101 2.44  18 2.44   1 2.44 107 2.44
 104  0.833  0.333  0.500-  77 2.44  90 2.44  83 2.44  86 2.44  95 2.44   8 2.44  97 2.44 105 2.44
                            10 2.44   9 2.44 108 2.44  15 2.44
 105  0.833  0.500  0.333-  74 2.44  90 2.44  83 2.44  84 2.44  93 2.44   4 2.44  94 2.44 104 2.44
                            10 2.44   9 2.44 106 2.44  11 2.44
 106  0.833  0.667  0.500-  78 2.44  84 2.44  96 2.44  90 2.44  12 2.44  87 2.44 100 2.44  11 2.44
                           105 2.44  17 2.44  10 2.44 108 2.44
 107  0.833  0.000  0.833-  79 2.44  85 2.44  97 2.44  89 2.44  13 2.44  88 2.44 100 2.44  14 2.44
                           102 2.44  18 2.44   1 2.44 103 2.44
 108  0.833  0.500  0.667-  80 2.44  86 2.44  98 2.44  90 2.44  16 2.44  87 2.44  99 2.44  15 2.44
                           104 2.44  17 2.44  10 2.44 106 2.44
 
  LATTYP: Found a simple cubic cell.
 ALAT       =    10.3348470474
  
  Lattice vectors:
  
 A1 = (  10.3348470474,   0.0000000000,   0.0000000000)
 A2 = (   0.0000000000,  10.3348470474,   0.0000000000)
 A3 = (   0.0000000000,   0.0000000000,  10.3348470474)


Analysis of symmetry for initial positions (statically):
=====================================================================
 Subroutine PRICEL returns following result:
 
  LATTYP: Found a simple cubic cell.
 ALAT       =     3.4449252939
  
  Lattice vectors:
  
 A1 = (   3.4449252939,   0.0000000000,   0.0000000000)
 A2 = (   0.0000000000,   3.4449252939,   0.0000000000)
 A3 = (   0.0000000000,   0.0000000000,   3.4449252422)
 
  27 primitive cells build up your supercell.
 

 Routine SETGRP: Setting up the symmetry group for a 
 simple cubic supercell.


 Subroutine GETGRP returns: Found 48 space group operations
 (whereof 48 operations were pure point group operations)
 out of a pool of 48 trial point group operations.


The static configuration has the point symmetry O_h .


Analysis of symmetry for dynamics (positions and initial velocities):
=====================================================================
 Subroutine PRICEL returns following result:
 
  LATTYP: Found a simple cubic cell.
 ALAT       =     3.4449252939
  
  Lattice vectors:
  
 A1 = (   3.4449252939,   0.0000000000,   0.0000000000)
 A2 = (   0.0000000000,   3.4449252939,   0.0000000000)
 A3 = (   0.0000000000,   0.0000000000,   3.4449252422)
 
  27 primitive cells build up your supercell.
 

 Routine SETGRP: Setting up the symmetry group for a 
 simple cubic supercell.


 Subroutine GETGRP returns: Found 48 space group operations
 (whereof 48 operations were pure point group operations)
 out of a pool of 48 trial point group operations.


The dynamic configuration has the point symmetry O_h .


 Subroutine INISYM returns: Found 48 space group operations
 (whereof 48 operations are pure point group operations),
 and found    27 'primitive' translations

 
 
 KPOINTS: pymatgen generated KPOINTS with grid den

Automatic generation of k-mesh.
Space group operators:
 irot       det(A)        alpha          n_x          n_y          n_z        tau_x        tau_y        tau_z
    1     1.000000     0.000000     1.000000     0.000000     0.000000     0.000000     0.000000     0.000000
    2    -1.000000     0.000000     1.000000     0.000000     0.000000     0.000000     0.000000     0.000000
    3     1.000000   120.000000    -0.577350    -0.577350    -0.577350     0.000000     0.000000     0.000000
    4    -1.000000   120.000000    -0.577350    -0.577350    -0.577350     0.000000     0.000000     0.000000
    5     1.000000   120.000000     0.577350     0.577350     0.577350     0.000000     0.000000     0.000000
    6    -1.000000   120.000000     0.577350     0.577350     0.577350     0.000000     0.000000     0.000000
    7     1.000000    90.000000     0.000000     0.000000    -1.000000     0.000000     0.000000     0.000000
    8    -1.000000    90.000000     0.000000     0.000000    -1.000000     0.000000     0.000000     0.000000
    9     1.000000   180.000000     0.000000     0.707107     0.707107     0.000000     0.000000     0.000000
   10    -1.000000   180.000000     0.000000     0.707107     0.707107     0.000000     0.000000     0.000000
   11     1.000000    90.000000     0.000000     1.000000     0.000000     0.000000     0.000000     0.000000
   12    -1.000000    90.000000     0.000000     1.000000     0.000000     0.000000     0.000000     0.000000
   13     1.000000   180.000000     0.000000     0.000000     1.000000     0.000000     0.000000     0.000000
   14    -1.000000   180.000000     0.000000     0.000000     1.000000     0.000000     0.000000     0.000000
   15     1.000000   120.000000    -0.577350     0.577350     0.577350     0.000000     0.000000     0.000000
   16    -1.000000   120.000000    -0.577350     0.577350     0.577350     0.000000     0.000000     0.000000
   17     1.000000   120.000000    -0.577350     0.577350    -0.577350     0.000000     0.000000     0.000000
   18    -1.000000   120.000000    -0.577350     0.577350    -0.577350     0.000000     0.000000     0.000000
   19     1.000000    90.000000     0.000000     0.000000     1.000000     0.000000     0.000000     0.000000
   20    -1.000000    90.000000     0.000000     0.000000     1.000000     0.000000     0.000000     0.000000
   21     1.000000    90.000000    -1.000000     0.000000     0.000000     0.000000     0.000000     0.000000
   22    -1.000000    90.000000    -1.000000     0.000000     0.000000     0.000000     0.000000     0.000000
   23     1.000000   180.000000     0.707107     0.000000     0.707107     0.000000     0.000000     0.000000
   24    -1.000000   180.000000     0.707107     0.000000     0.707107     0.000000     0.000000     0.000000
   25     1.000000   120.000000     0.577350    -0.577350     0.577350     0.000000     0.000000     0.000000
   26    -1.000000   120.000000     0.577350    -0.577350     0.577350     0.000000     0.000000     0.000000
   27     1.000000   120.000000    -0.577350    -0.577350     0.577350     0.000000     0.000000     0.000000
   28    -1.000000   120.000000    -0.577350    -0.577350     0.577350     0.000000     0.000000     0.000000
   29     1.000000   180.000000     1.000000     0.000000     0.000000     0.000000     0.000000     0.000000
   30    -1.000000   180.000000     1.000000     0.000000     0.000000     0.000000     0.000000     0.000000
   31     1.000000    90.000000     0.000000    -1.000000     0.000000     0.000000     0.000000     0.000000
   32    -1.000000    90.000000     0.000000    -1.000000     0.000000     0.000000     0.000000     0.000000
   33     1.000000   180.000000     0.707107     0.707107     0.000000     0.000000     0.000000     0.000000
   34    -1.000000   180.000000     0.707107     0.707107     0.000000     0.000000     0.000000     0.000000
   35     1.000000    90.000000     1.000000     0.000000     0.000000     0.000000     0.000000     0.000000
   36    -1.000000    90.000000     1.000000     0.000000     0.000000     0.000000     0.000000     0.000000
   37     1.000000   120.000000     0.577350    -0.577350    -0.577350     0.000000     0.000000     0.000000
   38    -1.000000   120.000000     0.577350    -0.577350    -0.577350     0.000000     0.000000     0.000000
   39     1.000000   180.000000     0.000000     1.000000     0.000000     0.000000     0.000000     0.000000
   40    -1.000000   180.000000     0.000000     1.000000     0.000000     0.000000     0.000000     0.000000
   41     1.000000   120.000000     0.577350     0.577350    -0.577350     0.000000     0.000000     0.000000
   42    -1.000000   120.000000     0.577350     0.577350    -0.577350     0.000000     0.000000     0.000000
   43     1.000000   180.000000     0.000000    -0.707107     0.707107     0.000000     0.000000     0.000000
   44    -1.000000   180.000000     0.000000    -0.707107     0.707107     0.000000     0.000000     0.000000
   45     1.000000   180.000000     0.707107    -0.707107     0.000000     0.000000     0.000000     0.000000
   46    -1.000000   180.000000     0.707107    -0.707107     0.000000     0.000000     0.000000     0.000000
   47     1.000000   180.000000     0.707107     0.000000    -0.707107     0.000000     0.000000     0.000000
   48    -1.000000   180.000000     0.707107     0.000000    -0.707107     0.000000     0.000000     0.000000
 
 Subroutine IBZKPT returns following result:
 ===========================================
 
 Found      4 irreducible k-points:
 
 Following reciprocal coordinates:
            Coordinates               Weight
  0.125000  0.125000  0.125000      8.000000
  0.375000  0.125000  0.125000     24.000000
  0.375000  0.375000  0.125000     24.000000
  0.375000  0.375000  0.375000      8.000000
 
 Following cartesian coordinates:
            Coordinates               Weight
  0.012095  0.012095  0.012095      8.000000
  0.036285  0.012095  0.012095     24.000000
  0.036285  0.036285  0.012095     24.000000
  0.036285  0.036285  0.036285      8.000000
 


--------------------------------------------------------------------------------------------------------




 Dimension of arrays:
   k-points           NKPTS =      4   k-points in BZ     NKDIM =      4   number of bands    NBANDS=    522
   number of dos      NEDOS =    301   number of ions     NIONS =    108
   non local maximal  LDIM  =      6   non local SUM 2l+1 LMDIM =     18
   total plane-waves  NPLWV = 373248
   max r-space proj   IRMAX =   4912   max aug-charges    IRDMAX=  12243
   dimension x,y,z NGX =    72 NGY =   72 NGZ =   72
   dimension x,y,z NGXF=   144 NGYF=  144 NGZF=  144
   support grid    NGXF=   144 NGYF=  144 NGZF=  144
   ions per type =             108
   NGX,Y,Z   is equivalent  to a cutoff of  11.58, 11.58, 11.58 a.u.
   NGXF,Y,Z  is equivalent  to a cutoff of  23.16, 23.16, 23.16 a.u.

 Based on PREC, I would recommend the following setting:
   dimension x,y,z NGX =    54 NGY =   54 NGZ =   54

 SYSTEM =  Opt                                     
 POSCAR =  fcc_Fe_CON_333                          

 Startparameter for this run:
   NWRITE =      2    write-flag & timer
   PREC   = normal    normal or accurate (medium, high low for compatibility)
   ISTART =      0    job   : 0-new  1-cont  2-samecut
   ICHARG =      2    charge: 1-file 2-atom 10-const
   ISPIN  =      1    spin polarized calculation?
   LNONCOLLINEAR =      F non collinear calculations
   LSORBIT =      F    spin-orbit coupling
   INIWAV =      1    electr: 0-lowe 1-rand  2-diag
   LASPH  =      F    aspherical Exc in radial PAW
   METAGGA=      F    non-selfconsistent MetaGGA calc.

 Electronic Relaxation 1
   ENCUT  =  400.0 eV  29.40 Ry    5.42 a.u.  16.85 16.85 16.85*2*pi/ulx,y,z
   ENINI  =  400.0     initial cutoff
   ENAUG  =  511.4 eV  augmentation charge cutoff
   NELM   =    400;   NELMIN=  2; NELMDL= -5     # of ELM steps 
   EDIFF  = 0.1E-05   stopping-criterion for ELM
   LREAL  =      T    real-space projection
   NLSPLINE    = F    spline interpolate recip. space projectors
   LCOMPAT=      F    compatible to vasp.4.4
   GGA_COMPAT  = T    GGA compatible to vasp.4.4-vasp.4.6
   LMAXPAW     = -100 max onsite density
   LMAXMIX     =    2 max onsite mixed and CHGCAR
   VOSKOWN=      0    Vosko Wilk Nusair interpolation
   ROPT   =   -0.00050
 Ionic relaxation
   EDIFFG = -.1E-01   stopping-criterion for IOM
   NSW    =    100    number of steps for IOM
   NBLOCK =      1;   KBLOCK =    100    inner block; outer block 
   IBRION =      2    ionic relax: 0-MD 1-quasi-New 2-CG
   NFREE  =      1    steps in history (QN), initial steepest desc. (CG)
   ISIF   =      3    stress and relaxation
   IWAVPR =     11    prediction:  0-non 1-charg 2-wave 3-comb
   ISYM   =      2    0-nonsym 1-usesym 2-fastsym
   LCORR  =      T    Harris-Foulkes like correction to forces

   POTIM  = 0.5000    time-step for ionic-motion
   TEIN   =    0.0    initial temperature
   TEBEG  =    0.0;   TEEND  =   0.0 temperature during run
   SMASS  =  -3.00    Nose mass-parameter (am)
   estimated Nose-frequenzy (Omega)   =  0.10E-29 period in steps =****** mass=  -0.244E-26a.u.
   SCALEE = 1.0000    scale energy and forces
   NPACO  =    256;   APACO  = 16.0  distance and # of slots for P.C.
   PSTRESS=    0.0 pullay stress

  Mass of Ions in am
   POMASS =  55.85
  Ionic Valenz
   ZVAL   =   8.00
  Atomic Wigner-Seitz radii
   RWIGS  =  -1.00
  virtual crystal weights 
   VCA    =   1.00
   NELECT =     864.0000    total number of electrons
   NUPDOWN=      -1.0000    fix difference up-down

 DOS related values:
   EMIN   =  10.00;   EMAX   =-10.00  energy-range for DOS
   EFERMI =   0.00
   ISMEAR =     1;   SIGMA  =   0.20  broadening in eV -4-tet -1-fermi 0-gaus

 Electronic relaxation 2 (details)
   IALGO  =     68    algorithm
   LDIAG  =      T    sub-space diagonalisation (order eigenvalues)
   LSUBROT=      F    optimize rotation matrix (better conditioning)
   TURBO    =      0    0=normal 1=particle mesh
   IRESTART =      0    0=no restart 2=restart with 2 vectors
   NREBOOT  =      0    no. of reboots
   NMIN     =      0    reboot dimension
   EREF     =   0.00    reference energy to select bands
   IMIX   =      4    mixing-type and parameters
     AMIX     =   0.40;   BMIX     =  1.00
     AMIX_MAG =   1.60;   BMIX_MAG =  1.00
     AMIN     =   0.10
     WC   =   100.;   INIMIX=   1;  MIXPRE=   1;  MAXMIX= -45

 Intra band minimization:
   WEIMIN = 0.0010     energy-eigenvalue tresh-hold
   EBREAK =  0.48E-09  absolut break condition
   DEPER  =   0.30     relativ break condition  

   TIME   =   0.40     timestep for ELM

  volume/ion in A,a.u.               =      10.22        68.97
  Fermi-wavevector in a.u.,A,eV,Ry     =   1.508720  2.851068 30.970078  2.276236
  Thomas-Fermi vector in A             =   2.619137
 
 Write flags
   LWAVE        =      F    write WAVECAR
   LDOWNSAMPLE  =      F    k-point downsampling of WAVECAR
   LCHARG       =      F    write CHGCAR
   LVTOT        =      F    write LOCPOT, total local potential
   LVHAR        =      F    write LOCPOT, Hartree potential only
   LELF         =      F    write electronic localiz. function (ELF)
   LORBIT       =      0    0 simple, 1 ext, 2 COOP (PROOUT), +10 PAW based schemes


 Dipole corrections
   LMONO  =      F    monopole corrections only (constant potential shift)
   LDIPOL =      F    correct potential (dipole corrections)
   IDIPOL =      0    1-x, 2-y, 3-z, 4-all directions 
   EPSILON=  1.0000000 bulk dielectric constant

 Exchange correlation treatment:
   GGA     =    --    GGA type
   LEXCH   =     8    internal setting for exchange type
   VOSKOWN=      0    Vosko Wilk Nusair interpolation
   LHFCALC =     F    Hartree Fock is set to
   LHFONE  =     F    Hartree Fock one center treatment
   AEXX    =    0.0000 exact exchange contribution

 Linear response parameters
   LEPSILON=     F    determine dielectric tensor
   LRPA    =     F    only Hartree local field effects (RPA)
   LNABLA  =     F    use nabla operator in PAW spheres
   LVEL    =     F    velocity operator in full k-point grid
   LINTERFAST=   F  fast interpolation
   KINTER  =     0    interpolate to denser k-point grid
   CSHIFT  =0.1000    complex shift for real part using Kramers Kronig
   OMEGAMAX=  -1.0    maximum frequency
   DEG_THRESHOLD= 0.2000000E-02 threshold for treating states as degnerate
   RTIME   =   -0.100 relaxation time in fs
  (WPLASMAI=    0.000 imaginary part of plasma frequency in eV, 0.658/RTIME)
   DFIELD  = 0.0000000 0.0000000 0.0000000 field for delta impulse in time
 
 Orbital magnetization related:
   ORBITALMAG=     F  switch on orbital magnetization
   LCHIMAG   =     F  perturbation theory with respect to B field
   DQ        =  0.001000  dq finite difference perturbation B field
   LLRAUG    =     F  two centre corrections for induced B field



--------------------------------------------------------------------------------------------------------


 conjugate gradient relaxation of ions
 charge density and potential will be updated during run
 non-spin polarized calculation
 RMM-DIIS sequential band-by-band and
  variant of blocked Davidson during initial phase
 perform sub-space diagonalisation
    before iterative eigenvector-optimisation
 modified Broyden-mixing scheme, WC =      100.0
 initial mixing is a Kerker type mixing with AMIX =  0.4000 and BMIX =      1.0000
 Hartree-type preconditioning will be used
 using additional bands           90
 real space projection scheme for non local part
 use partial core corrections
 calculate Harris-corrections to forces 
   (improved forces if not selfconsistent)
 use gradient corrections 
 use of overlap-Matrix (Vanderbilt PP)
 Methfessel and Paxton  Order N= 1 SIGMA  =   0.20


--------------------------------------------------------------------------------------------------------


  energy-cutoff  :      400.00
  volume of cell :     1103.86
      direct lattice vectors                 reciprocal lattice vectors
    10.334847047  0.000000000  0.000000000     0.096760019  0.000000000  0.000000000
     0.000000000 10.334847047  0.000000000     0.000000000  0.096760019  0.000000000
     0.000000000  0.000000000 10.334847047     0.000000000  0.000000000  0.096760019

  length of vectors
    10.334847047 10.334847047 10.334847047     0.096760019  0.096760019  0.096760019


 
 k-points in units of 2pi/SCALE and weight: pymatgen generated KPOINTS with grid den
   0.01209500  0.01209500  0.01209500       0.125
   0.03628501  0.01209500  0.01209500       0.375
   0.03628501  0.03628501  0.01209500       0.375
   0.03628501  0.03628501  0.03628501       0.125
 
 k-points in reciprocal lattice and weights: pymatgen generated KPOINTS with grid den
   0.12500000  0.12500000  0.12500000       0.125
   0.37500000  0.12500000  0.12500000       0.375
   0.37500000  0.37500000  0.12500000       0.375
   0.37500000  0.37500000  0.37500000       0.125
 
 position of ions in fractional coordinates (direct lattice) 
   0.00000000  0.00000000  0.00000000
   0.00000000  0.16666893  0.16666893
   0.00000000  0.33333106  0.00000000
   0.00000000  0.50000000  0.16666894
   0.00000000  0.66666897  0.00000000
   0.00000000  0.83333104  0.16666893
   0.00000000  0.00000000  0.33333106
   0.00000000  0.16666894  0.50000000
   0.00000000  0.33333107  0.33333107
   0.00000000  0.50000000  0.50000000
   0.00000000  0.66666896  0.33333107
   0.00000000  0.83333103  0.50000000
   0.00000000  0.00000000  0.66666897
   0.00000000  0.16666893  0.83333104
   0.00000000  0.33333107  0.66666896
   0.00000000  0.50000000  0.83333103
   0.00000000  0.66666896  0.66666896
   0.00000000  0.83333104  0.83333104
   0.16666893  0.00000000  0.16666893
   0.16666893  0.16666893  0.00000000
   0.16666893  0.83333104  0.00000000
   0.16666893  0.33333107  0.50000000
   0.16666893  0.50000000  0.33333107
   0.16666893  0.66666896  0.50000000
   0.16666893  0.00000000  0.83333104
   0.16666893  0.50000000  0.66666896
   0.16666893  0.33333107  0.16666893
   0.16666893  0.66666896  0.16666893
   0.16666893  0.16666893  0.33333107
   0.16666893  0.83333104  0.33333107
   0.16666893  0.16666893  0.66666896
   0.16666893  0.33333107  0.83333104
   0.16666893  0.66666896  0.83333104
   0.16666893  0.83333104  0.66666896
   0.16666894  0.50000000  0.00000000
   0.16666894  0.00000000  0.50000000
   0.33333106  0.00000000  0.00000000
   0.33333106  0.50000000  0.50000000
   0.33333107  0.16666893  0.16666893
   0.33333107  0.83333104  0.16666893
   0.33333107  0.33333107  0.33333107
   0.33333107  0.66666896  0.33333107
   0.33333107  0.16666893  0.83333104
   0.33333107  0.33333107  0.66666896
   0.33333107  0.66666896  0.66666896
   0.33333107  0.83333104  0.83333104
   0.33333107  0.33333107  0.00000000
   0.33333107  0.50000000  0.16666893
   0.33333107  0.66666896  0.00000000
   0.33333107  0.00000000  0.33333107
   0.33333107  0.16666893  0.50000000
   0.33333107  0.83333104  0.50000000
   0.33333107  0.00000000  0.66666896
   0.33333107  0.50000000  0.83333104
   0.50000000  0.00000000  0.16666894
   0.50000000  0.16666894  0.00000000
   0.50000000  0.33333107  0.16666893
   0.50000000  0.50000000  0.00000000
   0.50000000  0.66666896  0.16666893
   0.50000000  0.83333103  0.00000000
   0.50000000  0.00000000  0.50000000
   0.50000000  0.16666893  0.33333107
   0.50000000  0.33333106  0.50000000
   0.50000000  0.50000000  0.33333106
   0.50000000  0.66666897  0.50000000
   0.50000000  0.83333104  0.33333107
   0.50000000  0.00000000  0.83333103
   0.50000000  0.16666893  0.66666896
   0.50000000  0.33333107  0.83333104
   0.50000000  0.50000000  0.66666897
   0.50000000  0.66666896  0.83333104
   0.50000000  0.83333104  0.66666896
   0.66666896  0.33333107  0.00000000
   0.66666896  0.50000000  0.16666893
   0.66666896  0.66666896  0.00000000
   0.66666896  0.00000000  0.33333107
   0.66666896  0.16666893  0.50000000
   0.66666896  0.83333104  0.50000000
   0.66666896  0.00000000  0.66666896
   0.66666896  0.50000000  0.83333104
   0.66666896  0.16666893  0.16666893
   0.66666896  0.83333104  0.16666893
   0.66666896  0.33333107  0.33333107
   0.66666896  0.66666896  0.33333107
   0.66666896  0.16666893  0.83333104
   0.66666896  0.33333107  0.66666896
   0.66666896  0.66666896  0.66666896
   0.66666896  0.83333104  0.83333104
   0.66666897  0.00000000  0.00000000
   0.66666897  0.50000000  0.50000000
   0.83333103  0.50000000  0.00000000
   0.83333103  0.00000000  0.50000000
   0.83333104  0.33333107  0.16666893
   0.83333104  0.66666896  0.16666893
   0.83333104  0.16666893  0.33333107
   0.83333104  0.83333104  0.33333107
   0.83333104  0.16666893  0.66666896
   0.83333104  0.33333107  0.83333104
   0.83333104  0.66666896  0.83333104
   0.83333104  0.83333104  0.66666896
   0.83333104  0.00000000  0.16666893
   0.83333104  0.16666893  0.00000000
   0.83333104  0.83333104  0.00000000
   0.83333104  0.33333107  0.50000000
   0.83333104  0.50000000  0.33333107
   0.83333104  0.66666896  0.50000000
   0.83333104  0.00000000  0.83333104
   0.83333104  0.50000000  0.66666896
 
 position of ions in cartesian coordinates  (Angst):
   0.00000000  0.00000000  0.00000000
   0.00000000  1.72249793  1.72249793
   0.00000000  3.44492554  0.00000000
   0.00000000  5.16742352  1.72249798
   0.00000000  6.88992181  0.00000000
   0.00000000  8.61234882  1.72249793
   0.00000000  0.00000000  3.44492554
   0.00000000  1.72249798  5.16742352
   0.00000000  3.44492559  3.44492559
   0.00000000  5.16742352  5.16742352
   0.00000000  6.88992175  3.44492559
   0.00000000  8.61234877  5.16742352
   0.00000000  0.00000000  6.88992181
   0.00000000  1.72249793  8.61234882
   0.00000000  3.44492559  6.88992175
   0.00000000  5.16742352  8.61234877
   0.00000000  6.88992175  6.88992175
   0.00000000  8.61234882  8.61234882
   1.72249793  0.00000000  1.72249793
   1.72249793  1.72249793  0.00000000
   1.72249793  8.61234882  0.00000000
   1.72249793  3.44492559  5.16742352
   1.72249793  5.16742352  3.44492559
   1.72249793  6.88992175  5.16742352
   1.72249793  0.00000000  8.61234882
   1.72249793  5.16742352  6.88992175
   1.72249794  3.44492558  1.72249794
   1.72249794  6.88992176  1.72249794
   1.72249794  1.72249794  3.44492558
   1.72249794  8.61234881  3.44492558
   1.72249794  1.72249794  6.88992176
   1.72249794  3.44492558  8.61234881
   1.72249794  6.88992176  8.61234881
   1.72249794  8.61234881  6.88992176
   1.72249798  5.16742352  0.00000000
   1.72249798  0.00000000  5.16742352
   3.44492554  0.00000000  0.00000000
   3.44492554  5.16742352  5.16742352
   3.44492558  1.72249794  1.72249794
   3.44492558  8.61234881  1.72249794
   3.44492558  3.44492558  3.44492558
   3.44492558  6.88992176  3.44492558
   3.44492558  1.72249794  8.61234881
   3.44492558  3.44492558  6.88992176
   3.44492558  6.88992176  6.88992176
   3.44492558  8.61234881  8.61234881
   3.44492559  3.44492559  0.00000000
   3.44492559  5.16742352  1.72249793
   3.44492559  6.88992175  0.00000000
   3.44492559  0.00000000  3.44492559
   3.44492559  1.72249793  5.16742352
   3.44492559  8.61234882  5.16742352
   3.44492559  0.00000000  6.88992175
   3.44492559  5.16742352  8.61234882
   5.16742352  0.00000000  1.72249798
   5.16742352  1.72249798  0.00000000
   5.16742352  3.44492559  1.72249793
   5.16742352  5.16742352  0.00000000
   5.16742352  6.88992175  1.72249793
   5.16742352  8.61234877  0.00000000
   5.16742352  0.00000000  5.16742352
   5.16742352  1.72249793  3.44492559
   5.16742352  3.44492554  5.16742352
   5.16742352  5.16742352  3.44492554
   5.16742352  6.88992181  5.16742352
   5.16742352  8.61234882  3.44492559
   5.16742352  0.00000000  8.61234877
   5.16742352  1.72249793  6.88992175
   5.16742352  3.44492559  8.61234882
   5.16742352  5.16742352  6.88992181
   5.16742352  6.88992175  8.61234882
   5.16742352  8.61234882  6.88992175
   6.88992175  3.44492559  0.00000000
   6.88992175  5.16742352  1.72249793
   6.88992175  6.88992175  0.00000000
   6.88992175  0.00000000  3.44492559
   6.88992175  1.72249793  5.16742352
   6.88992175  8.61234882  5.16742352
   6.88992175  0.00000000  6.88992175
   6.88992175  5.16742352  8.61234882
   6.88992176  1.72249794  1.72249794
   6.88992176  8.61234881  1.72249794
   6.88992176  3.44492558  3.44492558
   6.88992176  6.88992176  3.44492558
   6.88992176  1.72249794  8.61234881
   6.88992176  3.44492558  6.88992176
   6.88992176  6.88992176  6.88992176
   6.88992176  8.61234881  8.61234881
   6.88992181  0.00000000  0.00000000
   6.88992181  5.16742352  5.16742352
   8.61234877  5.16742352  0.00000000
   8.61234877  0.00000000  5.16742352
   8.61234881  3.44492558  1.72249794
   8.61234881  6.88992176  1.72249794
   8.61234881  1.72249794  3.44492558
   8.61234881  8.61234881  3.44492558
   8.61234881  1.72249794  6.88992176
   8.61234881  3.44492558  8.61234881
   8.61234881  6.88992176  8.61234881
   8.61234881  8.61234881  6.88992176
   8.61234882  0.00000000  1.72249793
   8.61234882  1.72249793  0.00000000
   8.61234882  8.61234882  0.00000000
   8.61234882  3.44492559  5.16742352
   8.61234882  5.16742352  3.44492559
   8.61234882  6.88992175  5.16742352
   8.61234882  0.00000000  8.61234882
   8.61234882  5.16742352  6.88992175
 


--------------------------------------------------------------------------------------------------------


 k-point  1 :   0.1250 0.1250 0.1250  plane waves:   19996
 k-point  2 :   0.3750 0.1250 0.1250  plane waves:   20056
 k-point  3 :   0.3750 0.3750 0.1250  plane waves:   20045
 k-point  4 :   0.3750 0.3750 0.3750  plane waves:   20078

 maximum and minimum number of plane-waves per node :      5043     4980

 maximum number of plane-waves:     20078
 maximum index in each direction: 
   IXMAX=   16   IYMAX=   16   IZMAX=   16
   IXMIN=  -17   IYMIN=  -17   IZMIN=  -17


 real space projection operators:
  total allocation   :      71821.69 KBytes
  max/ min on nodes  :      18240.19      17708.62


 parallel 3D FFT for wavefunctions:
    minimum data exchange during FFTs selected (reduces bandwidth)
 parallel 3D FFT for charge:
    minimum data exchange during FFTs selected (reduces bandwidth)


 total amount of memory used by VASP MPI-rank0   109251. kBytes
=======================================================================

   base      :      30000. kBytes
   nonlr-proj:      31400. kBytes
   fftplans  :       6984. kBytes
   grid      :       9780. kBytes
   one-center:        419. kBytes
   wavefun   :      30668. kBytes
 
     INWAV:  cpu time    0.0000: real time    0.0001
 Broyden mixing: mesh for mixing (old mesh)
   NGX = 33   NGY = 33   NGZ = 33
  (NGX  =144   NGY  =144   NGZ  =144)
  gives a total of  35937 points

 initial charge density was supplied:
 charge density of overlapping atoms calculated
 number of electron     864.0000000 magnetization 
 keeping initial charge density in first step


--------------------------------------------------------------------------------------------------------


 Maximum index for non-local projection operator         1201
 Maximum index for augmentation-charges          621 (set IRDMAX)


--------------------------------------------------------------------------------------------------------


 First call to EWALD:  gamma=   0.172
 Maximum number of real-space cells 3x 3x 3
 Maximum number of reciprocal cells 3x 3x 3

    FEWALD:  cpu time    0.0055: real time    0.0058


--------------------------------------- Iteration      1(   1)  ---------------------------------------


    POTLOK:  cpu time    0.0965: real time    0.0979
    SETDIJ:  cpu time    0.0209: real time    0.0210
     EDDAV:  cpu time   15.8446: real time   15.8538
       DOS:  cpu time    0.0019: real time    0.0019
    --------------------------------------------
      LOOP:  cpu time   15.9640: real time   15.9746

 eigenvalue-minimisations  :  4188
 total energy-change (2. order) : 0.7541754E+04  (-0.2891278E+05)
 number of electron     864.0000000 magnetization 
 augmentation part      864.0000000 magnetization 

 Free energy of the ion-electron system (eV)
  ---------------------------------------------------
  alpha Z        PSCENC =      7300.31925852
  Ewald energy   TEWEN  =    -66232.83996889
  -Hartree energ DENC   =    -11197.02572336
  -exchange      EXHF   =         0.00000000
  -V(xc)+E(xc)   XCENC  =       446.63038354
  PAW double counting   =     51723.88885462   -52548.28121372
  entropy T*S    EENTRO =        -0.00934108
  eigenvalues    EBANDS =     13847.40090520
  atomic energy  EATOM  =     64201.67088057
  Solvation  Ediel_sol  =         0.00000000
  ---------------------------------------------------
  free energy    TOTEN  =      7541.75403540 eV

  energy without entropy =     7541.76337648  energy(sigma->0) =     7541.75714910


--------------------------------------------------------------------------------------------------------




--------------------------------------- Iteration      1(   2)  ---------------------------------------


     EDDAV:  cpu time   15.7903: real time   15.7971
       DOS:  cpu time    0.0026: real time    0.0026
    --------------------------------------------
      LOOP:  cpu time   15.7929: real time   15.7997

 eigenvalue-minimisations  :  4176
 total energy-change (2. order) :-0.7586848E+04  (-0.7406978E+04)
 number of electron     864.0000000 magnetization 
 augmentation part      864.0000000 magnetization 

 Free energy of the ion-electron system (eV)
  ---------------------------------------------------
  alpha Z        PSCENC =      7300.31925852
  Ewald energy   TEWEN  =    -66232.83996889
  -Hartree energ DENC   =    -11197.02572336
  -exchange      EXHF   =         0.00000000
  -V(xc)+E(xc)   XCENC  =       446.63038354
  PAW double counting   =     51723.88885462   -52548.28121372
  entropy T*S    EENTRO =         0.01226276
  eigenvalues    EBANDS =      6260.53172721
  atomic energy  EATOM  =     64201.67088057
  Solvation  Ediel_sol  =         0.00000000
  ---------------------------------------------------
  free energy    TOTEN  =       -45.09353875 eV

  energy without entropy =      -45.10580151  energy(sigma->0) =      -45.09762634


--------------------------------------------------------------------------------------------------------




--------------------------------------- Iteration      1(   3)  ---------------------------------------


     EDDAV:  cpu time   15.7546: real time   15.7634
       DOS:  cpu time    0.0028: real time    0.0028
    --------------------------------------------
      LOOP:  cpu time   15.7574: real time   15.7661

 eigenvalue-minimisations  :  4176
 total energy-change (2. order) :-0.8125272E+03  (-0.6933077E+03)
 number of electron     864.0000000 magnetization 
 augmentation part      864.0000000 magnetization 

 Free energy of the ion-electron system (eV)
  ---------------------------------------------------
  alpha Z        PSCENC =      7300.31925852
  Ewald energy   TEWEN  =    -66232.83996889
  -Hartree energ DENC   =    -11197.02572336
  -exchange      EXHF   =         0.00000000
  -V(xc)+E(xc)   XCENC  =       446.63038354
  PAW double counting   =     51723.88885462   -52548.28121372
  entropy T*S    EENTRO =         0.03257756
  eigenvalues    EBANDS =      5447.98420442
  atomic energy  EATOM  =     64201.67088057
  Solvation  Ediel_sol  =         0.00000000
  ---------------------------------------------------
  free energy    TOTEN  =      -857.62074674 eV

  energy without entropy =     -857.65332430  energy(sigma->0) =     -857.63160593


--------------------------------------------------------------------------------------------------------




--------------------------------------- Iteration      1(   4)  ---------------------------------------


     EDDAV:  cpu time   25.5817: real time   25.5900
       DOS:  cpu time    0.0029: real time    0.0029
    --------------------------------------------
      LOOP:  cpu time   25.5846: real time   25.5929

 eigenvalue-minimisations  :  7572
 total energy-change (2. order) :-0.1734700E+03  (-0.1626318E+03)
 number of electron     864.0000000 magnetization 
 augmentation part      864.0000000 magnetization 

 Free energy of the ion-electron system (eV)
  ---------------------------------------------------
  alpha Z        PSCENC =      7300.31925852
  Ewald energy   TEWEN  =    -66232.83996889
  -Hartree energ DENC   =    -11197.02572336
  -exchange      EXHF   =         0.00000000
  -V(xc)+E(xc)   XCENC  =       446.63038354
  PAW double counting   =     51723.88885462   -52548.28121372
  entropy T*S    EENTRO =        -0.08414725
  eigenvalues    EBANDS =      5274.63096671
  atomic energy  EATOM  =     64201.67088057
  Solvation  Ediel_sol  =         0.00000000
  ---------------------------------------------------
  free energy    TOTEN  =     -1031.09070927 eV

  energy without entropy =    -1031.00656201  energy(sigma->0) =    -1031.06266018


--------------------------------------------------------------------------------------------------------




--------------------------------------- Iteration      1(   5)  ---------------------------------------


     EDDAV:  cpu time   22.9920: real time   23.0022
       DOS:  cpu time    0.0029: real time    0.0029
    CHARGE:  cpu time    0.8958: real time    0.8960
    MIXING:  cpu time    0.0035: real time    0.0035
    --------------------------------------------
      LOOP:  cpu time   23.8942: real time   23.9047

 eigenvalue-minimisations  :  6672
 total energy-change (2. order) :-0.1412485E+02  (-0.1340881E+02)
 number of electron     864.0000691 magnetization 
 augmentation part      382.7838770 magnetization 

 Broyden mixing:
  rms(total) = 0.93444E+01    rms(broyden)= 0.93438E+01
  rms(prec ) = 0.11651E+02
  weight for this iteration     100.00

 Free energy of the ion-electron system (eV)
  ---------------------------------------------------
  alpha Z        PSCENC =      7300.31925852
  Ewald energy   TEWEN  =    -66232.83996889
  -Hartree energ DENC   =    -11197.02572336
  -exchange      EXHF   =         0.00000000
  -V(xc)+E(xc)   XCENC  =       446.63038354
  PAW double counting   =     51723.88885462   -52548.28121372
  entropy T*S    EENTRO =        -0.10420349
  eigenvalues    EBANDS =      5260.52617425
  atomic energy  EATOM  =     64201.67088057
  Solvation  Ediel_sol  =         0.00000000
  ---------------------------------------------------
  free energy    TOTEN  =     -1045.21555796 eV

  energy without entropy =    -1045.11135447  energy(sigma->0) =    -1045.18082346


--------------------------------------------------------------------------------------------------------




--------------------------------------- Iteration      1(   6)  ---------------------------------------


    POTLOK:  cpu time    0.0932: real time    0.0935
    SETDIJ:  cpu time    0.0215: real time    0.0215
    EDDIAG:  cpu time    2.2241: real time    2.2252
  RMM-DIIS:  cpu time    9.0111: real time    9.0181
    ORTHCH:  cpu time    0.4245: real time    0.4247
       DOS:  cpu time    0.0032: real time    0.0032
    CHARGE:  cpu time    0.8961: real time    0.8962
    MIXING:  cpu time    0.0033: real time    0.0034
    --------------------------------------------
      LOOP:  cpu time   12.6771: real time   12.6858

 eigenvalue-minimisations  :  4176
 total energy-change (2. order) : 0.1675292E+03  (-0.1353446E+03)
 number of electron     864.0000777 magnetization 
 augmentation part      447.8353005 magnetization 

 Broyden mixing:
  rms(total) = 0.89843E+00    rms(broyden)= 0.89737E+00
  rms(prec ) = 0.97123E+00
  weight for this iteration     100.00

 eigenvalues of (default mixing * dielectric matrix)
  average eigenvalue GAMMA=   0.9481
  0.9481

 Free energy of the ion-electron system (eV)
  ---------------------------------------------------
  alpha Z        PSCENC =      7300.31925852
  Ewald energy   TEWEN  =    -66232.83996889
  -Hartree energ DENC   =     -9342.21523958
  -exchange      EXHF   =         0.00000000
  -V(xc)+E(xc)   XCENC  =       355.84436419
  PAW double counting   =     52445.35994271   -53026.14120565
  entropy T*S    EENTRO =        -0.05642039
  eigenvalues    EBANDS =      3420.37201600
  atomic energy  EATOM  =     64201.67088057
  Solvation  Ediel_sol  =         0.00000000
  ---------------------------------------------------
  free energy    TOTEN  =      -877.68637252 eV

  energy without entropy =     -877.62995213  energy(sigma->0) =     -877.66756572


--------------------------------------------------------------------------------------------------------




--------------------------------------- Iteration      1(   7)  ---------------------------------------


    POTLOK:  cpu time    0.0925: real time    0.0944
    SETDIJ:  cpu time    0.0213: real time    0.0213
    EDDIAG:  cpu time    2.2305: real time    2.2312
  RMM-DIIS:  cpu time    9.5172: real time    9.5201
    ORTHCH:  cpu time    0.4232: real time    0.4234
       DOS:  cpu time    0.0033: real time    0.0033
    CHARGE:  cpu time    0.8955: real time    0.8957
    MIXING:  cpu time    0.0033: real time    0.0033
    --------------------------------------------
      LOOP:  cpu time   13.1867: real time   13.1926

 eigenvalue-minimisations  :  4525
 total energy-change (2. order) :-0.2630613E+01  (-0.1088065E+02)
 number of electron     864.0000752 magnetization 
 augmentation part      446.8919592 magnetization 

 Broyden mixing:
  rms(total) = 0.33229E+00    rms(broyden)= 0.33117E+00
  rms(prec ) = 0.36760E+00
  weight for this iteration     100.00

 eigenvalues of (default mixing * dielectric matrix)
  average eigenvalue GAMMA=   1.1045
  1.1045  1.1045

 Free energy of the ion-electron system (eV)
  ---------------------------------------------------
  alpha Z        PSCENC =      7300.31925852
  Ewald energy   TEWEN  =    -66232.83996889
  -Hartree energ DENC   =     -9383.97584038
  -exchange      EXHF   =         0.00000000
  -V(xc)+E(xc)   XCENC  =       360.39151209
  PAW double counting   =     54329.00574680   -55106.18770103
  entropy T*S    EENTRO =        -0.13585837
  eigenvalues    EBANDS =      3651.43498529
  atomic energy  EATOM  =     64201.67088057
  Solvation  Ediel_sol  =         0.00000000
  ---------------------------------------------------
  free energy    TOTEN  =      -880.31698540 eV

  energy without entropy =     -880.18112703  energy(sigma->0) =     -880.27169928


--------------------------------------------------------------------------------------------------------




--------------------------------------- Iteration      1(   8)  ---------------------------------------


    POTLOK:  cpu time    0.0917: real time    0.0918
    SETDIJ:  cpu time    0.0211: real time    0.0211
    EDDIAG:  cpu time    2.2308: real time    2.2315
  RMM-DIIS:  cpu time    9.3599: real time    9.3625
    ORTHCH:  cpu time    0.4228: real time    0.4230
       DOS:  cpu time    0.0032: real time    0.0032
    CHARGE:  cpu time    0.8980: real time    0.8982
    MIXING:  cpu time    0.0034: real time    0.0034
    --------------------------------------------
      LOOP:  cpu time   13.0308: real time   13.0347

 eigenvalue-minimisations  :  4425
 total energy-change (2. order) : 0.9445753E+00  (-0.1261896E+01)
 number of electron     864.0000748 magnetization 
 augmentation part      442.9816754 magnetization 

 Broyden mixing:
  rms(total) = 0.36058E+00    rms(broyden)= 0.36052E+00
  rms(prec ) = 0.46217E+00
  weight for this iteration     100.00

 eigenvalues of (default mixing * dielectric matrix)
  average eigenvalue GAMMA=   0.9260
  1.3277  0.9391  0.5110

 Free energy of the ion-electron system (eV)
  ---------------------------------------------------
  alpha Z        PSCENC =      7300.31925852
  Ewald energy   TEWEN  =    -66232.83996889
  -Hartree energ DENC   =     -9417.39432296
  -exchange      EXHF   =         0.00000000
  -V(xc)+E(xc)   XCENC  =       363.16438371
  PAW double counting   =     56160.95720108   -57048.54513323
  entropy T*S    EENTRO =        -0.07034891
  eigenvalues    EBANDS =      3793.36563998
  atomic energy  EATOM  =     64201.67088057
  Solvation  Ediel_sol  =         0.00000000
  ---------------------------------------------------
  free energy    TOTEN  =      -879.37241012 eV

  energy without entropy =     -879.30206121  energy(sigma->0) =     -879.34896048


--------------------------------------------------------------------------------------------------------




--------------------------------------- Iteration      1(   9)  ---------------------------------------


    POTLOK:  cpu time    0.0917: real time    0.0930
    SETDIJ:  cpu time    0.0212: real time    0.0212
    EDDIAG:  cpu time    2.2308: real time    2.2318
  RMM-DIIS:  cpu time   11.9671: real time   11.9721
    ORTHCH:  cpu time    0.4225: real time    0.4226
       DOS:  cpu time    0.0033: real time    0.0033
    CHARGE:  cpu time    0.8954: real time    0.8956
    MIXING:  cpu time    0.0045: real time    0.0045
    --------------------------------------------
      LOOP:  cpu time   15.6365: real time   15.6441

 eigenvalue-minimisations  :  5774
 total energy-change (2. order) :-0.3482826E+00  (-0.4333370E+00)
 number of electron     864.0000751 magnetization 
 augmentation part      443.8866251 magnetization 

 Broyden mixing:
  rms(total) = 0.48229E+00    rms(broyden)= 0.48211E+00
  rms(prec ) = 0.66203E+00
  weight for this iteration     100.00

 eigenvalues of (default mixing * dielectric matrix)
  average eigenvalue GAMMA=   1.1507
  2.4577  1.0203  1.0203  0.1045

 Free energy of the ion-electron system (eV)
  ---------------------------------------------------
  alpha Z        PSCENC =      7300.31925852
  Ewald energy   TEWEN  =    -66232.83996889
  -Hartree energ DENC   =     -9399.85785224
  -exchange      EXHF   =         0.00000000
  -V(xc)+E(xc)   XCENC  =       362.44787908
  PAW double counting   =     56454.95089040   -57352.87907915
  entropy T*S    EENTRO =        -0.07437985
  eigenvalues    EBANDS =      3786.54167878
  atomic energy  EATOM  =     64201.67088057
  Solvation  Ediel_sol  =         0.00000000
  ---------------------------------------------------
  free energy    TOTEN  =      -879.72069277 eV

  energy without entropy =     -879.64631292  energy(sigma->0) =     -879.69589948


--------------------------------------------------------------------------------------------------------




--------------------------------------- Iteration      1(  10)  ---------------------------------------


    POTLOK:  cpu time    0.1118: real time    0.1726
    SETDIJ:  cpu time    0.0213: real time    0.0213
    EDDIAG:  cpu time    2.2282: real time    2.2294
  RMM-DIIS:  cpu time   10.2165: real time   10.2246
    ORTHCH:  cpu time    0.4265: real time    0.4266
       DOS:  cpu time    0.0032: real time    0.0032
    CHARGE:  cpu time    0.8959: real time    0.8960
    MIXING:  cpu time    0.0037: real time    0.0037
    --------------------------------------------
      LOOP:  cpu time   13.9072: real time   13.9775

 eigenvalue-minimisations  :  4893
 total energy-change (2. order) : 0.2080969E+00  (-0.9821774E-01)
 number of electron     864.0000752 magnetization 
 augmentation part      445.0880561 magnetization 

 Broyden mixing:
  rms(total) = 0.10002E+00    rms(broyden)= 0.99641E-01
  rms(prec ) = 0.12462E+00
  weight for this iteration     100.00

 eigenvalues of (default mixing * dielectric matrix)
  average eigenvalue GAMMA=   1.2959
  2.7346  1.7410  0.9497  0.9497  0.1044

 Free energy of the ion-electron system (eV)
  ---------------------------------------------------
  alpha Z        PSCENC =      7300.31925852
  Ewald energy   TEWEN  =    -66232.83996889
  -Hartree energ DENC   =     -9321.02904139
  -exchange      EXHF   =         0.00000000
  -V(xc)+E(xc)   XCENC  =       359.28157339
  PAW double counting   =     57839.56523341   -58782.81365983
  entropy T*S    EENTRO =        -0.08182837
  eigenvalues    EBANDS =      3756.41495674
  atomic energy  EATOM  =     64201.67088057
  Solvation  Ediel_sol  =         0.00000000
  ---------------------------------------------------
  free energy    TOTEN  =      -879.51259586 eV

  energy without entropy =     -879.43076749  energy(sigma->0) =     -879.48531974


--------------------------------------------------------------------------------------------------------




--------------------------------------- Iteration      1(  11)  ---------------------------------------


    POTLOK:  cpu time    0.0918: real time    0.0919
    SETDIJ:  cpu time    0.0213: real time    0.0213
    EDDIAG:  cpu time    2.2293: real time    2.2299
  RMM-DIIS:  cpu time   10.5502: real time   10.5514
    ORTHCH:  cpu time    0.4246: real time    0.4246
       DOS:  cpu time    0.0033: real time    0.0033
    CHARGE:  cpu time    0.8947: real time    0.8947
    MIXING:  cpu time    0.0037: real time    0.0037
    --------------------------------------------
      LOOP:  cpu time   14.2189: real time   14.2208

 eigenvalue-minimisations  :  5045
 total energy-change (2. order) :-0.2845787E-02  (-0.2352291E-01)
 number of electron     864.0000752 magnetization 
 augmentation part      444.8127898 magnetization 

 Broyden mixing:
  rms(total) = 0.47784E-01    rms(broyden)= 0.47774E-01
  rms(prec ) = 0.61340E-01
  weight for this iteration     100.00

 eigenvalues of (default mixing * dielectric matrix)
  average eigenvalue GAMMA=   1.2796
  2.7891  2.1494  0.9585  0.9585  0.7174  0.1044

 Free energy of the ion-electron system (eV)
  ---------------------------------------------------
  alpha Z        PSCENC =      7300.31925852
  Ewald energy   TEWEN  =    -66232.83996889
  -Hartree energ DENC   =     -9336.07334937
  -exchange      EXHF   =         0.00000000
  -V(xc)+E(xc)   XCENC  =       359.99101934
  PAW double counting   =     58025.97858054   -58968.02236670
  entropy T*S    EENTRO =        -0.07711252
  eigenvalues    EBANDS =      3769.53761685
  atomic energy  EATOM  =     64201.67088057
  Solvation  Ediel_sol  =         0.00000000
  ---------------------------------------------------
  free energy    TOTEN  =      -879.51544165 eV

  energy without entropy =     -879.43832913  energy(sigma->0) =     -879.48973748


--------------------------------------------------------------------------------------------------------




--------------------------------------- Iteration      1(  12)  ---------------------------------------


    POTLOK:  cpu time    0.0917: real time    0.0918
    SETDIJ:  cpu time    0.0212: real time    0.0212
    EDDIAG:  cpu time    2.2251: real time    2.2253
  RMM-DIIS:  cpu time   10.8534: real time   10.8547
    ORTHCH:  cpu time    0.4259: real time    0.4259
       DOS:  cpu time    0.0033: real time    0.0033
    CHARGE:  cpu time    0.8949: real time    0.8950
    MIXING:  cpu time    0.0039: real time    0.0039
    --------------------------------------------
      LOOP:  cpu time   14.5194: real time   14.5210

 eigenvalue-minimisations  :  5171
 total energy-change (2. order) :-0.9511972E-03  (-0.6551927E-02)
 number of electron     864.0000752 magnetization 
 augmentation part      444.6076129 magnetization 

 Broyden mixing:
  rms(total) = 0.11922E-01    rms(broyden)= 0.11918E-01
  rms(prec ) = 0.16496E-01
  weight for this iteration     100.00

 eigenvalues of (default mixing * dielectric matrix)
  average eigenvalue GAMMA=   1.2755
  2.6744  2.2821  0.9631  0.9631  0.9705  0.9705  0.1044

 Free energy of the ion-electron system (eV)
  ---------------------------------------------------
  alpha Z        PSCENC =      7300.31925852
  Ewald energy   TEWEN  =    -66232.83996889
  -Hartree energ DENC   =     -9346.31739283
  -exchange      EXHF   =         0.00000000
  -V(xc)+E(xc)   XCENC  =       360.43629136
  PAW double counting   =     58034.95517656   -58973.28662854
  entropy T*S    EENTRO =        -0.07443942
  eigenvalues    EBANDS =      3775.62042982
  atomic energy  EATOM  =     64201.67088057
  Solvation  Ediel_sol  =         0.00000000
  ---------------------------------------------------
  free energy    TOTEN  =      -879.51639285 eV

  energy without entropy =     -879.44195343  energy(sigma->0) =     -879.49157971


--------------------------------------------------------------------------------------------------------




--------------------------------------- Iteration      1(  13)  ---------------------------------------


    POTLOK:  cpu time    0.0926: real time    0.0954
    SETDIJ:  cpu time    0.0212: real time    0.0212
    EDDIAG:  cpu time    2.2235: real time    2.2278
  RMM-DIIS:  cpu time   12.5295: real time   12.5451
    ORTHCH:  cpu time    0.4268: real time    0.4269
       DOS:  cpu time    0.0033: real time    0.0033
    CHARGE:  cpu time    0.8990: real time    0.8991
    MIXING:  cpu time    0.0041: real time    0.0041
    --------------------------------------------
      LOOP:  cpu time   16.2001: real time   16.2228

 eigenvalue-minimisations  :  6058
 total energy-change (2. order) :-0.7709881E-03  (-0.1186645E-02)
 number of electron     864.0000752 magnetization 
 augmentation part      444.5954209 magnetization 

 Broyden mixing:
  rms(total) = 0.49834E-02    rms(broyden)= 0.49725E-02
  rms(prec ) = 0.69757E-02
  weight for this iteration     100.00

 eigenvalues of (default mixing * dielectric matrix)
  average eigenvalue GAMMA=   1.5294
  3.2187  2.5371  2.5371  1.0764  0.9580  0.9580  0.8453  0.1044

 Free energy of the ion-electron system (eV)
  ---------------------------------------------------
  alpha Z        PSCENC =      7300.31925852
  Ewald energy   TEWEN  =    -66232.83996889
  -Hartree energ DENC   =     -9347.84728708
  -exchange      EXHF   =         0.00000000
  -V(xc)+E(xc)   XCENC  =       360.49509594
  PAW double counting   =     58022.63257990   -58959.51329114
  entropy T*S    EENTRO =        -0.07377286
  eigenvalues    EBANDS =      3775.63934121
  atomic energy  EATOM  =     64201.67088057
  Solvation  Ediel_sol  =         0.00000000
  ---------------------------------------------------
  free energy    TOTEN  =      -879.51716383 eV

  energy without entropy =     -879.44339098  energy(sigma->0) =     -879.49257288


--------------------------------------------------------------------------------------------------------




--------------------------------------- Iteration      1(  14)  ---------------------------------------


    POTLOK:  cpu time    0.0926: real time    0.0930
    SETDIJ:  cpu time    0.0212: real time    0.0212
    EDDIAG:  cpu time    2.2361: real time    2.2365
  RMM-DIIS:  cpu time   11.7386: real time   11.7399
    ORTHCH:  cpu time    0.4283: real time    0.4283
       DOS:  cpu time    0.0033: real time    0.0033
    CHARGE:  cpu time    0.8996: real time    0.8997
    MIXING:  cpu time    0.0042: real time    0.0042
    --------------------------------------------
      LOOP:  cpu time   15.4239: real time   15.4262

 eigenvalue-minimisations  :  5669
 total energy-change (2. order) :-0.4760190E-04  (-0.4635075E-04)
 number of electron     864.0000752 magnetization 
 augmentation part      444.6056933 magnetization 

 Broyden mixing:
  rms(total) = 0.80463E-02    rms(broyden)= 0.80395E-02
  rms(prec ) = 0.11308E-01
  weight for this iteration     100.00

 eigenvalues of (default mixing * dielectric matrix)
  average eigenvalue GAMMA=   1.3615
  2.5953  2.2388  2.2388  1.3381  0.9579  0.9579  0.9289  0.8935  0.1044

 Free energy of the ion-electron system (eV)
  ---------------------------------------------------
  alpha Z        PSCENC =      7300.31925852
  Ewald energy   TEWEN  =    -66232.83996889
  -Hartree energ DENC   =     -9347.73073911
  -exchange      EXHF   =         0.00000000
  -V(xc)+E(xc)   XCENC  =       360.49351564
  PAW double counting   =     58020.66502341   -58957.38676209
  entropy T*S    EENTRO =        -0.07342819
  eigenvalues    EBANDS =      3775.36500871
  atomic energy  EATOM  =     64201.67088057
  Solvation  Ediel_sol  =         0.00000000
  ---------------------------------------------------
  free energy    TOTEN  =      -879.51721144 eV

  energy without entropy =     -879.44378324  energy(sigma->0) =     -879.49273537


--------------------------------------------------------------------------------------------------------




--------------------------------------- Iteration      1(  15)  ---------------------------------------


    POTLOK:  cpu time    0.0919: real time    0.0948
    SETDIJ:  cpu time    0.0212: real time    0.0212
    EDDIAG:  cpu time    2.2263: real time    2.2266
  RMM-DIIS:  cpu time   10.0227: real time   10.0240
    ORTHCH:  cpu time    0.4271: real time    0.4272
       DOS:  cpu time    0.0033: real time    0.0033
    CHARGE:  cpu time    0.9004: real time    0.9005
    MIXING:  cpu time    0.0043: real time    0.0043
    --------------------------------------------
      LOOP:  cpu time   13.6973: real time   13.7019

 eigenvalue-minimisations  :  4790
 total energy-change (2. order) : 0.1014200E-03  ( 0.1161219E-04)
 number of electron     864.0000752 magnetization 
 augmentation part      444.5940179 magnetization 

 Broyden mixing:
  rms(total) = 0.82697E-03    rms(broyden)= 0.81538E-03
  rms(prec ) = 0.10266E-02
  weight for this iteration     100.00

 eigenvalues of (default mixing * dielectric matrix)
  average eigenvalue GAMMA=   1.4534
  2.7201  2.7201  2.1068  2.1068  0.1044  0.9565  0.9565  1.0454  0.9619  0.8556

 Free energy of the ion-electron system (eV)
  ---------------------------------------------------
  alpha Z        PSCENC =      7300.31925852
  Ewald energy   TEWEN  =    -66232.83996889
  -Hartree energ DENC   =     -9348.22161491
  -exchange      EXHF   =         0.00000000
  -V(xc)+E(xc)   XCENC  =       360.51361216
  PAW double counting   =     58018.46972552   -58955.05710059
  entropy T*S    EENTRO =        -0.07303575
  eigenvalues    EBANDS =      3775.70113335
  atomic energy  EATOM  =     64201.67088057
  Solvation  Ediel_sol  =         0.00000000
  ---------------------------------------------------
  free energy    TOTEN  =      -879.51711002 eV

  energy without entropy =     -879.44407426  energy(sigma->0) =     -879.49276477


--------------------------------------------------------------------------------------------------------




--------------------------------------- Iteration      1(  16)  ---------------------------------------


    POTLOK:  cpu time    0.0919: real time    0.0920
    SETDIJ:  cpu time    0.0212: real time    0.0212
    EDDIAG:  cpu time    2.2256: real time    2.2258
  RMM-DIIS:  cpu time   11.3864: real time   11.3878
    ORTHCH:  cpu time    0.4317: real time    0.4350
       DOS:  cpu time    0.0034: real time    0.0034
    CHARGE:  cpu time    0.8989: real time    0.8990
    MIXING:  cpu time    0.0044: real time    0.0044
    --------------------------------------------
      LOOP:  cpu time   15.0634: real time   15.0685

 eigenvalue-minimisations  :  5409
 total energy-change (2. order) : 0.3286988E-04  ( 0.1060006E-04)
 number of electron     864.0000752 magnetization 
 augmentation part      444.5840845 magnetization 

 Broyden mixing:
  rms(total) = 0.10602E-02    rms(broyden)= 0.10600E-02
  rms(prec ) = 0.14124E-02
  weight for this iteration     100.00

 eigenvalues of (default mixing * dielectric matrix)
  average eigenvalue GAMMA=   1.3868
  2.6753  2.4626  2.1269  2.1269  0.1044  1.2181  0.9648  0.9648  1.0033  0.8037
  0.8037

 Free energy of the ion-electron system (eV)
  ---------------------------------------------------
  alpha Z        PSCENC =      7300.31925852
  Ewald energy   TEWEN  =    -66232.83996889
  -Hartree energ DENC   =     -9348.54145428
  -exchange      EXHF   =         0.00000000
  -V(xc)+E(xc)   XCENC  =       360.52765468
  PAW double counting   =     58018.71868434   -58955.20752844
  entropy T*S    EENTRO =        -0.07273382
  eigenvalues    EBANDS =      3775.90813016
  atomic energy  EATOM  =     64201.67088057
  Solvation  Ediel_sol  =         0.00000000
  ---------------------------------------------------
  free energy    TOTEN  =      -879.51707715 eV

  energy without entropy =     -879.44434333  energy(sigma->0) =     -879.49283254


--------------------------------------------------------------------------------------------------------




--------------------------------------- Iteration      1(  17)  ---------------------------------------


    POTLOK:  cpu time    0.0920: real time    0.0921
    SETDIJ:  cpu time    0.0211: real time    0.0211
    EDDIAG:  cpu time    2.2266: real time    2.2268
  RMM-DIIS:  cpu time    9.6349: real time    9.6385
    ORTHCH:  cpu time    0.4271: real time    0.4271
       DOS:  cpu time    0.0033: real time    0.0033
    CHARGE:  cpu time    0.8999: real time    0.9000
    MIXING:  cpu time    0.0047: real time    0.0047
    --------------------------------------------
      LOOP:  cpu time   13.3097: real time   13.3137

[...]
   -.104E-01 0.105E-01 0.105E-01   0.202E-01 -.205E-01 -.205E-01   0.000E+00 -.917E-21 -.176E-20   0.478E-07 0.371E-07 0.371E-07
   -.104E-01 -.105E-01 -.105E-01   0.202E-01 0.205E-01 0.205E-01   0.000E+00 -.106E-19 -.932E-20   0.479E-07 -.361E-07 -.361E-07
   -.103E-01 -.103E-01 -.143E-04   0.202E-01 0.202E-01 0.277E-04   0.000E+00 -.593E-20 -.424E-20   0.477E-07 0.477E-07 -.849E-07
   -.103E-01 0.143E-04 0.103E-01   0.202E-01 -.277E-04 -.202E-01   0.000E+00 0.424E-20 0.140E-19   0.478E-07 0.849E-07 -.487E-07
   -.103E-01 0.105E-01 -.143E-04   0.202E-01 -.205E-01 0.277E-04   0.000E+00 -.476E-21 0.339E-20   0.477E-07 0.372E-07 -.849E-07
   -.103E-01 -.143E-04 -.103E-01   0.202E-01 0.277E-04 0.202E-01   0.000E+00 0.127E-20 -.424E-19   0.477E-07 -.849E-07 0.477E-07
   -.103E-01 0.103E-01 0.143E-04   0.202E-01 -.202E-01 -.277E-04   0.000E+00 0.157E-19 -.169E-20   0.478E-07 -.487E-07 0.849E-07
   -.103E-01 -.105E-01 0.143E-04   0.202E-01 0.205E-01 -.277E-04   0.000E+00 -.169E-20 0.119E-19   0.478E-07 -.362E-07 0.849E-07
   -.103E-01 -.143E-04 0.105E-01   0.202E-01 0.277E-04 -.205E-01   0.000E+00 0.720E-20 0.291E-19   0.477E-07 -.849E-07 0.372E-07
   -.103E-01 0.143E-04 -.105E-01   0.202E-01 -.277E-04 0.205E-01   0.000E+00 0.593E-20 0.254E-20   0.478E-07 0.849E-07 -.362E-07
   0.143E-04 -.143E-04 0.104E-01   -.277E-04 0.277E-04 -.203E-01   0.127E-20 -.635E-20 0.436E-20   0.849E-07 -.849E-07 -.489E-07
   0.143E-04 0.104E-01 -.143E-04   -.277E-04 -.203E-01 0.277E-04   -.424E-21 0.159E-20 -.208E-19   0.849E-07 -.489E-07 -.849E-07
   0.143E-04 -.103E-01 0.103E-01   -.277E-04 0.202E-01 -.202E-01   0.254E-20 -.136E-19 -.621E-20   0.849E-07 0.478E-07 -.487E-07
   0.143E-04 0.143E-04 -.143E-04   -.277E-04 -.277E-04 0.277E-04   0.424E-21 0.296E-20 0.301E-19   0.849E-07 0.849E-07 -.849E-07
   0.143E-04 0.105E-01 0.103E-01   -.277E-04 -.205E-01 -.202E-01   0.000E+00 0.106E-19 -.295E-19   0.849E-07 0.371E-07 -.487E-07
   0.143E-04 -.105E-01 -.143E-04   -.277E-04 0.205E-01 0.277E-04   -.847E-21 -.114E-19 0.000E+00   0.849E-07 -.360E-07 -.849E-07
   0.143E-04 -.143E-04 0.143E-04   -.277E-04 0.277E-04 -.277E-04   0.424E-21 0.593E-20 0.169E-20   0.849E-07 -.849E-07 0.849E-07
   0.143E-04 0.103E-01 -.103E-01   -.277E-04 -.202E-01 0.202E-01   0.127E-20 0.544E-20 0.593E-20   0.849E-07 -.487E-07 0.478E-07
   0.143E-04 -.104E-01 0.143E-04   -.277E-04 0.203E-01 -.277E-04   0.169E-20 -.169E-19 -.889E-20   0.849E-07 0.480E-07 0.849E-07
   0.143E-04 0.143E-04 -.104E-01   -.277E-04 -.277E-04 0.203E-01   -.169E-20 0.102E-19 -.343E-19   0.849E-07 0.849E-07 0.480E-07
   0.143E-04 0.105E-01 0.143E-04   -.277E-04 -.205E-01 -.277E-04   0.424E-21 -.505E-20 -.508E-20   0.849E-07 0.369E-07 0.849E-07
   0.143E-04 -.105E-01 -.103E-01   -.277E-04 0.205E-01 0.202E-01   0.424E-21 -.127E-20 -.208E-19   0.849E-07 -.362E-07 0.478E-07
   0.143E-04 -.143E-04 -.105E-01   -.277E-04 0.277E-04 0.205E-01   0.000E+00 0.720E-20 0.114E-19   0.849E-07 -.849E-07 -.360E-07
   0.143E-04 0.103E-01 0.105E-01   -.277E-04 -.202E-01 -.205E-01   0.424E-21 0.139E-19 -.269E-19   0.849E-07 -.487E-07 0.371E-07
   0.143E-04 -.103E-01 -.105E-01   -.277E-04 0.202E-01 0.205E-01   -.127E-20 -.140E-19 -.106E-19   0.849E-07 0.478E-07 -.362E-07
   0.143E-04 0.143E-04 0.105E-01   -.277E-04 -.277E-04 -.205E-01   0.847E-21 0.127E-20 0.443E-19   0.849E-07 0.849E-07 0.369E-07
   0.143E-04 0.105E-01 -.105E-01   -.277E-04 -.205E-01 0.205E-01   -.424E-21 0.122E-19 -.123E-19   0.849E-07 0.371E-07 -.362E-07
   0.143E-04 -.105E-01 0.105E-01   -.277E-04 0.205E-01 -.205E-01   -.847E-21 -.593E-20 0.744E-20   0.849E-07 -.362E-07 0.371E-07
   0.105E-01 -.103E-01 -.143E-04   -.205E-01 0.202E-01 0.277E-04   0.259E-20 -.889E-20 -.381E-20   0.372E-07 0.477E-07 -.849E-07
   0.105E-01 0.143E-04 0.103E-01   -.205E-01 -.277E-04 -.202E-01   0.409E-21 0.152E-19 -.469E-19   0.371E-07 0.849E-07 -.487E-07
   0.105E-01 0.105E-01 -.143E-04   -.205E-01 -.205E-01 0.277E-04   0.184E-21 -.898E-21 -.551E-20   0.372E-07 0.372E-07 -.849E-07
   0.105E-01 -.143E-04 -.103E-01   -.205E-01 0.277E-04 0.202E-01   -.758E-21 0.131E-19 0.182E-19   0.372E-07 -.849E-07 0.477E-07
   0.105E-01 0.103E-01 0.143E-04   -.205E-01 -.202E-01 -.277E-04   0.173E-21 -.854E-21 -.136E-19   0.371E-07 -.487E-07 0.849E-07
   0.105E-01 -.105E-01 0.143E-04   -.205E-01 0.205E-01 -.277E-04   0.162E-21 0.000E+00 0.847E-21   0.371E-07 -.362E-07 0.849E-07
   0.105E-01 -.143E-04 0.105E-01   -.205E-01 0.277E-04 -.205E-01   0.261E-21 0.424E-20 -.255E-19   0.372E-07 -.849E-07 0.372E-07
   0.105E-01 0.143E-04 -.105E-01   -.205E-01 -.277E-04 0.205E-01   -.591E-21 0.144E-19 0.805E-20   0.371E-07 0.849E-07 -.362E-07
   0.105E-01 0.104E-01 0.104E-01   -.205E-01 -.202E-01 -.202E-01   0.314E-22 0.194E-20 0.556E-20   0.370E-07 -.488E-07 -.488E-07
   0.105E-01 -.105E-01 0.104E-01   -.205E-01 0.205E-01 -.202E-01   -.172E-21 -.140E-19 -.105E-19   0.370E-07 -.361E-07 -.488E-07
   0.105E-01 -.104E-01 -.104E-01   -.205E-01 0.202E-01 0.202E-01   0.185E-20 -.974E-20 -.847E-21   0.371E-07 0.478E-07 0.478E-07
   0.105E-01 0.105E-01 -.104E-01   -.205E-01 -.205E-01 0.202E-01   0.546E-21 0.443E-20 0.551E-20   0.371E-07 0.371E-07 0.478E-07
   0.105E-01 0.104E-01 -.105E-01   -.205E-01 -.202E-01 0.205E-01   0.139E-21 0.381E-20 0.847E-21   0.370E-07 -.488E-07 -.361E-07
   0.105E-01 -.104E-01 0.105E-01   -.205E-01 0.202E-01 -.205E-01   -.705E-21 -.131E-19 0.215E-19   0.371E-07 0.478E-07 0.371E-07
   0.105E-01 0.105E-01 0.105E-01   -.205E-01 -.205E-01 -.205E-01   -.182E-20 0.459E-20 -.107E-19   0.371E-07 0.371E-07 0.371E-07
   0.105E-01 -.105E-01 -.105E-01   -.205E-01 0.205E-01 0.205E-01   0.516E-21 0.508E-20 0.635E-20   0.370E-07 -.361E-07 -.361E-07
   0.105E-01 -.143E-04 -.143E-04   -.205E-01 0.277E-04 0.277E-04   -.248E-20 0.119E-19 -.169E-19   0.370E-07 -.849E-07 -.849E-07
   0.105E-01 0.143E-04 0.143E-04   -.205E-01 -.277E-04 -.277E-04   -.285E-21 0.191E-19 -.220E-19   0.369E-07 0.849E-07 0.849E-07
   -.105E-01 0.143E-04 -.143E-04   0.205E-01 -.277E-04 0.277E-04   0.000E+00 -.169E-20 0.335E-19   -.360E-07 0.849E-07 -.849E-07
   -.105E-01 -.143E-04 0.143E-04   0.205E-01 0.277E-04 -.277E-04   0.000E+00 0.635E-20 0.136E-19   -.360E-07 -.849E-07 0.849E-07
   -.105E-01 -.104E-01 0.104E-01   0.205E-01 0.202E-01 -.202E-01   -.424E-21 -.296E-20 -.134E-19   -.361E-07 0.479E-07 -.488E-07
   -.105E-01 0.105E-01 0.104E-01   0.205E-01 -.205E-01 -.202E-01   -.424E-21 -.837E-21 -.231E-19   -.361E-07 0.370E-07 -.488E-07
   -.105E-01 0.104E-01 -.104E-01   0.205E-01 -.202E-01 0.202E-01   0.424E-21 0.925E-20 0.330E-19   -.361E-07 -.488E-07 0.479E-07
   -.105E-01 -.105E-01 -.104E-01   0.205E-01 0.205E-01 0.202E-01   0.000E+00 0.381E-20 -.847E-21   -.361E-07 -.361E-07 0.479E-07
   -.105E-01 0.104E-01 0.105E-01   0.205E-01 -.202E-01 -.205E-01   0.000E+00 0.245E-20 -.404E-19   -.361E-07 -.488E-07 0.370E-07
   -.105E-01 -.104E-01 -.105E-01   0.205E-01 0.202E-01 0.205E-01   0.000E+00 -.102E-19 -.140E-19   -.361E-07 0.479E-07 -.361E-07
   -.105E-01 0.105E-01 -.105E-01   0.205E-01 -.205E-01 0.205E-01   0.000E+00 -.347E-20 0.191E-19   -.361E-07 0.370E-07 -.361E-07
   -.105E-01 -.105E-01 0.105E-01   0.205E-01 0.205E-01 -.205E-01   -.424E-21 -.424E-21 0.956E-20   -.361E-07 -.361E-07 0.370E-07
   -.105E-01 -.143E-04 0.103E-01   0.205E-01 0.277E-04 -.202E-01   0.000E+00 -.263E-19 0.298E-19   -.362E-07 -.849E-07 -.487E-07
   -.105E-01 0.103E-01 -.143E-04   0.205E-01 -.202E-01 0.277E-04   -.424E-21 0.139E-19 -.343E-19   -.362E-07 -.487E-07 -.849E-07
   -.105E-01 -.105E-01 -.143E-04   0.205E-01 0.205E-01 0.277E-04   -.847E-21 0.720E-20 -.466E-20   -.362E-07 -.362E-07 -.849E-07
   -.105E-01 -.103E-01 0.143E-04   0.205E-01 0.202E-01 -.277E-04   -.424E-21 0.212E-20 0.424E-20   -.362E-07 0.478E-07 0.849E-07
   -.105E-01 0.143E-04 -.103E-01   0.205E-01 -.277E-04 0.202E-01   0.847E-21 -.114E-19 -.241E-19   -.362E-07 0.849E-07 0.478E-07
   -.105E-01 0.105E-01 0.143E-04   0.205E-01 -.205E-01 -.277E-04   -.424E-21 0.215E-20 -.224E-19   -.362E-07 0.371E-07 0.849E-07
   -.105E-01 -.143E-04 -.105E-01   0.205E-01 0.277E-04 0.205E-01   -.424E-21 -.508E-20 -.339E-19   -.362E-07 -.849E-07 -.362E-07
   -.105E-01 0.143E-04 0.105E-01   0.205E-01 -.277E-04 -.205E-01   -.424E-21 -.678E-20 0.341E-19   -.362E-07 0.849E-07 0.371E-07
 -----------------------------------------------------------------------------------------------
   0.492E-09 0.472E-09 0.491E-09   -.747E-11 -.137E-12 0.549E-12   -.486E-20 -.516E-19 -.255E-18   -.285E-09 -.283E-09 -.286E-09
 
 
 POSITION                                       TOTAL-FORCE (eV/Angst)
 -----------------------------------------------------------------------------------
      0.00000      0.00000      0.00000         0.000000     -0.000000      0.000000
      0.00000      1.72250      1.72250         0.000000     -0.000000     -0.000000
      0.00000      3.44493      0.00000        -0.000000     -0.000000      0.000000
      0.00000      5.16742      1.72250        -0.000000     -0.000000      0.000000
      0.00000      6.88992      0.00000         0.000000     -0.000000      0.000000
      0.00000      8.61235      1.72250        -0.000000      0.000000      0.000000
      0.00000      0.00000      3.44493        -0.000000     -0.000000      0.000000
      0.00000      1.72250      5.16742        -0.000000      0.000000     -0.000000
      0.00000      3.44493      3.44493         0.000000     -0.000000     -0.000000
      0.00000      5.16742      5.16742         0.000000      0.000000      0.000000
      0.00000      6.88992      3.44493         0.000000      0.000000      0.000000
      0.00000      8.61235      5.16742         0.000000      0.000000      0.000000
      0.00000      0.00000      6.88992        -0.000000      0.000000     -0.000000
      0.00000      1.72250      8.61235        -0.000000      0.000000      0.000000
      0.00000      3.44493      6.88992         0.000000     -0.000000      0.000000
      0.00000      5.16742      8.61235         0.000000      0.000000     -0.000000
      0.00000      6.88992      6.88992         0.000000     -0.000000     -0.000000
      0.00000      8.61235      8.61235        -0.000000      0.000000     -0.000000
      1.72250      0.00000      1.72250        -0.000000     -0.000000      0.000000
      1.72250      1.72250      0.00000        -0.000000     -0.000000      0.000000
      1.72250      8.61235      0.00000         0.000000      0.000000      0.000000
      1.72250      3.44493      5.16742         0.000000     -0.000000      0.000000
      1.72250      5.16742      3.44493        -0.000000     -0.000000     -0.000000
      1.72250      6.88992      5.16742        -0.000000      0.000000     -0.000000
      1.72250      0.00000      8.61235         0.000000      0.000000     -0.000000
      1.72250      5.16742      6.88992        -0.000000      0.000000      0.000000
      1.72250      3.44493      1.72250         0.000000     -0.000000      0.000000
      1.72250      6.88992      1.72250        -0.000000      0.000000     -0.000000
      1.72250      1.72250      3.44493        -0.000000     -0.000000     -0.000000
      1.72250      8.61235      3.44493        -0.000000      0.000000     -0.000000
      1.72250      1.72250      6.88992        -0.000000     -0.000000      0.000000
      1.72250      3.44493      8.61235         0.000000     -0.000000      0.000000
      1.72250      6.88992      8.61235         0.000000     -0.000000      0.000000
      1.72250      8.61235      6.88992         0.000000      0.000000      0.000000
      1.72250      5.16742      0.00000         0.000000     -0.000000     -0.000000
      1.72250      0.00000      5.16742        -0.000000      0.000000      0.000000
      3.44493      0.00000      0.00000         0.000000     -0.000000      0.000000
      3.44493      5.16742      5.16742        -0.000000      0.000000      0.000000
      3.44493      1.72250      1.72250         0.000000      0.000000      0.000000
      3.44493      8.61235      1.72250         0.000000     -0.000000      0.000000
      3.44493      3.44493      3.44493         0.000000     -0.000000      0.000000
      3.44493      6.88992      3.44493        -0.000000     -0.000000      0.000000
      3.44493      1.72250      8.61235         0.000000     -0.000000     -0.000000
      3.44493      3.44493      6.88992        -0.000000     -0.000000      0.000000
      3.44493      6.88992      6.88992        -0.000000      0.000000     -0.000000
      3.44493      8.61235      8.61235         0.000000     -0.000000     -0.000000
      3.44493      3.44493      0.00000         0.000000     -0.000000     -0.000000
      3.44493      5.16742      1.72250         0.000000      0.000000      0.000000
      3.44493      6.88992      0.00000         0.000000      0.000000      0.000000
      3.44493      0.00000      3.44493         0.000000     -0.000000     -0.000000
      3.44493      1.72250      5.16742         0.000000     -0.000000      0.000000
      3.44493      8.61235      5.16742        -0.000000     -0.000000      0.000000
      3.44493      0.00000      6.88992         0.000000      0.000000      0.000000
      3.44493      5.16742      8.61235        -0.000000      0.000000     -0.000000
      5.16742      0.00000      1.72250        -0.000000     -0.000000      0.000000
      5.16742      1.72250      0.00000        -0.000000      0.000000      0.000000
      5.16742      3.44493      1.72250        -0.000000     -0.000000     -0.000000
      5.16742      5.16742      0.00000        -0.000000     -0.000000     -0.000000
      5.16742      6.88992      1.72250         0.000000     -0.000000     -0.000000
      5.16742      8.61235      0.00000         0.000000      0.000000     -0.000000
      5.16742      0.00000      5.16742        -0.000000     -0.000000      0.000000
      5.16742      1.72250      3.44493        -0.000000      0.000000     -0.000000
      5.16742      3.44493      5.16742         0.000000      0.000000     -0.000000
      5.16742      5.16742      3.44493        -0.000000     -0.000000      0.000000
      5.16742      6.88992      5.16742         0.000000      0.000000     -0.000000
      5.16742      8.61235      3.44493        -0.000000      0.000000      0.000000
      5.16742      0.00000      8.61235        -0.000000     -0.000000     -0.000000
      5.16742      1.72250      6.88992        -0.000000     -0.000000      0.000000
      5.16742      3.44493      8.61235        -0.000000      0.000000      0.000000
      5.16742      5.16742      6.88992         0.000000      0.000000     -0.000000
      5.16742      6.88992      8.61235        -0.000000      0.000000      0.000000
      5.16742      8.61235      6.88992        -0.000000      0.000000     -0.000000
      6.88992      3.44493      0.00000        -0.000000     -0.000000     -0.000000
      6.88992      5.16742      1.72250        -0.000000     -0.000000      0.000000
      6.88992      6.88992      0.00000        -0.000000      0.000000      0.000000
      6.88992      0.00000      3.44493        -0.000000      0.000000      0.000000
      6.88992      1.72250      5.16742        -0.000000     -0.000000     -0.000000
      6.88992      8.61235      5.16742        -0.000000      0.000000     -0.000000
      6.88992      0.00000      6.88992         0.000000      0.000000     -0.000000
      6.88992      5.16742      8.61235        -0.000000     -0.000000     -0.000000
      6.88992      1.72250      1.72250        -0.000000     -0.000000     -0.000000
      6.88992      8.61235      1.72250        -0.000000      0.000000      0.000000
      6.88992      3.44493      3.44493        -0.000000     -0.000000      0.000000
      6.88992      6.88992      3.44493         0.000000      0.000000      0.000000
      6.88992      1.72250      8.61235        -0.000000      0.000000     -0.000000
      6.88992      3.44493      6.88992        -0.000000     -0.000000     -0.000000
      6.88992      6.88992      6.88992        -0.000000      0.000000     -0.000000
      6.88992      8.61235      8.61235        -0.000000      0.000000     -0.000000
      6.88992      0.00000      0.00000        -0.000000      0.000000     -0.000000
      6.88992      5.16742      5.16742        -0.000000     -0.000000      0.000000
      8.61235      5.16742      0.00000         0.000000     -0.000000     -0.000000
      8.61235      0.00000      5.16742         0.000000      0.000000      0.000000
      8.61235      3.44493      1.72250         0.000000      0.000000      0.000000
      8.61235      6.88992      1.72250        -0.000000      0.000000      0.000000
      8.61235      1.72250      3.44493         0.000000     -0.000000     -0.000000
      8.61235      8.61235      3.44493         0.000000      0.000000     -0.000000
      8.61235      1.72250      6.88992        -0.000000      0.000000      0.000000
      8.61235      3.44493      8.61235         0.000000      0.000000     -0.000000
      8.61235      6.88992      8.61235        -0.000000     -0.000000     -0.000000
      8.61235      8.61235      6.88992         0.000000      0.000000      0.000000
      8.61235      0.00000      1.72250         0.000000      0.000000      0.000000
      8.61235      1.72250      0.00000         0.000000     -0.000000      0.000000
      8.61235      8.61235      0.00000         0.000000      0.000000      0.000000
      8.61235      3.44493      5.16742         0.000000      0.000000     -0.000000
      8.61235      5.16742      3.44493         0.000000     -0.000000      0.000000
      8.61235      6.88992      5.16742        -0.000000      0.000000      0.000000
      8.61235      0.00000      8.61235         0.000000      0.000000     -0.000000
      8.61235      5.16742      6.88992        -0.000000      0.000000     -0.000000
 -----------------------------------------------------------------------------------
    total drift:                                0.000000      0.000000      0.000000


--------------------------------------------------------------------------------------------------------



  FREE ENERGIE OF THE ION-ELECTRON SYSTEM (eV)
  ---------------------------------------------------
  free  energy   TOTEN  =      -879.51694764 eV

  energy  without entropy=     -879.44604791  energy(sigma->0) =     -879.49331439
 


--------------------------------------------------------------------------------------------------------


    POTLOK:  cpu time    0.1132: real time    0.1132


--------------------------------------------------------------------------------------------------------




--------------------------------------------------------------------------------------------------------


  
 reached required accuracy - stopping structural energy minimisation
     LOOP+:  cpu time  506.5092: real time  506.8016
    4ORBIT:  cpu time    0.0000: real time    0.0000

 total amount of memory used by VASP MPI-rank0   109251. kBytes
=======================================================================

   base      :      30000. kBytes
   nonlr-proj:      31400. kBytes
   fftplans  :       6984. kBytes
   grid      :       9780. kBytes
   one-center:        419. kBytes
   wavefun   :      30668. kBytes
 
  
  
 General timing and accounting informations for this job:
 ========================================================
  
                  Total CPU time used (sec):      511.547
                            User time (sec):      510.639
                          System time (sec):        0.908
                         Elapsed time (sec):      511.853
  
                   Maximum memory used (kb):      154316.
                   Average memory used (kb):           0.
  
                          Minor page faults:       146740
                          Major page faults:            0
                 Voluntary context switches:          581
