<?xml version="1.0" encoding="ISO-8859-1"?>
<modeling>
 <generator>
  <i name="program" type="string">vasp </i>
  <i name="version" type="string">5.4.4.18Apr17-6-g9f103f2a35  </i>
  <i name="subversion" type="string">(build Aug 17 2017 06:00:38) complex            parallel </i>
  <i name="platform" type="string">LinuxIFC </i>
  <i name="date" type="string">2019 07 12 </i>
  <i name="time" type="string">19:00:50 </i>
 </generator>
 <incar>
  <i type="string" name="SYSTEM">Opt</i>
  <i type="int" name="ISTART">     0</i>
  <i type="string" name="PREC">normal</i>
  <i type="string" name="ALGO"> Fast</i>
  <i type="int" name="ISPIN">     1</i>
  <i type="int" name="ICHARG">     2</i>
  <i type="int" name="NELM">   400</i>
  <i type="int" name="IBRION">     2</i>
  <i name="EDIFF">      0.00000100</i>
  <i name="EDIFFG">     -0.01000000</i>
  <i type="int" name="NSW">   100</i>
  <i type="int" name="ISIF">     3</i>
  <i name="ENCUT">    400.00000000</i>
  <i type="int" name="NGX">    72</i>
  <i type="int" name="NGY">    72</i>
  <i type="int" name="NGZ">    72</i>
  <i name="POTIM">      0.50000000</i>
  <i type="string" name="LREAL">Auto</i>
  <i type="logical" name="LWAVE"> F  </i>
  <i type="logical" name="LCHARG"> F  </i>
  <v type="int" name="KPOINT_BSE">    -1     0     0     0</v>
  <i type="int" name="NELM">   400</i>
 </incar>
 <structure name="primitive_cell" >
  <crystal>
   <varray name="basis" >
    <v>       3.44492529       0.00000000       0.00000000 </v>
    <v>       0.00000000       3.44492529       0.00000000 </v>
    <v>       0.00000000       0.00000000       3.44492524 </v>
   </varray>
   <i name="volume">     40.88268573 </i>
   <varray name="rec_basis" >
    <v>       0.29028206       0.00000000       0.00000000 </v>
    <v>       0.00000000       0.29028206       0.00000000 </v>
    <v>       0.00000000       0.00000000       0.29028206 </v>
   </varray>
  </crystal>
  <varray name="positions" >
   <v>       0.00000000       0.00000000       0.00000000 </v>
   <v>       0.00000000      -0.49998976      -0.49998975 </v>
   <v>      -0.49998976       0.00000000      -0.49998975 </v>
   <v>      -0.49998976      -0.49998976       0.00000000 </v>
  </varray>
 </structure>
 <varray name="primitive_index" >
  <v type="int" >        1 </v>
  <v type="int" >        2 </v>
  <v type="int" >       19 </v>
  <v type="int" >       20 </v>
 </varray>
 <kpoints>
  <generation param="Monkhorst-Pack">
   <v type="int" name="divisions">       4        4        4 </v>
   <v name="usershift">      0.00000000       0.00000000       0.00000000 </v>
   <v name="genvec1">      0.25000000       0.00000000       0.00000000 </v>
   <v name="genvec2">      0.00000000       0.25000000       0.00000000 </v>
   <v name="genvec3">      0.00000000       0.00000000       0.25000000 </v>
   <v name="shift">      0.50000000       0.50000000       0.50000000 </v>
  </generation>
  <varray name="kpointlist" >
   <v>       0.12500000       0.12500000       0.12500000 </v>
   <v>       0.37500000       0.12500000       0.12500000 </v>
   <v>       0.37500000       0.37500000       0.12500000 </v>
   <v>       0.37500000       0.37500000       0.37500000 </v>
  </varray>
  <varray name="weights" >
   <v>       0.12500000 </v>
   <v>       0.37500000 </v>
   <v>       0.37500000 </v>
   <v>       0.12500000 </v>
  </varray>
 </kpoints>
 <parameters>
  <separator name="general" >
   <i type="string" name="SYSTEM">Opt</i>
   <i type="logical" name="LCOMPAT"> F  </i>
  </separator>
  <separator name="electronic" >
   <i type="string" name="PREC">normal</i>
   <i name="ENMAX">    400.00000000</i>
   <i name="ENAUG">    511.36800000</i>
   <i name="EDIFF">      0.00000100</i>
   <i type="int" name="IALGO">    68</i>
   <i type="int" name="IWAVPR">    11</i>
   <i type="int" name="NBANDS">   522</i>
   <i name="NELECT">    864.00000000</i>
   <i type="int" name="TURBO">     0</i>
   <i type="int" name="IRESTART">     0</i>
   <i type="int" name="NREBOOT">     0</i>
   <i type="int" name="NMIN">     0</i>
   <i name="EREF">      0.00000000</i>
   <separator name="electronic smearing" >
    <i type="int" name="ISMEAR">     1</i>
    <i name="SIGMA">      0.20000000</i>
    <i name="KSPACING">      0.50000000</i>
    <i type="logical" name="KGAMMA"> T  </i>
   </separator>
   <separator name="electronic projectors" >
    <i type="logical" name="LREAL"> T  </i>
    <v name="ROPT">     -0.00050000</v>
    <i type="int" name="LMAXPAW">  -100</i>
    <i type="int" name="LMAXMIX">     2</i>
    <i type="logical" name="NLSPLINE"> F  </i>
   </separator>
   <separator name="electronic startup" >
    <i type="int" name="ISTART">     0</i>
    <i type="int" name="ICHARG">     2</i>
    <i type="int" name="INIWAV">     1</i>
   </separator>
   <separator name="electronic spin" >
    <i type="int" name="ISPIN">     1</i>
    <i type="logical" name="LNONCOLLINEAR"> F  </i>
    <v name="MAGMOM">      1.00000000      1.00000000      1.00000000      1.00000000      1.00000000      1.00000000      1.00000000      1.00000000      1.00000000      1.00000000      1.00000000      1.00000000      1.00000000      1.00000000      1.00000000      1.00000000      1.00000000      1.00000000      1.00000000      1.00000000
      1.00000000      1.00000000      1.00000000      1.00000000      1.00000000      1.00000000      1.00000000      1.00000000      1.00000000      1.00000000      1.00000000      1.00000000      1.00000000      1.00000000      1.00000000      1.00000000      1.00000000      1.00000000      1.00000000      1.00000000
      1.00000000      1.00000000      1.00000000      1.00000000      1.00000000      1.00000000      1.00000000      1.00000000      1.00000000      1.00000000      1.00000000      1.00000000      1.00000000      1.00000000      1.00000000      1.00000000      1.00000000      1.00000000      1.00000000      1.00000000
      1.00000000      1.00000000      1.00000000      1.00000000      1.00000000      1.00000000      1.00000000      1.00000000      1.00000000      1.00000000      1.00000000      1.00000000      1.00000000      1.00000000      1.00000000      1.00000000      1.00000000      1.00000000      1.00000000      1.00000000
      1.00000000      1.00000000      1.00000000      1.00000000      1.00000000      1.00000000      1.00000000      1.00000000      1.00000000      1.00000000      1.00000000      1.00000000      1.00000000      1.00000000      1.00000000      1.00000000      1.00000000      1.00000000      1.00000000      1.00000000
      1.00000000      1.00000000      1.00000000      1.00000000      1.00000000      1.00000000      1.00000000      1.00000000</v>
    <i name="NUPDOWN">     -1.00000000</i>
    <i type="logical" name="LSORBIT"> F  </i>
    <v name="SAXIS">      0.00000000      0.00000000      1.00000000</v>
    <i type="logical" name="LSPIRAL"> F  </i>
    <v name="QSPIRAL">      0.00000000      0.00000000      0.00000000</v>
    <i type="logical" name="LZEROZ"> F  </i>
   </separator>
   <separator name="electronic exchange-correlation" >
    <i type="logical" name="LASPH"> F  </i>
    <i type="logical" name="LMETAGGA"> F  </i>
   </separator>
   <separator name="electronic convergence" >
    <i type="int" name="NELM">   400</i>
    <i type="int" name="NELMDL">    -5</i>
    <i type="int" name="NELMIN">     2</i>
    <i name="ENINI">    400.00000000</i>
    <separator name="electronic convergence detail" >
     <i type="logical" name="LDIAG"> T  </i>
     <i type="logical" name="LSUBROT"> F  </i>
     <i name="WEIMIN">      0.00100000</i>
     <i name="EBREAK">      0.00000000</i>
     <i name="DEPER">      0.30000000</i>
     <i type="int" name="NRMM">     4</i>
     <i name="TIME">      0.40000000</i>
    </separator>
   </separator>
   <separator name="electronic mixer" >
    <i name="AMIX">      0.40000000</i>
    <i name="BMIX">      1.00000000</i>
    <i name="AMIN">      0.10000000</i>
    <i name="AMIX_MAG">      1.60000000</i>
    <i name="BMIX_MAG">      1.00000000</i>
    <separator name="electronic mixer details" >
     <i type="int" name="IMIX">     4</i>
     <i type="logical" name="MIXFIRST"> F  </i>
     <i type="int" name="MAXMIX">   -45</i>
     <i name="WC">    100.00000000</i>
     <i type="int" name="INIMIX">     1</i>
     <i type="int" name="MIXPRE">     1</i>
     <i type="int" name="MREMOVE">     5</i>
    </separator>
   </separator>
   <separator name="electronic dipolcorrection" >
    <i type="logical" name="LDIPOL"> F  </i>
    <i type="logical" name="LMONO"> F  </i>
    <i type="int" name="IDIPOL">     0</i>
    <i name="EPSILON">      1.00000000</i>
    <v name="DIPOL">   -100.00000000   -100.00000000   -100.00000000</v>
    <i name="EFIELD">      0.00000000</i>
   </separator>
  </separator>
  <separator name="grids" >
   <i type="int" name="NGX">    72</i>
   <i type="int" name="NGY">    72</i>
   <i type="int" name="NGZ">    72</i>
   <i type="int" name="NGXF">   144</i>
   <i type="int" name="NGYF">   144</i>
   <i type="int" name="NGZF">   144</i>
   <i type="logical" name="ADDGRID"> F  </i>
  </separator>
  <separator name="ionic" >
   <i type="int" name="NSW">   100</i>
   <i type="int" name="IBRION">     2</i>
   <i type="int" name="MDALGO">     0</i>
   <i type="int" name="ISIF">     3</i>
   <i name="PSTRESS">      0.00000000</i>
   <i name="EDIFFG">     -0.01000000</i>
   <i type="int" name="NFREE">     1</i>
   <i name="POTIM">      0.50000000</i>
   <i name="SMASS">     -3.00000000</i>
   <i name="SCALEE">      1.00000000</i>
  </separator>
  <separator name="ionic md" >
   <i name="TEBEG">      0.00010000</i>
   <i name="TEEND">      0.00010000</i>
   <i type="int" name="NBLOCK">     1</i>
   <i type="int" name="KBLOCK">   100</i>
   <i type="int" name="NPACO">   256</i>
   <i name="APACO">     16.00000000</i>
  </separator>
  <separator name="symmetry" >
   <i type="int" name="ISYM">     2</i>
   <i name="SYMPREC">      0.00001000</i>
  </separator>
  <separator name="dos" >
   <i type="int" name="LORBIT">     0</i>
   <v name="RWIGS">     -1.00000000</v>
   <i type="int" name="NEDOS">   301</i>
   <i name="EMIN">     10.00000000</i>
   <i name="EMAX">    -10.00000000</i>
   <i name="EFERMI">      0.00000000</i>
  </separator>
  <separator name="writing" >
   <i type="int" name="NWRITE">     2</i>
   <i type="logical" name="LWAVE"> F  </i>
   <i type="logical" name="LDOWNSAMPLE"> F  </i>
   <i type="logical" name="LCHARG"> F  </i>
   <i type="logical" name="LPARD"> F  </i>
   <i type="logical" name="LVTOT"> F  </i>
   <i type="logical" name="LVHAR"> F  </i>
   <i type="logical" name="LELF"> F  </i>
   <i type="logical" name="LOPTICS"> F  </i>
   <v name="STM">      0.00000000      0.00000000      0.00000000      0.00000000      0.00000000      0.00000000      0.00000000</v>
  </separator>
  <separator name="performance" >
   <i type="int" name="NPAR">     6</i>
   <i type="int" name="NSIM">     4</i>
   <i type="int" name="NBLK">    -1</i>
   <i type="logical" name="LPLANE"> T  </i>
   <i type="logical" name="LSCALAPACK"> T  </i>
   <i type="logical" name="LSCAAWARE"> F  </i>
   <i type="logical" name="LSCALU"> F  </i>
   <i type="logical" name="LASYNC"> F  </i>
   <i type="logical" name="LORBITALREAL"> F  </i>
  </separator>
  <separator name="miscellaneous" >
   <i type="int" name="IDIOT">     3</i>
   <i type="int" name="ISPECIAL">     0</i>
   <i type="logical" name="LMUSIC"> F  </i>
   <v name="POMASS">     55.84700000</v>
   <v name="DARWINR">      0.00000000</v>
   <v name="DARWINV">      1.00000000</v>
   <i type="logical" name="LCORR"> T  </i>
  </separator>
  <i type="logical" name="GGA_COMPAT"> T  </i>
  <i type="logical" name="LBERRY"> F  </i>
  <i type="int" name="ICORELEVEL">     0</i>
  <i type="logical" name="LDAU"> F  </i>
  <i type="int" name="I_CONSTRAINED_M">     0</i>
  <separator name="electronic exchange-correlation" >
   <i type="string" name="GGA">--</i>
   <i type="int" name="VOSKOWN">     0</i>
   <i type="logical" name="LHFCALC"> F  </i>
   <i type="string" name="PRECFOCK"></i>
   <i type="logical" name="LSYMGRAD"> F  </i>
   <i type="logical" name="LHFONE"> F  </i>
   <i type="logical" name="LRHFCALC"> F  </i>
   <i type="logical" name="LTHOMAS"> F  </i>
   <i type="logical" name="LMODELHF"> F  </i>
   <i name="ENCUT4O">     -1.00000000</i>
   <i type="int" name="EXXOEP">     0</i>
   <i type="int" name="FOURORBIT">     0</i>
   <i name="AEXX">      0.00000000</i>
   <i name="HFALPHA">      0.00000000</i>
   <i name="MCALPHA">      0.00000000</i>
   <i name="ALDAX">      1.00000000</i>
   <i name="AGGAX">      1.00000000</i>
   <i name="ALDAC">      1.00000000</i>
   <i name="AGGAC">      1.00000000</i>
   <i type="int" name="NKREDX">     1</i>
   <i type="int" name="NKREDY">     1</i>
   <i type="int" name="NKREDZ">     1</i>
   <i type="logical" name="SHIFTRED"> F  </i>
   <i type="logical" name="ODDONLY"> F  </i>
   <i type="logical" name="EVENONLY"> F  </i>
   <i type="int" name="LMAXFOCK">     0</i>
   <i type="int" name="NMAXFOCKAE">     0</i>
   <i type="logical" name="LFOCKAEDFT"> F  </i>
   <i name="HFSCREEN">      0.00000000</i>
   <i name="HFSCREENC">      0.00000000</i>
   <i type="int" name="NBANDSGWLOW">     0</i>
  </separator>
  <separator name="vdW DFT" >
   <i type="logical" name="LUSE_VDW"> F  </i>
   <i name="Zab_VDW">     -0.84910000</i>
   <i name="PARAM1">      0.12340000</i>
   <i name="PARAM2">      1.00000000</i>
   <i name="PARAM3">      0.00000000</i>
  </separator>
  <separator name="model GW" >
   <i type="int" name="MODEL_GW">     0</i>
   <i name="MODEL_EPS0">      6.13252964</i>
   <i name="MODEL_ALPHA">      1.00000000</i>
  </separator>
  <separator name="linear response parameters" >
   <i type="logical" name="LEPSILON"> F  </i>
   <i type="logical" name="LRPA"> F  </i>
   <i type="logical" name="LNABLA"> F  </i>
   <i type="logical" name="LVEL"> F  </i>
   <i type="int" name="KINTER">     0</i>
   <i name="CSHIFT">      0.10000000</i>
   <i name="OMEGAMAX">     -1.00000000</i>
   <i name="DEG_THRESHOLD">      0.00200000</i>
   <i name="RTIME">     -0.10000000</i>
   <i name="WPLASMAI">      0.00000000</i>
   <v name="DFIELD">      0.00000000      0.00000000      0.00000000</v>
   <v name="WPLASMA">      0.00000000      0.00000000      0.00000000      0.00000000      0.00000000      0.00000000      0.00000000      0.00000000      0.00000000</v>
  </separator>
  <separator name="orbital magnetization" >
   <i type="logical" name="NUCIND"> F  </i>
   <v name="MAGPOS">      0.00000000      0.00000000      0.00000000</v>
   <i type="logical" name="LNICSALL"> T  </i>
   <i type="logical" name="ORBITALMAG"> F  </i>
   <i type="logical" name="LMAGBLOCH"> F  </i>
   <i type="logical" name="LCHIMAG"> F  </i>
   <i type="logical" name="LGAUGE"> T  </i>
   <i type="int" name="MAGATOM">     0</i>
   <v name="MAGDIPOL">      0.00000000      0.00000000      0.00000000</v>
   <v name="AVECCONST">      0.00000000      0.00000000      0.00000000</v>
  </separator>
  <separator name="response functions" >
   <i type="logical" name="LADDER"> F  </i>
   <i type="logical" name="LRPAFORCE"> F  </i>
   <i type="logical" name="LFXC"> F  </i>
   <i type="logical" name="LHARTREE"> T  </i>
   <i type="int" name="IBSE">     0</i>
   <v type="int" name="KPOINT">    -1     0     0     0</v>
   <i type="logical" name="LTCTE"> F  </i>
   <i type="logical" name="LTETE"> F  </i>
   <i type="logical" name="LTRIPLET"> F  </i>
   <i type="logical" name="LFXCEPS"> F  </i>
   <i type="logical" name="LFXHEG"> F  </i>
   <i type="int" name="NATURALO">     2</i>
   <i type="logical" name="L2ORDER"> F  </i>
   <i type="logical" name="LMP2LT"> F  </i>
   <i type="logical" name="LUSEW"> F  </i>
   <i name="ENCUTGW">     -2.00000000</i>
   <i name="ENCUTGWSOFT">     -2.00000000</i>
   <i name="ENCUTLF">     -1.00000000</i>
   <i type="int" name="LMAXMP2">    -1</i>
   <i name="SCISSOR">      0.00000000</i>
   <i type="int" name="NOMEGA">     0</i>
   <i type="int" name="NOMEGAR">     0</i>
   <i type="int" name="NBANDSGW">    -1</i>
   <i type="int" name="NBANDSO">    -1</i>
   <i type="int" name="NBANDSV">    -1</i>
   <i type="int" name="NELM">   400</i>
   <i type="int" name="NELMHF">     1</i>
   <i type="int" name="DIM">     3</i>
   <i type="int" name="ANTIRES">     0</i>
   <i name="OMEGAMAX">    -30.00000000</i>
   <i name="OMEGAMIN">    -30.00000000</i>
   <i name="OMEGATL">   -200.00000000</i>
   <i type="int" name="OMEGAGRID">   140</i>
   <i name="CSHIFT">     -0.10000000</i>
   <i type="logical" name="SELFENERGY"> F  </i>
   <i type="logical" name="LSPECTRAL"> F  </i>
   <i type="logical" name="LSPECTRALGW"> F  </i>
   <i type="logical" name="LSINGLES"> F  </i>
   <i type="logical" name="LFERMIGW"> F  </i>
   <i type="logical" name="ODDONLYGW"> F  </i>
   <i type="logical" name="EVENONLYGW"> F  </i>
   <i type="int" name="NKREDLFX">     1</i>
   <i type="int" name="NKREDLFY">     1</i>
   <i type="int" name="NKREDLFZ">     1</i>
   <i type="int" name="MAXMEM">  2800</i>
   <i type="int" name="TELESCOPE">     0</i>
   <i type="int" name="TAUPAR">     1</i>
   <i type="int" name="OMEGAPAR">    -1</i>
   <i name="LAMBDA">      1.00000000</i>
  </separator>
  <separator name="External order field" >
   <i name="OFIELD_KAPPA">      0.00000000</i>
   <v name="OFIELD_K">      0.00000000      0.00000000      0.00000000</v>
   <i name="OFIELD_Q6_NEAR">      0.00000000</i>
   <i name="OFIELD_Q6_FAR">      0.00000000</i>
   <i name="OFIELD_A">      0.00000000</i>
  </separator>
 </parameters>
 <atominfo>
  <atoms>     108 </atoms>
  <types>       1 </types>
  <array name="atoms" >
   <dimension dim="1">ion</dimension>
   <field type="string">element</field>
   <field type="int">atomtype</field>
   <set>
    <rc><c>Fe</c><c>   1</c></rc>
    <rc><c>Fe</c><c>   1</c></rc>
    <rc><c>Fe</c><c>   1</c></rc>
    <rc><c>Fe</c><c>   1</c></rc>
    <rc><c>Fe</c><c>   1</c></rc>
    <rc><c>Fe</c><c>   1</c></rc>
    <rc><c>Fe</c><c>   1</c></rc>
    <rc><c>Fe</c><c>   1</c></rc>
    <rc><c>Fe</c><c>   1</c></rc>
    <rc><c>Fe</c><c>   1</c></rc>
    <rc><c>Fe</c><c>   1</c></rc>
    <rc><c>Fe</c><c>   1</c></rc>
    <rc><c>Fe</c><c>   1</c></rc>
    <rc><c>Fe</c><c>   1</c></rc>
    <rc><c>Fe</c><c>   1</c></rc>
    <rc><c>Fe</c><c>   1</c></rc>
    <rc><c>Fe</c><c>   1</c></rc>
    <rc><c>Fe</c><c>   1</c></rc>
    <rc><c>Fe</c><c>   1</c></rc>
    <rc><c>Fe</c><c>   1</c></rc>
    <rc><c>Fe</c><c>   1</c></rc>
    <rc><c>Fe</c><c>   1</c></rc>
    <rc><c>Fe</c><c>   1</c></rc>
    <rc><c>Fe</c><c>   1</c></rc>
    <rc><c>Fe</c><c>   1</c></rc>
    <rc><c>Fe</c><c>   1</c></rc>
    <rc><c>Fe</c><c>   1</c></rc>
    <rc><c>Fe</c><c>   1</c></rc>
    <rc><c>Fe</c><c>   1</c></rc>
    <rc><c>Fe</c><c>   1</c></rc>
    <rc><c>Fe</c><c>   1</c></rc>
    <rc><c>Fe</c><c>   1</c></rc>
    <rc><c>Fe</c><c>   1</c></rc>
    <rc><c>Fe</c><c>   1</c></rc>
    <rc><c>Fe</c><c>   1</c></rc>
    <rc><c>Fe</c><c>   1</c></rc>
    <rc><c>Fe</c><c>   1</c></rc>
    <rc><c>Fe</c><c>   1</c></rc>
    <rc><c>Fe</c><c>   1</c></rc>
    <rc><c>Fe</c><c>   1</c></rc>
    <rc><c>Fe</c><c>   1</c></rc>
    <rc><c>Fe</c><c>   1</c></rc>
    <rc><c>Fe</c><c>   1</c></rc>
    <rc><c>Fe</c><c>   1</c></rc>
    <rc><c>Fe</c><c>   1</c></rc>
    <rc><c>Fe</c><c>   1</c></rc>
    <rc><c>Fe</c><c>   1</c></rc>
    <rc><c>Fe</c><c>   1</c></rc>
    <rc><c>Fe</c><c>   1</c></rc>
    <rc><c>Fe</c><c>   1</c></rc>
    <rc><c>Fe</c><c>   1</c></rc>
    <rc><c>Fe</c><c>   1</c></rc>
    <rc><c>Fe</c><c>   1</c></rc>
    <rc><c>Fe</c><c>   1</c></rc>
    <rc><c>Fe</c><c>   1</c></rc>
    <rc><c>Fe</c><c>   1</c></rc>
    <rc><c>Fe</c><c>   1</c></rc>
    <rc><c>Fe</c><c>   1</c></rc>
    <rc><c>Fe</c><c>   1</c></rc>
    <rc><c>Fe</c><c>   1</c></rc>
    <rc><c>Fe</c><c>   1</c></rc>
    <rc><c>Fe</c><c>   1</c></rc>
    <rc><c>Fe</c><c>   1</c></rc>
    <rc><c>Fe</c><c>   1</c></rc>
    <rc><c>Fe</c><c>   1</c></rc>
    <rc><c>Fe</c><c>   1</c></rc>
    <rc><c>Fe</c><c>   1</c></rc>
    <rc><c>Fe</c><c>   1</c></rc>
    <rc><c>Fe</c><c>   1</c></rc>
    <rc><c>Fe</c><c>   1</c></rc>
    <rc><c>Fe</c><c>   1</c></rc>
    <rc><c>Fe</c><c>   1</c></rc>
    <rc><c>Fe</c><c>   1</c></rc>
    <rc><c>Fe</c><c>   1</c></rc>
    <rc><c>Fe</c><c>   1</c></rc>
    <rc><c>Fe</c><c>   1</c></rc>
    <rc><c>Fe</c><c>   1</c></rc>
    <rc><c>Fe</c><c>   1</c></rc>
    <rc><c>Fe</c><c>   1</c></rc>
    <rc><c>Fe</c><c>   1</c></rc>
    <rc><c>Fe</c><c>   1</c></rc>
    <rc><c>Fe</c><c>   1</c></rc>
    <rc><c>Fe</c><c>   1</c></rc>
    <rc><c>Fe</c><c>   1</c></rc>
    <rc><c>Fe</c><c>   1</c></rc>
    <rc><c>Fe</c><c>   1</c></rc>
    <rc><c>Fe</c><c>   1</c></rc>
    <rc><c>Fe</c><c>   1</c></rc>
    <rc><c>Fe</c><c>   1</c></rc>
    <rc><c>Fe</c><c>   1</c></rc>
    <rc><c>Fe</c><c>   1</c></rc>
    <rc><c>Fe</c><c>   1</c></rc>
    <rc><c>Fe</c><c>   1</c></rc>
    <rc><c>Fe</c><c>   1</c></rc>
    <rc><c>Fe</c><c>   1</c></rc>
    <rc><c>Fe</c><c>   1</c></rc>
    <rc><c>Fe</c><c>   1</c></rc>
    <rc><c>Fe</c><c>   1</c></rc>
    <rc><c>Fe</c><c>   1</c></rc>
    <rc><c>Fe</c><c>   1</c></rc>
    <rc><c>Fe</c><c>   1</c></rc>
    <rc><c>Fe</c><c>   1</c></rc>
    <rc><c>Fe</c><c>   1</c></rc>
    <rc><c>Fe</c><c>   1</c></rc>
    <rc><c>Fe</c><c>   1</c></rc>
    <rc><c>Fe</c><c>   1</c></rc>
    <rc><c>Fe</c><c>   1</c></rc>
    <rc><c>Fe</c><c>   1</c></rc>
   </set>
  </array>
  <array name="atomtypes" >
   <dimension dim="1">type</dimension>
   <field type="int">atomspertype</field>
   <field type="string">element</field>
   <field>mass</field>
   <field>valence</field>
   <field type="string">pseudopotential</field>
   <set>
    <rc><c> 108</c><c>Fe</c><c>     55.84700000</c><c>      8.00000000</c><c> PAW_PBE Fe 06Sep2000                   </c></rc>
   </set>
  </array>
 </atominfo>
 <structure name="initialpos" >
  <crystal>
   <varray name="basis" >
    <v>      10.33484705       0.00000000       0.00000000 </v>
    <v>       0.00000000      10.33484705       0.00000000 </v>
    <v>       0.00000000       0.00000000      10.33484705 </v>
   </varray>
   <i name="volume">   1103.85533447 </i>
   <varray name="rec_basis" >
    <v>       0.09676002       0.00000000       0.00000000 </v>
    <v>       0.00000000       0.09676002       0.00000000 </v>
    <v>       0.00000000       0.00000000       0.09676002 </v>
   </varray>
  </crystal>
  <varray name="positions" >
   <v>       0.00000000       0.00000000       0.00000000 </v>
   <v>       0.00000000       0.16666893       0.16666893 </v>
   <v>       0.00000000       0.33333106       0.00000000 </v>
   <v>       0.00000000       0.50000000       0.16666894 </v>
   <v>       0.00000000       0.66666897       0.00000000 </v>
   <v>       0.00000000       0.83333104       0.16666893 </v>
   <v>       0.00000000       0.00000000       0.33333106 </v>
   <v>       0.00000000       0.16666894       0.50000000 </v>
   <v>       0.00000000       0.33333107       0.33333107 </v>
   <v>       0.00000000       0.50000000       0.50000000 </v>
   <v>       0.00000000       0.66666896       0.33333107 </v>
   <v>       0.00000000       0.83333103       0.50000000 </v>
   <v>       0.00000000       0.00000000       0.66666897 </v>
   <v>       0.00000000       0.16666893       0.83333104 </v>
   <v>       0.00000000       0.33333107       0.66666896 </v>
   <v>       0.00000000       0.50000000       0.83333103 </v>
   <v>       0.00000000       0.66666896       0.66666896 </v>
   <v>       0.00000000       0.83333104       0.83333104 </v>
   <v>       0.16666893       0.00000000       0.16666893 </v>
   <v>       0.16666893       0.16666893       0.00000000 </v>
   <v>       0.16666893       0.83333104       0.00000000 </v>
   <v>       0.16666893       0.33333107       0.50000000 </v>
   <v>       0.16666893       0.50000000       0.33333107 </v>
   <v>       0.16666893       0.66666896       0.50000000 </v>
   <v>       0.16666893       0.00000000       0.83333104 </v>
   <v>       0.16666893       0.50000000       0.66666896 </v>
   <v>       0.16666893       0.33333107       0.16666893 </v>
   <v>       0.16666893       0.66666896       0.16666893 </v>
   <v>       0.16666893       0.16666893       0.33333107 </v>
   <v>       0.16666893       0.83333104       0.33333107 </v>
   <v>       0.16666893       0.16666893       0.66666896 </v>
   <v>       0.16666893       0.33333107       0.83333104 </v>
   <v>       0.16666893       0.66666896       0.83333104 </v>
   <v>       0.16666893       0.83333104       0.66666896 </v>
   <v>       0.16666894       0.50000000       0.00000000 </v>
   <v>       0.16666894       0.00000000       0.50000000 </v>
   <v>       0.33333106       0.00000000       0.00000000 </v>
   <v>       0.33333106       0.50000000       0.50000000 </v>
   <v>       0.33333107       0.16666893       0.16666893 </v>
   <v>       0.33333107       0.83333104       0.16666893 </v>
   <v>       0.33333107       0.33333107       0.33333107 </v>
   <v>       0.33333107       0.66666896       0.33333107 </v>
   <v>       0.33333107       0.16666893       0.83333104 </v>
   <v>       0.33333107       0.33333107       0.66666896 </v>
   <v>       0.33333107       0.66666896       0.66666896 </v>
   <v>       0.33333107       0.83333104       0.83333104 </v>
   <v>       0.33333107       0.33333107       0.00000000 </v>
   <v>       0.33333107       0.50000000       0.16666893 </v>
   <v>       0.33333107       0.66666896       0.00000000 </v>
   <v>       0.33333107       0.00000000       0.33333107 </v>
   <v>       0.33333107       0.16666893       0.50000000 </v>
   <v>       0.33333107       0.83333104       0.50000000 </v>
   <v>       0.33333107       0.00000000       0.66666896 </v>
   <v>       0.33333107       0.50000000       0.83333104 </v>
   <v>       0.50000000       0.00000000       0.16666894 </v>
   <v>       0.50000000       0.16666894       0.00000000 </v>
   <v>       0.50000000       0.33333107       0.16666893 </v>
   <v>       0.50000000       0.50000000       0.00000000 </v>
   <v>       0.50000000       0.66666896       0.16666893 </v>
   <v>       0.50000000       0.83333103       0.00000000 </v>
   <v>       0.50000000       0.00000000       0.50000000 </v>
   <v>       0.50000000       0.16666893       0.33333107 </v>
   <v>       0.50000000       0.33333106       0.50000000 </v>
   <v>       0.50000000       0.50000000       0.33333106 </v>
   <v>       0.50000000       0.66666897       0.50000000 </v>
   <v>       0.50000000       0.83333104       0.33333107 </v>
   <v>       0.50000000       0.00000000       0.83333103 </v>
   <v>       0.50000000       0.16666893       0.66666896 </v>
   <v>       0.50000000       0.33333107       0.83333104 </v>
   <v>       0.50000000       0.50000000       0.66666897 </v>
   <v>       0.50000000       0.66666896       0.83333104 </v>
   <v>       0.50000000       0.83333104       0.66666896 </v>
   <v>       0.66666896       0.33333107       0.00000000 </v>
   <v>       0.66666896       0.50000000       0.16666893 </v>
   <v>       0.66666896       0.66666896       0.00000000 </v>
   <v>       0.66666896       0.00000000       0.33333107 </v>
   <v>       0.66666896       0.16666893       0.50000000 </v>
   <v>       0.66666896       0.83333104       0.50000000 </v>
   <v>       0.66666896       0.00000000       0.66666896 </v>
   <v>       0.66666896       0.50000000       0.83333104 </v>
   <v>       0.66666896       0.16666893       0.16666893 </v>
   <v>       0.66666896       0.83333104       0.16666893 </v>
   <v>       0.66666896       0.33333107       0.33333107 </v>
   <v>       0.66666896       0.66666896       0.33333107 </v>
   <v>       0.66666896       0.16666893       0.83333104 </v>
   <v>       0.66666896       0.33333107       0.66666896 </v>
   <v>       0.66666896       0.66666896       0.66666896 </v>
   <v>       0.66666896       0.83333104       0.83333104 </v>
   <v>       0.66666897       0.00000000       0.00000000 </v>
   <v>       0.66666897       0.50000000       0.50000000 </v>
   <v>       0.83333103       0.50000000       0.00000000 </v>
   <v>       0.83333103       0.00000000       0.50000000 </v>
   <v>       0.83333104       0.33333107       0.16666893 </v>
   <v>       0.83333104       0.66666896       0.16666893 </v>
   <v>       0.83333104       0.16666893       0.33333107 </v>
   <v>       0.83333104       0.83333104       0.33333107 </v>
   <v>       0.83333104       0.16666893       0.66666896 </v>
   <v>       0.83333104       0.33333107       0.83333104 </v>
   <v>       0.83333104       0.66666896       0.83333104 </v>
   <v>       0.83333104       0.83333104       0.66666896 </v>
   <v>       0.83333104       0.00000000       0.16666893 </v>
   <v>       0.83333104       0.16666893       0.00000000 </v>
   <v>       0.83333104       0.83333104       0.00000000 </v>
   <v>       0.83333104       0.33333107       0.50000000 </v>
   <v>       0.83333104       0.50000000       0.33333107 </v>
   <v>       0.83333104       0.66666896       0.50000000 </v>
   <v>       0.83333104       0.00000000       0.83333104 </v>
   <v>       0.83333104       0.50000000       0.66666896 </v>
  </varray>
 </structure>
 <calculation>
  <scstep>
   <time name="dav">   15.84   15.85</time>
   <time name="total">   15.96   15.97</time>
   <energy>
    <i name="alphaZ">   7300.31925852 </i>
    <i name="ewald"> -66232.83996889 </i>
    <i name="hartreedc"> -11197.02572336 </i>
    <i name="XCdc">    446.63038354 </i>
    <i name="pawpsdc">  51723.88885462 </i>
    <i name="pawaedc"> -52548.28121372 </i>
    <i name="eentropy">     -0.00934108 </i>
    <i name="bandstr">  13847.40090520 </i>
    <i name="atom">  64201.67088057 </i>
    <i name="e_fr_energy">   7541.75403540 </i>
    <i name="e_wo_entrp">   7541.76337648 </i>
    <i name="e_0_energy">   7541.75714910 </i>
   </energy>
  </scstep>
  <scstep>
   <time name="dav">   15.79   15.80</time>
   <time name="total">   15.79   15.80</time>
   <energy>
    <i name="e_fr_energy">    -45.09353875 </i>
    <i name="e_wo_entrp">    -45.10580151 </i>
    <i name="e_0_energy">    -45.09762634 </i>
   </energy>
  </scstep>
  <scstep>
   <time name="dav">   15.75   15.76</time>
   <time name="total">   15.76   15.77</time>
   <energy>
    <i name="e_fr_energy">   -857.62074674 </i>
    <i name="e_wo_entrp">   -857.65332430 </i>
    <i name="e_0_energy">   -857.63160593 </i>
   </energy>
  </scstep>
  <scstep>
   <time name="dav">   25.58   25.59</time>
   <time name="total">   25.58   25.59</time>
   <energy>
    <i name="e_fr_energy">  -1031.09070927 </i>
    <i name="e_wo_entrp">  -1031.00656201 </i>
    <i name="e_0_energy">  -1031.06266018 </i>
   </energy>
  </scstep>
  <scstep>
   <time name="dav">   22.99   23.00</time>
   <time name="total">   23.89   23.90</time>
   <energy>
    <i name="e_fr_energy">  -1045.21555796 </i>
    <i name="e_wo_entrp">  -1045.11135447 </i>
    <i name="e_0_energy">  -1045.18082346 </i>
   </energy>
  </scstep>
  <scstep>
   <time name="diag">    2.22    2.23</time>
   <time name="diis">    9.01    9.02</time>
   <time name="orth">    0.42    0.42</time>
   <time name="total">   12.68   12.69</time>
   <energy>
    <i name="e_fr_energy">   -877.68637252 </i>
    <i name="e_wo_entrp">   -877.62995213 </i>
    <i name="e_0_energy">   -877.66756572 </i>
   </energy>
  </scstep>
  <scstep>
   <time name="diag">    2.23    2.23</time>
   <time name="diis">    9.52    9.52</time>
   <time name="orth">    0.42    0.42</time>
   <time name="total">   13.19   13.19</time>
   <energy>
    <i name="e_fr_energy">   -880.31698540 </i>
    <i name="e_wo_entrp">   -880.18112703 </i>
    <i name="e_0_energy">   -880.27169928 </i>
   </energy>
  </scstep>
  <scstep>
   <time name="diag">    2.23    2.23</time>
   <time name="diis">    9.36    9.36</time>
   <time name="orth">    0.42    0.42</time>
   <time name="total">   13.03   13.03</time>
   <energy>
    <i name="e_fr_energy">   -879.37241012 </i>
    <i name="e_wo_entrp">   -879.30206121 </i>
    <i name="e_0_energy">   -879.34896048 </i>
   </energy>
  </scstep>
  <scstep>
   <time name="diag">    2.23    2.23</time>
   <time name="diis">   11.97   11.97</time>
   <time name="orth">    0.42    0.42</time>
   <time name="total">   15.64   15.64</time>
   <energy>
    <i name="e_fr_energy">   -879.72069277 </i>
    <i name="e_wo_entrp">   -879.64631292 </i>
    <i name="e_0_energy">   -879.69589948 </i>
   </energy>
  </scstep>
  <scstep>
   <time name="diag">    2.23    2.23</time>
   <time name="diis">   10.22   10.22</time>
   <time name="orth">    0.43    0.43</time>
   <time name="total">   13.91   13.98</time>
   <energy>
    <i name="e_fr_energy">   -879.51259586 </i>
    <i name="e_wo_entrp">   -879.43076749 </i>
    <i name="e_0_energy">   -879.48531974 </i>
   </energy>
  </scstep>
  <scstep>
   <time name="diag">    2.23    2.23</time>
   <time name="diis">   10.55   10.55</time>
   <time name="orth">    0.42    0.42</time>
   <time name="total">   14.22   14.22</time>
   <energy>
    <i name="e_fr_energy">   -879.51544165 </i>
    <i name="e_wo_entrp">   -879.43832913 </i>
    <i name="e_0_energy">   -879.48973748 </i>
   </energy>
  </scstep>
  <scstep>
   <time name="diag">    2.23    2.23</time>
   <time name="diis">   10.85   10.85</time>
   <time name="orth">    0.43    0.43</time>
   <time name="total">   14.52   14.52</time>
   <energy>
    <i name="e_fr_energy">   -879.51639285 </i>
    <i name="e_wo_entrp">   -879.44195343 </i>
    <i name="e_0_energy">   -879.49157971 </i>
   </energy>
  </scstep>
  <scstep>
   <time name="diag">    2.22    2.23</time>
   <time name="diis">   12.53   12.55</time>
   <time name="orth">    0.43    0.43</time>
   <time name="total">   16.20   16.22</time>
   <energy>
    <i name="e_fr_energy">   -879.51716383 </i>
    <i name="e_wo_entrp">   -879.44339098 </i>
    <i name="e_0_energy">   -879.49257288 </i>
   </energy>
  </scstep>
  <scstep>
   <time name="diag">    2.24    2.24</time>
   <time name="diis">   11.74   11.74</time>
   <time name="orth">    0.43    0.43</time>
   <time name="total">   15.42   15.43</time>
   <energy>
    <i name="e_fr_energy">   -879.51721144 </i>
    <i name="e_wo_entrp">   -879.44378324 </i>
    <i name="e_0_energy">   -879.49273537 </i>
   </energy>
  </scstep>
  <scstep>
   <time name="diag">    2.23    2.23</time>
   <time name="diis">   10.02   10.02</time>
   <time name="orth">    0.43    0.43</time>
   <time name="total">   13.70   13.70</time>
   <energy>
    <i name="e_fr_energy">   -879.51711002 </i>
    <i name="e_wo_entrp">   -879.44407426 </i>
    <i name="e_0_energy">   -879.49276477 </i>
   </energy>
  </scstep>
  <scstep>
   <time name="diag">    2.23    2.23</time>
   <time name="diis">   11.39   11.39</time>
   <time name="orth">    0.43    0.43</time>
   <time name="total">   15.06   15.07</time>
   <energy>
    <i name="e_fr_energy">   -879.51707715 </i>
    <i name="e_wo_entrp">   -879.44434333 </i>
    <i name="e_0_energy">   -879.49283254 </i>
   </energy>
  </scstep>
  <scstep>
   <time name="diag">    2.23    2.23</time>
   <time name="diis">    9.63    9.64</time>
   <time name="orth">    0.43    0.43</time>
   <time name="total">   13.31   13.31</time>
   <energy>
    <i name="e_fr_energy">   -879.51706524 </i>
    <i name="e_wo_entrp">   -879.44454597 </i>
    <i name="e_0_energy">   -879.49289215 </i>
   </energy>
  </scstep>
  <scstep>
   <time name="diag">    2.23    2.23</time>
   <time name="diis">    7.64    7.64</time>
   <time name="orth">    0.43    0.43</time>
   <time name="total">   11.32   11.32</time>
   <energy>
    <i name="e_fr_energy">   -879.51705326 </i>
    <i name="e_wo_entrp">   -879.44469562 </i>
    <i name="e_0_energy">   -879.49293405 </i>
   </energy>
  </scstep>
  <scstep>
   <time name="diag">    2.23    2.23</time>
   <time name="diis">    6.03    6.03</time>
   <time name="orth">    0.43    0.43</time>
   <time name="total">    9.70    9.71</time>
   <energy>
    <i name="e_fr_energy">   -879.51703304 </i>
    <i name="e_wo_entrp">   -879.44492378 </i>
    <i name="e_0_energy">   -879.49299662 </i>
   </energy>
  </scstep>
  <scstep>
   <time name="diag">    2.23    2.23</time>
   <time name="diis">    5.92    5.92</time>
   <time name="orth">    0.43    0.43</time>
   <time name="total">    9.59    9.59</time>
   <energy>
    <i name="e_fr_energy">   -879.51701978 </i>
    <i name="e_wo_entrp">   -879.44508360 </i>
    <i name="e_0_energy">   -879.49304105 </i>
   </energy>
  </scstep>
  <scstep>
   <time name="diag">    2.22    2.22</time>
   <time name="diis">    5.92    5.92</time>
   <time name="orth">    0.43    0.43</time>
   <time name="total">    9.58    9.59</time>
   <energy>
    <i name="e_fr_energy">   -879.51701144 </i>
    <i name="e_wo_entrp">   -879.44518845 </i>
    <i name="e_0_energy">   -879.49307044 </i>
   </energy>
  </scstep>
  <scstep>
   <time name="diag">    2.22    2.22</time>
   <time name="diis">    5.61    5.61</time>
   <time name="orth">    0.43    0.43</time>
   <time name="total">    9.28    9.28</time>
   <energy>
    <i name="e_fr_energy">   -879.51700496 </i>
    <i name="e_wo_entrp">   -879.44527427 </i>
    <i name="e_0_energy">   -879.49309473 </i>
   </energy>
  </scstep>
  <scstep>
   <time name="diag">    2.22    2.22</time>
   <time name="diis">    5.47    5.48</time>
   <time name="orth">    0.43    0.43</time>
   <time name="total">    9.13    9.15</time>
   <energy>
    <i name="e_fr_energy">   -879.51699930 </i>
    <i name="e_wo_entrp">   -879.44534920 </i>
    <i name="e_0_energy">   -879.49311594 </i>
   </energy>
  </scstep>
  <scstep>
   <time name="diag">    2.23    2.23</time>
   <time name="diis">    5.31    5.31</time>
   <time name="orth">    0.43    0.43</time>
   <time name="total">    8.98    8.99</time>
   <energy>
    <i name="e_fr_energy">   -879.51699414 </i>
    <i name="e_wo_entrp">   -879.44541886 </i>
    <i name="e_0_energy">   -879.49313571 </i>
   </energy>
  </scstep>
  <scstep>
   <time name="diag">    2.22    2.22</time>
   <time name="diis">    5.13    5.13</time>
   <time name="orth">    0.43    0.43</time>
   <time name="total">    8.80    8.81</time>
   <energy>
    <i name="e_fr_energy">   -879.51698943 </i>
    <i name="e_wo_entrp">   -879.44548210 </i>
    <i name="e_0_energy">   -879.49315365 </i>
   </energy>
  </scstep>
  <scstep>
   <time name="diag">    2.22    2.22</time>
   <time name="diis">    4.95    4.95</time>
   <time name="orth">    0.43    0.43</time>
   <time name="total">    8.60    8.61</time>
   <energy>
    <i name="e_fr_energy">   -879.51698506 </i>
    <i name="e_wo_entrp">   -879.44554104 </i>
    <i name="e_0_energy">   -879.49317039 </i>
   </energy>
  </scstep>
  <scstep>
   <time name="diag">    2.23    2.23</time>
   <time name="diis">    4.72    4.72</time>
   <time name="orth">    0.43    0.43</time>
   <time name="total">    8.39    8.39</time>
   <energy>
    <i name="e_fr_energy">   -879.51698105 </i>
    <i name="e_wo_entrp">   -879.44559510 </i>
    <i name="e_0_energy">   -879.49318574 </i>
   </energy>
  </scstep>
  <scstep>
   <time name="diag">    2.21    2.22</time>
   <time name="diis">    4.66    4.66</time>
   <time name="orth">    0.43    0.43</time>
   <time name="total">    8.31    8.32</time>
   <energy>
    <i name="e_fr_energy">   -879.51697733 </i>
    <i name="e_wo_entrp">   -879.44564517 </i>
    <i name="e_0_energy">   -879.49319994 </i>
   </energy>
  </scstep>
  <scstep>
   <time name="diag">    2.23    2.23</time>
   <time name="diis">    4.54    4.54</time>
   <time name="orth">    0.43    0.43</time>
   <time name="total">    8.21    8.22</time>
   <energy>
    <i name="e_fr_energy">   -879.51697391 </i>
    <i name="e_wo_entrp">   -879.44569114 </i>
    <i name="e_0_energy">   -879.49321299 </i>
   </energy>
  </scstep>
  <scstep>
   <time name="diag">    2.21    2.21</time>
   <time name="diis">    4.45    4.45</time>
   <time name="orth">    0.43    0.43</time>
   <time name="total">    8.11    8.12</time>
   <energy>
    <i name="e_fr_energy">   -879.51697079 </i>
    <i name="e_wo_entrp">   -879.44573382 </i>
    <i name="e_0_energy">   -879.49322513 </i>
   </energy>
  </scstep>
  <scstep>
   <time name="diag">    2.23    2.23</time>
   <time name="diis">    4.60    4.61</time>
   <time name="orth">    0.43    0.43</time>
   <time name="total">    8.28    8.29</time>
   <energy>
    <i name="e_fr_energy">   -879.51696791 </i>
    <i name="e_wo_entrp">   -879.44577228 </i>
    <i name="e_0_energy">   -879.49323603 </i>
   </energy>
  </scstep>
  <scstep>
   <time name="diag">    2.22    2.22</time>
   <time name="diis">    4.44    4.44</time>
   <time name="orth">    0.43    0.43</time>
   <time name="total">    8.11    8.12</time>
   <energy>
    <i name="e_fr_energy">   -879.51696524 </i>
    <i name="e_wo_entrp">   -879.44580800 </i>
    <i name="e_0_energy">   -879.49324616 </i>
   </energy>
  </scstep>
  <scstep>
   <time name="diag">    2.23    2.23</time>
   <time name="diis">    4.25    4.25</time>
   <time name="orth">    0.43    0.43</time>
   <time name="total">    7.93    7.93</time>
   <energy>
    <i name="e_fr_energy">   -879.51696281 </i>
    <i name="e_wo_entrp">   -879.44584076 </i>
    <i name="e_0_energy">   -879.49325546 </i>
   </energy>
  </scstep>
  <scstep>
   <time name="diag">    2.23    2.23</time>
   <time name="diis">    4.23    4.23</time>
   <time name="orth">    0.43    0.43</time>
   <time name="total">    7.91    7.91</time>
   <energy>
    <i name="e_fr_energy">   -879.51696057 </i>
    <i name="e_wo_entrp">   -879.44587086 </i>
    <i name="e_0_energy">   -879.49326400 </i>
   </energy>
  </scstep>
  <scstep>
   <time name="diag">    2.22    2.23</time>
   <time name="diis">    4.18    4.19</time>
   <time name="orth">    0.42    0.42</time>
   <time name="total">    7.86    7.86</time>
   <energy>
    <i name="e_fr_energy">   -879.51695854 </i>
    <i name="e_wo_entrp">   -879.44589838 </i>
    <i name="e_0_energy">   -879.49327182 </i>
   </energy>
  </scstep>
  <scstep>
   <time name="diag">    2.24    2.24</time>
   <time name="diis">    4.14    4.14</time>
   <time name="orth">    0.43    0.43</time>
   <time name="total">    7.86    7.87</time>
   <energy>
    <i name="e_fr_energy">   -879.51695670 </i>
    <i name="e_wo_entrp">   -879.44592377 </i>
    <i name="e_0_energy">   -879.49327905 </i>
   </energy>
  </scstep>
  <scstep>
   <time name="diag">    2.24    2.24</time>
   <time name="diis">    4.16    4.16</time>
   <time name="orth">    0.43    0.43</time>
   <time name="total">    7.87    7.88</time>
   <energy>
    <i name="e_fr_energy">   -879.51695502 </i>
    <i name="e_wo_entrp">   -879.44594690 </i>
    <i name="e_0_energy">   -879.49328564 </i>
   </energy>
  </scstep>
  <scstep>
   <time name="diag">    2.24    2.24</time>
   <time name="diis">    4.14    4.15</time>
   <time name="orth">    0.43    0.43</time>
   <time name="total">    7.86    7.86</time>
   <energy>
    <i name="e_fr_energy">   -879.51695348 </i>
    <i name="e_wo_entrp">   -879.44596803 </i>
    <i name="e_0_energy">   -879.49329166 </i>
   </energy>
  </scstep>
  <scstep>
   <time name="diag">    2.23    2.23</time>
   <time name="diis">    4.09    4.09</time>
   <time name="orth">    0.43    0.43</time>
   <time name="total">    7.79    7.79</time>
   <energy>
    <i name="e_fr_energy">   -879.51695208 </i>
    <i name="e_wo_entrp">   -879.44598711 </i>
    <i name="e_0_energy">   -879.49329709 </i>
   </energy>
  </scstep>
  <scstep>
   <time name="diag">    2.23    2.23</time>
   <time name="diis">    4.05    4.05</time>
   <time name="orth">    0.43    0.43</time>
   <time name="total">    7.75    7.75</time>
   <energy>
    <i name="e_fr_energy">   -879.51695080 </i>
    <i name="e_wo_entrp">   -879.44600456 </i>
    <i name="e_0_energy">   -879.49330205 </i>
   </energy>
  </scstep>
  <scstep>
   <time name="diag">    2.23    2.23</time>
   <time name="diis">    4.05    4.05</time>
   <time name="orth">    0.43    0.43</time>
   <time name="total">    7.74    7.74</time>
   <energy>
    <i name="e_fr_energy">   -879.51694964 </i>
    <i name="e_wo_entrp">   -879.44602040 </i>
    <i name="e_0_energy">   -879.49330656 </i>
   </energy>
  </scstep>
  <scstep>
   <time name="diag">    2.24    2.24</time>
   <time name="diis">    4.04    4.04</time>
   <time name="orth">    0.43    0.43</time>
   <time name="total">    7.73    7.73</time>
   <energy>
    <i name="e_fr_energy">   -879.51694859 </i>
    <i name="e_wo_entrp">   -879.44603483 </i>
    <i name="e_0_energy">   -879.49331067 </i>
   </energy>
  </scstep>
  <scstep>
   <time name="diag">    2.23    2.23</time>
   <time name="diis">    4.03    4.03</time>
   <time name="orth">    0.43    0.43</time>
   <time name="total">    6.81    6.81</time>
   <energy>
    <i name="alphaZ">   7300.31925852 </i>
    <i name="ewald"> -66232.83996889 </i>
    <i name="hartreedc">  -9348.36898334 </i>
    <i name="XCdc">    360.52017165 </i>
    <i name="pawpsdc">  58018.32313453 </i>
    <i name="pawaedc"> -58954.84218757 </i>
    <i name="eentropy">     -0.07089973 </i>
    <i name="bandstr">   3775.77164662 </i>
    <i name="atom">  64201.67088057 </i>
    <i name="e_fr_energy">   -879.51694764 </i>
    <i name="e_wo_entrp">   -879.44604791 </i>
    <i name="e_0_energy">   -879.49331439 </i>
   </energy>
  </scstep>
  <structure>
   <crystal>
    <varray name="basis" >
     <v>      10.33484705       0.00000000       0.00000000 </v>
     <v>       0.00000000      10.33484705       0.00000000 </v>
     <v>       0.00000000       0.00000000      10.33484705 </v>
    </varray>
    <i name="volume">   1103.85533447 </i>
    <varray name="rec_basis" >
     <v>       0.09676002       0.00000000       0.00000000 </v>
     <v>       0.00000000       0.09676002       0.00000000 </v>
     <v>       0.00000000       0.00000000       0.09676002 </v>
    </varray>
   </crystal>
   <varray name="positions" >
    <v>       0.00000000       0.00000000       0.00000000 </v>
    <v>       0.00000000       0.16666893       0.16666893 </v>
    <v>       0.00000000       0.33333106       0.00000000 </v>
    <v>       0.00000000       0.50000000       0.16666894 </v>
    <v>       0.00000000       0.66666897       0.00000000 </v>
    <v>       0.00000000       0.83333104       0.16666893 </v>
    <v>       0.00000000       0.00000000       0.33333106 </v>
    <v>       0.00000000       0.16666894       0.50000000 </v>
    <v>       0.00000000       0.33333107       0.33333107 </v>
    <v>       0.00000000       0.50000000       0.50000000 </v>
    <v>       0.00000000       0.66666896       0.33333107 </v>
    <v>       0.00000000       0.83333103       0.50000000 </v>
    <v>       0.00000000       0.00000000       0.66666897 </v>
    <v>       0.00000000       0.16666893       0.83333104 </v>
    <v>       0.00000000       0.33333107       0.66666896 </v>
    <v>       0.00000000       0.50000000       0.83333103 </v>
    <v>       0.00000000       0.66666896       0.66666896 </v>
    <v>       0.00000000       0.83333104       0.83333104 </v>
    <v>       0.16666893       0.00000000       0.16666893 </v>
    <v>       0.16666893       0.16666893       0.00000000 </v>
    <v>       0.16666893       0.83333104       0.00000000 </v>
    <v>       0.16666893       0.33333107       0.50000000 </v>
    <v>       0.16666893       0.50000000       0.33333107 </v>
    <v>       0.16666893       0.66666896       0.50000000 </v>
    <v>       0.16666893       0.00000000       0.83333104 </v>
    <v>       0.16666893       0.50000000       0.66666896 </v>
    <v>       0.16666893       0.33333107       0.16666893 </v>
    <v>       0.16666893       0.66666896       0.16666893 </v>
    <v>       0.16666893       0.16666893       0.33333107 </v>
    <v>       0.16666893       0.83333104       0.33333107 </v>
    <v>       0.16666893       0.16666893       0.66666896 </v>
    <v>       0.16666893       0.33333107       0.83333104 </v>
    <v>       0.16666893       0.66666896       0.83333104 </v>
    <v>       0.16666893       0.83333104       0.66666896 </v>
    <v>       0.16666894       0.50000000       0.00000000 </v>
    <v>       0.16666894       0.00000000       0.50000000 </v>
    <v>       0.33333106       0.00000000       0.00000000 </v>
    <v>       0.33333106       0.50000000       0.50000000 </v>
    <v>       0.33333107       0.16666893       0.16666893 </v>
    <v>       0.33333107       0.83333104       0.16666893 </v>
    <v>       0.33333107       0.33333107       0.33333107 </v>
    <v>       0.33333107       0.66666896       0.33333107 </v>
    <v>       0.33333107       0.16666893       0.83333104 </v>
    <v>       0.33333107       0.33333107       0.66666896 </v>
    <v>       0.33333107       0.66666896       0.66666896 </v>
    <v>       0.33333107       0.83333104       0.83333104 </v>
    <v>       0.33333107       0.33333107       0.00000000 </v>
    <v>       0.33333107       0.50000000       0.16666893 </v>
    <v>       0.33333107       0.66666896       0.00000000 </v>
    <v>       0.33333107       0.00000000       0.33333107 </v>
    <v>       0.33333107       0.16666893       0.50000000 </v>
    <v>       0.33333107       0.83333104       0.50000000 </v>
    <v>       0.33333107       0.00000000       0.66666896 </v>
    <v>       0.33333107       0.50000000       0.83333104 </v>
    <v>       0.50000000       0.00000000       0.16666894 </v>
    <v>       0.50000000       0.16666894       0.00000000 </v>
    <v>       0.50000000       0.33333107       0.16666893 </v>
    <v>       0.50000000       0.50000000       0.00000000 </v>
    <v>       0.50000000       0.66666896       0.16666893 </v>
    <v>       0.50000000       0.83333103       0.00000000 </v>
    <v>       0.50000000       0.00000000       0.50000000 </v>
    <v>       0.50000000       0.16666893       0.33333107 </v>
    <v>       0.50000000       0.33333106       0.50000000 </v>
    <v>       0.50000000       0.50000000       0.33333106 </v>
    <v>       0.50000000       0.66666897       0.50000000 </v>
    <v>       0.50000000       0.83333104       0.33333107 </v>
    <v>       0.50000000       0.00000000       0.83333103 </v>
    <v>       0.50000000       0.16666893       0.66666896 </v>
    <v>       0.50000000       0.33333107       0.83333104 </v>
    <v>       0.50000000       0.50000000       0.66666897 </v>
    <v>       0.50000000       0.66666896       0.83333104 </v>
    <v>       0.50000000       0.83333104       0.66666896 </v>
    <v>       0.66666896       0.33333107       0.00000000 </v>
    <v>       0.66666896       0.50000000       0.16666893 </v>
    <v>       0.66666896       0.66666896       0.00000000 </v>
    <v>       0.66666896       0.00000000       0.33333107 </v>
    <v>       0.66666896       0.16666893       0.50000000 </v>
    <v>       0.66666896       0.83333104       0.50000000 </v>
    <v>       0.66666896       0.00000000       0.66666896 </v>
    <v>       0.66666896       0.50000000       0.83333104 </v>
    <v>       0.66666896       0.16666893       0.16666893 </v>
    <v>       0.66666896       0.83333104       0.16666893 </v>
    <v>       0.66666896       0.33333107       0.33333107 </v>
    <v>       0.66666896       0.66666896       0.33333107 </v>
    <v>       0.66666896       0.16666893       0.83333104 </v>
    <v>       0.66666896       0.33333107       0.66666896 </v>
    <v>       0.66666896       0.66666896       0.66666896 </v>
    <v>       0.66666896       0.83333104       0.83333104 </v>
    <v>       0.66666897       0.00000000       0.00000000 </v>
    <v>       0.66666897       0.50000000       0.50000000 </v>
    <v>       0.83333103       0.50000000       0.00000000 </v>
    <v>       0.83333103       0.00000000       0.50000000 </v>
    <v>       0.83333104       0.33333107       0.16666893 </v>
    <v>       0.83333104       0.66666896       0.16666893 </v>
    <v>       0.83333104       0.16666893       0.33333107 </v>
    <v>       0.83333104       0.83333104       0.33333107 </v>
    <v>       0.83333104       0.16666893       0.66666896 </v>
    <v>       0.83333104       0.33333107       0.83333104 </v>
    <v>       0.83333104       0.66666896       0.83333104 </v>
    <v>       0.83333104       0.83333104       0.66666896 </v>
    <v>       0.83333104       0.00000000       0.16666893 </v>
    <v>       0.83333104       0.16666893       0.00000000 </v>
    <v>       0.83333104       0.83333104       0.00000000 </v>
    <v>       0.83333104       0.33333107       0.50000000 </v>
    <v>       0.83333104       0.50000000       0.33333107 </v>
    <v>       0.83333104       0.66666896       0.50000000 </v>
    <v>       0.83333104       0.00000000       0.83333104 </v>
    <v>       0.83333104       0.50000000       0.66666896 </v>
   </varray>
  </structure>
  <varray name="forces" >
   <v>       0.00000000      -0.00000000       0.00000000 </v>
   <v>       0.00000000      -0.00000000      -0.00000000 </v>
   <v>      -0.00000000      -0.00000000       0.00000000 </v>
   <v>      -0.00000000      -0.00000000       0.00000000 </v>
   <v>       0.00000000      -0.00000000       0.00000000 </v>
   <v>      -0.00000000       0.00000000       0.00000000 </v>
   <v>      -0.00000000      -0.00000000       0.00000000 </v>
   <v>      -0.00000000       0.00000000      -0.00000000 </v>
   <v>       0.00000000      -0.00000000      -0.00000000 </v>
   <v>       0.00000000       0.00000000       0.00000000 </v>
   <v>       0.00000000       0.00000000       0.00000000 </v>
   <v>       0.00000000       0.00000000       0.00000000 </v>
   <v>      -0.00000000       0.00000000      -0.00000000 </v>
   <v>      -0.00000000       0.00000000       0.00000000 </v>
   <v>       0.00000000      -0.00000000       0.00000000 </v>
   <v>       0.00000000       0.00000000      -0.00000000 </v>
   <v>       0.00000000      -0.00000000      -0.00000000 </v>
   <v>      -0.00000000       0.00000000      -0.00000000 </v>
   <v>      -0.00000000      -0.00000000       0.00000000 </v>
   <v>      -0.00000000      -0.00000000       0.00000000 </v>
   <v>       0.00000000       0.00000000       0.00000000 </v>
   <v>       0.00000000      -0.00000000       0.00000000 </v>
   <v>      -0.00000000      -0.00000000      -0.00000000 </v>
   <v>      -0.00000000       0.00000000      -0.00000000 </v>
   <v>       0.00000000       0.00000000      -0.00000000 </v>
   <v>      -0.00000000       0.00000000       0.00000000 </v>
   <v>       0.00000000      -0.00000000       0.00000000 </v>
   <v>      -0.00000000       0.00000000      -0.00000000 </v>
   <v>      -0.00000000      -0.00000000      -0.00000000 </v>
   <v>      -0.00000000       0.00000000      -0.00000000 </v>
   <v>      -0.00000000      -0.00000000       0.00000000 </v>
   <v>       0.00000000      -0.00000000       0.00000000 </v>
   <v>       0.00000000      -0.00000000       0.00000000 </v>
   <v>       0.00000000       0.00000000       0.00000000 </v>
   <v>       0.00000000      -0.00000000      -0.00000000 </v>
   <v>      -0.00000000       0.00000000       0.00000000 </v>
   <v>       0.00000000      -0.00000000       0.00000000 </v>
   <v>      -0.00000000       0.00000000       0.00000000 </v>
   <v>       0.00000000       0.00000000       0.00000000 </v>
   <v>       0.00000000      -0.00000000       0.00000000 </v>
   <v>       0.00000000      -0.00000000       0.00000000 </v>
   <v>      -0.00000000      -0.00000000       0.00000000 </v>
   <v>       0.00000000      -0.00000000      -0.00000000 </v>
   <v>      -0.00000000      -0.00000000       0.00000000 </v>
   <v>      -0.00000000       0.00000000      -0.00000000 </v>
   <v>       0.00000000      -0.00000000      -0.00000000 </v>
   <v>       0.00000000      -0.00000000      -0.00000000 </v>
   <v>       0.00000000       0.00000000       0.00000000 </v>
   <v>       0.00000000       0.00000000       0.00000000 </v>
   <v>       0.00000000      -0.00000000      -0.00000000 </v>
   <v>       0.00000000      -0.00000000       0.00000000 </v>
   <v>      -0.00000000      -0.00000000       0.00000000 </v>
   <v>       0.00000000       0.00000000       0.00000000 </v>
   <v>      -0.00000000       0.00000000      -0.00000000 </v>
   <v>      -0.00000000      -0.00000000       0.00000000 </v>
   <v>      -0.00000000       0.00000000       0.00000000 </v>
   <v>      -0.00000000      -0.00000000      -0.00000000 </v>
   <v>      -0.00000000      -0.00000000      -0.00000000 </v>
   <v>       0.00000000      -0.00000000      -0.00000000 </v>
   <v>       0.00000000       0.00000000      -0.00000000 </v>
   <v>      -0.00000000      -0.00000000       0.00000000 </v>
   <v>      -0.00000000       0.00000000      -0.00000000 </v>
   <v>       0.00000000       0.00000000      -0.00000000 </v>
   <v>      -0.00000000      -0.00000000       0.00000000 </v>
   <v>       0.00000000       0.00000000      -0.00000000 </v>
   <v>      -0.00000000       0.00000000       0.00000000 </v>
   <v>      -0.00000000      -0.00000000      -0.00000000 </v>
   <v>      -0.00000000      -0.00000000       0.00000000 </v>
   <v>      -0.00000000       0.00000000       0.00000000 </v>
   <v>       0.00000000       0.00000000      -0.00000000 </v>
   <v>      -0.00000000       0.00000000       0.00000000 </v>
   <v>      -0.00000000       0.00000000      -0.00000000 </v>
   <v>      -0.00000000      -0.00000000      -0.00000000 </v>
   <v>      -0.00000000      -0.00000000       0.00000000 </v>
   <v>      -0.00000000       0.00000000       0.00000000 </v>
   <v>      -0.00000000       0.00000000       0.00000000 </v>
   <v>      -0.00000000      -0.00000000      -0.00000000 </v>
   <v>      -0.00000000       0.00000000      -0.00000000 </v>
   <v>       0.00000000       0.00000000      -0.00000000 </v>
   <v>      -0.00000000      -0.00000000      -0.00000000 </v>
   <v>      -0.00000000      -0.00000000      -0.00000000 </v>
   <v>      -0.00000000       0.00000000       0.00000000 </v>
   <v>      -0.00000000      -0.00000000       0.00000000 </v>
   <v>       0.00000000       0.00000000       0.00000000 </v>
   <v>      -0.00000000       0.00000000      -0.00000000 </v>
   <v>      -0.00000000      -0.00000000      -0.00000000 </v>
   <v>      -0.00000000       0.00000000      -0.00000000 </v>
   <v>      -0.00000000       0.00000000      -0.00000000 </v>
   <v>      -0.00000000       0.00000000      -0.00000000 </v>
   <v>      -0.00000000      -0.00000000       0.00000000 </v>
   <v>       0.00000000      -0.00000000      -0.00000000 </v>
   <v>       0.00000000       0.00000000       0.00000000 </v>
   <v>       0.00000000       0.00000000       0.00000000 </v>
   <v>      -0.00000000       0.00000000       0.00000000 </v>
   <v>       0.00000000      -0.00000000      -0.00000000 </v>
   <v>       0.00000000       0.00000000      -0.00000000 </v>
   <v>      -0.00000000       0.00000000       0.00000000 </v>
   <v>       0.00000000       0.00000000      -0.00000000 </v>
   <v>      -0.00000000      -0.00000000      -0.00000000 </v>
   <v>       0.00000000       0.00000000       0.00000000 </v>
   <v>       0.00000000       0.00000000       0.00000000 </v>
   <v>       0.00000000      -0.00000000       0.00000000 </v>
   <v>       0.00000000       0.00000000       0.00000000 </v>
   <v>       0.00000000       0.00000000      -0.00000000 </v>
   <v>       0.00000000      -0.00000000       0.00000000 </v>
   <v>      -0.00000000       0.00000000       0.00000000 </v>
   <v>       0.00000000       0.00000000      -0.00000000 </v>
   <v>      -0.00000000       0.00000000      -0.00000000 </v>
  </varray>
  <varray name="stress" >
   <v>      -0.08377855      -0.00000000      -0.00000000 </v>
   <v>      -0.00000000      -0.08377855      -0.00000000 </v>
   <v>       0.00000000       0.00000000      -0.08377855 </v>
  </varray>
  <energy>
   <i name="e_fr_energy">   -879.51694764 </i>
   <i name="e_wo_entrp">   -879.49331439 </i>
   <i name="e_0_energy">     -0.07089973 </i>
  </energy>
  <time name="totalsc">  506.51  506.80</time>
  <eigenvalues>
   <array>
    <dimension dim="1">band</dimension>
    <dimension dim="2">kpoint</dimension>
    <dimension dim="3">spin</dimension>
    <field>eigene</field>
    <field>occ</field>
    <set>
     <set comment="spin 1">
      <set comment="kpoint 1">
       <r>   -1.9262    1.0000 </r>
       <r>   -0.7936    1.0000 </r>
       <r>   -0.7936    1.0000 </r>
       <r>   -0.7936    1.0000 </r>
       <r>   -0.1100    1.0000 </r>
       <r>   -0.1100    1.0000 </r>
       <r>   -0.1100    1.0000 </r>
       <r>    0.2227    1.0000 </r>
       <r>    0.2227    1.0000 </r>
       <r>    0.2227    1.0000 </r>
       <r>    0.8297    1.0000 </r>
       <r>    0.8297    1.0000 </r>
       <r>    0.8297    1.0000 </r>
       <r>    0.8297    1.0000 </r>
       <r>    0.8297    1.0000 </r>
       <r>    0.8297    1.0000 </r>
       <r>    0.9359    1.0000 </r>
       <r>    1.3316    1.0000 </r>
       <r>    1.3316    1.0000 </r>
       <r>    1.3316    1.0000 </r>
       <r>    1.3793    1.0000 </r>
       <r>    1.3793    1.0000 </r>
       <r>    1.3793    1.0000 </r>
       <r>    1.5995    1.0000 </r>
       <r>    1.5995    1.0000 </r>
       <r>    1.5995    1.0000 </r>
       <r>    1.7327    1.0000 </r>
       <r>    1.8047    1.0000 </r>
       <r>    1.8047    1.0000 </r>
       <r>    1.8047    1.0000 </r>
       <r>    1.9027    1.0000 </r>
       <r>    1.9027    1.0000 </r>
       <r>    1.9027    1.0000 </r>
       <r>    1.9998    1.0000 </r>
       <r>    1.9998    1.0000 </r>
       <r>    1.9998    1.0000 </r>
       <r>    2.3577    1.0000 </r>
       <r>    2.3577    1.0000 </r>
       <r>    2.3577    1.0000 </r>
       <r>    2.4803    1.0000 </r>
       <r>    2.4803    1.0000 </r>
       <r>    2.4803    1.0000 </r>
       <r>    2.4803    1.0000 </r>
       <r>    2.4803    1.0000 </r>
       <r>    2.4803    1.0000 </r>
       <r>    2.4952    1.0000 </r>
       <r>    2.4952    1.0000 </r>
       <r>    2.4952    1.0000 </r>
       <r>    2.5383    1.0000 </r>
       <r>    2.5383    1.0000 </r>
       <r>    2.5383    1.0000 </r>
       <r>    2.5383    1.0000 </r>
       <r>    2.5383    1.0000 </r>
       <r>    2.5383    1.0000 </r>
       <r>    2.5650    1.0000 </r>
       <r>    2.5650    1.0000 </r>
       <r>    2.5650    1.0000 </r>
       <r>    2.5650    1.0000 </r>
       <r>    2.5650    1.0000 </r>
       <r>    2.5650    1.0000 </r>
       <r>    2.6392    1.0000 </r>
       <r>    2.6392    1.0000 </r>
       <r>    2.6392    1.0000 </r>
       <r>    2.6432    1.0000 </r>
       <r>    2.6432    1.0000 </r>
       <r>    2.6432    1.0000 </r>
       <r>    2.7352    1.0000 </r>
       <r>    2.7352    1.0000 </r>
       <r>    2.7352    1.0000 </r>
       <r>    2.7352    1.0000 </r>
       <r>    2.7352    1.0000 </r>
       <r>    2.7352    1.0000 </r>
       <r>    2.7746    1.0000 </r>
       <r>    2.7746    1.0000 </r>
       <r>    2.7746    1.0000 </r>
       <r>    2.7746    1.0000 </r>
       <r>    2.7746    1.0000 </r>
       <r>    2.7746    1.0000 </r>
       <r>    2.7775    1.0000 </r>
       <r>    2.7775    1.0000 </r>
       <r>    2.7775    1.0000 </r>
       <r>    2.8310    1.0000 </r>
       <r>    2.8310    1.0000 </r>
       <r>    2.8310    1.0000 </r>
       <r>    2.8310    1.0000 </r>
       <r>    2.8310    1.0000 </r>
       <r>    2.8310    1.0000 </r>
       <r>    2.9446    1.0000 </r>
       <r>    2.9446    1.0000 </r>
       <r>    2.9446    1.0000 </r>
       <r>    2.9446    1.0000 </r>
       <r>    2.9446    1.0000 </r>
       <r>    2.9446    1.0000 </r>
       <r>    3.0571    1.0000 </r>
       <r>    3.0571    1.0000 </r>
       <r>    3.0571    1.0000 </r>
       <r>    3.0751    1.0000 </r>
       <r>    3.0751    1.0000 </r>
       <r>    3.0751    1.0000 </r>
       <r>    3.1081    1.0000 </r>
       <r>    3.1081    1.0000 </r>
       <r>    3.1081    1.0000 </r>
       <r>    3.1081    1.0000 </r>
       <r>    3.1081    1.0000 </r>
       <r>    3.1081    1.0000 </r>
       <r>    3.1688    1.0000 </r>
       <r>    3.1688    1.0000 </r>
       <r>    3.1688    1.0000 </r>
       <r>    3.1688    1.0000 </r>
       <r>    3.1688    1.0000 </r>
       <r>    3.1688    1.0000 </r>
       <r>    3.3334    1.0000 </r>
       <r>    3.3334    1.0000 </r>
       <r>    3.3334    1.0000 </r>
       <r>    3.3334    1.0000 </r>
       <r>    3.3334    1.0000 </r>
       <r>    3.3334    1.0000 </r>
       <r>    3.3423    1.0000 </r>
       <r>    3.3423    1.0000 </r>
       <r>    3.3423    1.0000 </r>
       <r>    3.4463    1.0000 </r>
       <r>    3.4463    1.0000 </r>
       <r>    3.4463    1.0000 </r>
       <r>    3.4498    1.0000 </r>
       <r>    3.4498    1.0000 </r>
       <r>    3.4498    1.0000 </r>
       <r>    3.4940    1.0000 </r>
       <r>    3.4940    1.0000 </r>
       <r>    3.4940    1.0000 </r>
       <r>    3.4940    1.0000 </r>
       <r>    3.4940    1.0000 </r>
       <r>    3.4940    1.0000 </r>
       <r>    3.5187    1.0000 </r>
       <r>    3.5187    1.0000 </r>
       <r>    3.5187    1.0000 </r>
       <r>    3.5187    1.0000 </r>
       <r>    3.5187    1.0000 </r>
       <r>    3.5187    1.0000 </r>
       <r>    3.5731    1.0000 </r>
       <r>    3.5731    1.0000 </r>
       <r>    3.5731    1.0000 </r>
       <r>    3.5731    1.0000 </r>
       <r>    3.5731    1.0000 </r>
       <r>    3.5731    1.0000 </r>
       <r>    3.6916    1.0000 </r>
       <r>    3.6916    1.0000 </r>
       <r>    3.6916    1.0000 </r>
       <r>    3.6916    1.0000 </r>
       <r>    3.6916    1.0000 </r>
       <r>    3.6916    1.0000 </r>
       <r>    3.7301    1.0000 </r>
       <r>    3.7301    1.0000 </r>
       <r>    3.7301    1.0000 </r>
       <r>    3.7540    1.0000 </r>
       <r>    3.7540    1.0000 </r>
       <r>    3.7540    1.0000 </r>
       <r>    3.7540    1.0000 </r>
       <r>    3.7540    1.0000 </r>
       <r>    3.7540    1.0000 </r>
       <r>    3.9074    1.0000 </r>
       <r>    3.9074    1.0000 </r>
       <r>    3.9074    1.0000 </r>
       <r>    3.9074    1.0000 </r>
       <r>    3.9074    1.0000 </r>
       <r>    3.9074    1.0000 </r>
       <r>    3.9243    1.0000 </r>
       <r>    3.9243    1.0000 </r>
       <r>    3.9243    1.0000 </r>
       <r>    4.1157    1.0000 </r>
       <r>    4.1157    1.0000 </r>
       <r>    4.1157    1.0000 </r>
       <r>    4.1157    1.0000 </r>
       <r>    4.1157    1.0000 </r>
       <r>    4.1157    1.0000 </r>
       <r>    4.2561    1.0000 </r>
       <r>    4.2561    1.0000 </r>
       <r>    4.2561    1.0000 </r>
       <r>    4.2745    1.0000 </r>
       <r>    4.2745    1.0000 </r>
       <r>    4.2745    1.0000 </r>
       <r>    4.3078    1.0000 </r>
       <r>    4.3078    1.0000 </r>
       <r>    4.3078    1.0000 </r>
       <r>    4.3224    1.0000 </r>
       <r>    4.3224    1.0000 </r>
       <r>    4.3224    1.0000 </r>
       <r>    4.3224    1.0000 </r>
       <r>    4.3224    1.0000 </r>
       <r>    4.3224    1.0000 </r>
       <r>    4.3306    1.0000 </r>
       <r>    4.3306    1.0000 </r>
       <r>    4.3306    1.0000 </r>
       <r>    4.4555    1.0000 </r>
       <r>    4.4555    1.0000 </r>
       <r>    4.4555    1.0000 </r>
       <r>    4.4555    1.0000 </r>
       <r>    4.4555    1.0000 </r>
       <r>    4.4555    1.0000 </r>
       <r>    4.4761    1.0000 </r>
       <r>    4.4761    1.0000 </r>
       <r>    4.4761    1.0000 </r>
       <r>    4.4824    1.0000 </r>
       <r>    4.4824    1.0000 </r>
       <r>    4.4824    1.0000 </r>
       <r>    4.4824    1.0000 </r>
       <r>    4.4824    1.0000 </r>
       <r>    4.4824    1.0000 </r>
       <r>    4.4950    1.0000 </r>
       <r>    4.4950    1.0000 </r>
       <r>    4.4950    1.0000 </r>
       <r>    4.4950    1.0000 </r>
       <r>    4.4950    1.0000 </r>
       <r>    4.4950    1.0000 </r>
       <r>    4.6134    1.0000 </r>
       <r>    4.6134    1.0000 </r>
       <r>    4.6134    1.0000 </r>
       <r>    4.6382    1.0000 </r>
       <r>    4.6382    1.0000 </r>
       <r>    4.6382    1.0000 </r>
       <r>    4.6524    1.0000 </r>
       <r>    4.6524    1.0000 </r>
       <r>    4.6524    1.0000 </r>
       <r>    4.7434    1.0000 </r>
       <r>    4.8249    1.0000 </r>
       <r>    4.8249    1.0000 </r>
       <r>    4.8249    1.0000 </r>
       <r>    4.8249    1.0000 </r>
       <r>    4.8249    1.0000 </r>
       <r>    4.8249    1.0000 </r>
       <r>    4.8329    1.0000 </r>
       <r>    4.8329    1.0000 </r>
       <r>    4.8329    1.0000 </r>
       <r>    4.8329    1.0000 </r>
       <r>    4.8329    1.0000 </r>
       <r>    4.8329    1.0000 </r>
       <r>    4.8391    1.0000 </r>
       <r>    4.8391    1.0000 </r>
       <r>    4.8391    1.0000 </r>
       <r>    4.9757    1.0000 </r>
       <r>    4.9757    1.0000 </r>
       <r>    4.9757    1.0000 </r>
       <r>    4.9757    1.0000 </r>
       <r>    4.9757    1.0000 </r>
       <r>    4.9757    1.0000 </r>
       <r>    5.0710    1.0000 </r>
       <r>    5.0710    1.0000 </r>
       <r>    5.0710    1.0000 </r>
       <r>    5.0760    1.0000 </r>
       <r>    5.0760    1.0000 </r>
       <r>    5.0760    1.0000 </r>
       <r>    5.0801    1.0000 </r>
       <r>    5.0801    1.0000 </r>
       <r>    5.0801    1.0000 </r>
       <r>    5.0801    1.0000 </r>
       <r>    5.0801    1.0000 </r>
       <r>    5.0801    1.0000 </r>
       <r>    5.1063    1.0000 </r>
       <r>    5.1063    1.0000 </r>
       <r>    5.1063    1.0000 </r>
       <r>    5.1337    1.0000 </r>
       <r>    5.1337    1.0000 </r>
       <r>    5.1337    1.0000 </r>
       <r>    5.1337    1.0000 </r>
       <r>    5.1337    1.0000 </r>
       <r>    5.1337    1.0000 </r>
       <r>    5.1486    1.0000 </r>
       <r>    5.1769    1.0000 </r>
       <r>    5.1769    1.0000 </r>
       <r>    5.1769    1.0000 </r>
       <r>    5.1774    1.0000 </r>
       <r>    5.1774    1.0000 </r>
       <r>    5.1774    1.0000 </r>
       <r>    5.1989    1.0000 </r>
       <r>    5.1989    1.0000 </r>
       <r>    5.2170    1.0000 </r>
       <r>    5.2170    1.0000 </r>
       <r>    5.2342    1.0000 </r>
       <r>    5.2342    1.0000 </r>
       <r>    5.2342    1.0000 </r>
       <r>    5.2342    1.0000 </r>
       <r>    5.2342    1.0000 </r>
       <r>    5.2342    1.0000 </r>
       <r>    5.2500    1.0000 </r>
       <r>    5.2500    1.0000 </r>
       <r>    5.2500    1.0000 </r>
       <r>    5.2961    1.0000 </r>
       <r>    5.2961    1.0000 </r>
       <r>    5.2961    1.0000 </r>
       <r>    5.2981    1.0000 </r>
       <r>    5.2981    1.0000 </r>
       <r>    5.2981    1.0000 </r>
       <r>    5.3155    1.0000 </r>
       <r>    5.3155    1.0000 </r>
       <r>    5.3155    1.0000 </r>
       <r>    5.3155    1.0000 </r>
       <r>    5.3155    1.0000 </r>
       <r>    5.3155    1.0000 </r>
       <r>    5.3436    1.0000 </r>
       <r>    5.3436    1.0000 </r>
       <r>    5.3436    1.0000 </r>
       <r>    5.3746    1.0000 </r>
       <r>    5.3746    1.0000 </r>
       <r>    5.3746    1.0000 </r>
       <r>    5.3874    1.0000 </r>
       <r>    5.3874    1.0000 </r>
       <r>    5.4279    1.0000 </r>
       <r>    5.4279    1.0000 </r>
       <r>    5.4279    1.0000 </r>
       <r>    5.4302    1.0000 </r>
       <r>    5.4302    1.0000 </r>
       <r>    5.4302    1.0000 </r>
       <r>    5.5663    1.0000 </r>
       <r>    5.5825    1.0000 </r>
       <r>    5.5825    1.0000 </r>
       <r>    5.5825    1.0000 </r>
       <r>    5.5988    1.0000 </r>
       <r>    5.5988    1.0000 </r>
       <r>    5.5988    1.0000 </r>
       <r>    5.6061    1.0000 </r>
       <r>    5.6061    1.0000 </r>
       <r>    5.6061    1.0000 </r>
       <r>    5.6061    1.0000 </r>
       <r>    5.6061    1.0000 </r>
       <r>    5.6061    1.0000 </r>
       <r>    5.6083    1.0000 </r>
       <r>    5.6083    1.0000 </r>
       <r>    5.6083    1.0000 </r>
       <r>    5.6327    1.0000 </r>
       <r>    5.6327    1.0000 </r>
       <r>    5.6327    1.0000 </r>
       <r>    5.7483    1.0000 </r>
       <r>    5.7483    1.0000 </r>
       <r>    5.7483    1.0000 </r>
       <r>    5.7515    1.0000 </r>
       <r>    5.7515    1.0000 </r>
       <r>    5.7515    1.0000 </r>
       <r>    5.7576    1.0000 </r>
       <r>    5.7576    1.0000 </r>
       <r>    5.7576    1.0000 </r>
       <r>    5.7576    1.0000 </r>
       <r>    5.7576    1.0000 </r>
       <r>    5.7576    1.0000 </r>
       <r>    5.7757    1.0000 </r>
       <r>    5.7757    1.0000 </r>
       <r>    5.7757    1.0000 </r>
       <r>    5.8253    1.0000 </r>
       <r>    5.8253    1.0000 </r>
       <r>    5.8253    1.0000 </r>
       <r>    5.8253    1.0000 </r>
       <r>    5.8253    1.0000 </r>
       <r>    5.8253    1.0000 </r>
       <r>    5.8700    1.0000 </r>
       <r>    5.8700    1.0000 </r>
       <r>    5.8700    1.0000 </r>
       <r>    5.9075    1.0000 </r>
       <r>    5.9075    1.0000 </r>
       <r>    5.9075    1.0000 </r>
       <r>    5.9075    1.0000 </r>
       <r>    5.9075    1.0000 </r>
       <r>    5.9075    1.0000 </r>
       <r>    5.9399    1.0000 </r>
       <r>    5.9399    1.0000 </r>
       <r>    5.9399    1.0000 </r>
       <r>    5.9860    1.0000 </r>
       <r>    5.9860    1.0000 </r>
       <r>    5.9860    1.0000 </r>
       <r>    6.0886    1.0000 </r>
       <r>    6.0886    1.0000 </r>
       <r>    6.0886    1.0000 </r>
       <r>    6.1153    1.0000 </r>
       <r>    6.1153    1.0000 </r>
       <r>    6.1153    1.0000 </r>
       <r>    6.2499    1.0003 </r>
       <r>    6.2499    1.0003 </r>
       <r>    6.2499    1.0003 </r>
       <r>    6.2501    1.0003 </r>
       <r>    6.2501    1.0003 </r>
       <r>    6.2501    1.0003 </r>
       <r>    6.2514    1.0003 </r>
       <r>    6.2514    1.0003 </r>
       <r>    6.2514    1.0003 </r>
       <r>    6.2550    1.0004 </r>
       <r>    6.2550    1.0004 </r>
       <r>    6.2550    1.0004 </r>
       <r>    6.2566    1.0004 </r>
       <r>    6.2566    1.0004 </r>
       <r>    6.2566    1.0004 </r>
       <r>    6.3340    1.0022 </r>
       <r>    6.3340    1.0022 </r>
       <r>    6.3340    1.0022 </r>
       <r>    6.4372    1.0132 </r>
       <r>    6.4372    1.0132 </r>
       <r>    6.4372    1.0132 </r>
       <r>    6.4372    1.0132 </r>
       <r>    6.4372    1.0132 </r>
       <r>    6.4372    1.0132 </r>
       <r>    6.5053    1.0280 </r>
       <r>    6.5053    1.0280 </r>
       <r>    6.5053    1.0280 </r>
       <r>    6.5053    1.0280 </r>
       <r>    6.5053    1.0280 </r>
       <r>    6.5053    1.0280 </r>
       <r>    6.6301    1.0056 </r>
       <r>    6.6301    1.0056 </r>
       <r>    6.6301    1.0056 </r>
       <r>    6.6301    1.0056 </r>
       <r>    6.6301    1.0056 </r>
       <r>    6.6301    1.0056 </r>
       <r>    6.6500    0.9817 </r>
       <r>    6.6500    0.9817 </r>
       <r>    6.6500    0.9817 </r>
       <r>    6.6500    0.9817 </r>
       <r>    6.6500    0.9817 </r>
       <r>    6.6500    0.9817 </r>
       <r>    6.6964    0.8899 </r>
       <r>    6.6964    0.8899 </r>
       <r>    6.6964    0.8899 </r>
       <r>    6.7063    0.8633 </r>
       <r>    6.7063    0.8633 </r>
       <r>    6.7063    0.8633 </r>
       <r>    6.7256    0.8047 </r>
       <r>    6.7256    0.8047 </r>
       <r>    6.8110    0.4697 </r>
       <r>    6.8110    0.4697 </r>
       <r>    6.8110    0.4697 </r>
       <r>    6.8110    0.4697 </r>
       <r>    6.8110    0.4697 </r>
       <r>    6.8110    0.4697 </r>
       <r>    6.8837    0.1902 </r>
       <r>    6.8837    0.1902 </r>
       <r>    6.8837    0.1902 </r>
       <r>    6.8837    0.1902 </r>
       <r>    6.8837    0.1902 </r>
       <r>    6.8837    0.1902 </r>
       <r>    6.8933    0.1602 </r>
       <r>    6.8933    0.1602 </r>
       <r>    6.8933    0.1602 </r>
       <r>    6.9301    0.0665 </r>
       <r>    6.9301    0.0665 </r>
       <r>    6.9301    0.0665 </r>
       <r>    7.0418   -0.0353 </r>
       <r>    7.0418   -0.0353 </r>
       <r>    7.0418   -0.0353 </r>
       <r>    7.0418   -0.0353 </r>
       <r>    7.0418   -0.0353 </r>
       <r>    7.0418   -0.0353 </r>
       <r>    7.0526   -0.0354 </r>
       <r>    7.0526   -0.0354 </r>
       <r>    7.0526   -0.0354 </r>
       <r>    7.0563   -0.0353 </r>
       <r>    7.0563   -0.0353 </r>
       <r>    7.0808   -0.0323 </r>
       <r>    7.0808   -0.0323 </r>
       <r>    7.0808   -0.0323 </r>
       <r>    7.0808   -0.0323 </r>
       <r>    7.0808   -0.0323 </r>
       <r>    7.0808   -0.0323 </r>
       <r>    7.1064   -0.0271 </r>
       <r>    7.1064   -0.0271 </r>
       <r>    7.1064   -0.0271 </r>
       <r>    7.1064   -0.0271 </r>
       <r>    7.1064   -0.0271 </r>
       <r>    7.1064   -0.0271 </r>
       <r>    7.1446   -0.0184 </r>
       <r>    7.1446   -0.0184 </r>
       <r>    7.1446   -0.0184 </r>
       <r>    7.1568   -0.0158 </r>
       <r>    7.1568   -0.0158 </r>
       <r>    7.1568   -0.0158 </r>
       <r>    7.2196   -0.0061 </r>
       <r>    7.2196   -0.0061 </r>
       <r>    7.2196   -0.0061 </r>
       <r>    7.2393   -0.0043 </r>
       <r>    7.2393   -0.0043 </r>
       <r>    7.2393   -0.0043 </r>
       <r>    7.2674   -0.0025 </r>
       <r>    7.2674   -0.0025 </r>
       <r>    7.2674   -0.0025 </r>
       <r>    7.2726   -0.0023 </r>
       <r>    7.2726   -0.0023 </r>
       <r>    7.2726   -0.0023 </r>
       <r>    7.3312   -0.0006 </r>
       <r>    7.3318   -0.0006 </r>
       <r>    7.3342   -0.0006 </r>
       <r>    7.3700   -0.0002 </r>
       <r>    7.3702   -0.0002 </r>
       <r>    7.3706   -0.0002 </r>
       <r>    7.3716   -0.0002 </r>
       <r>    7.3726   -0.0002 </r>
       <r>    7.3755   -0.0002 </r>
       <r>    7.4023   -0.0001 </r>
       <r>    7.4026   -0.0001 </r>
       <r>    7.4034   -0.0001 </r>
       <r>    7.4041   -0.0001 </r>
       <r>    7.4079   -0.0001 </r>
       <r>    7.4129   -0.0001 </r>
       <r>    7.4658   -0.0000 </r>
       <r>    7.4675   -0.0000 </r>
       <r>    7.4696   -0.0000 </r>
       <r>    7.4714   -0.0000 </r>
       <r>    7.4759   -0.0000 </r>
       <r>    7.4781   -0.0000 </r>
       <r>    7.4880   -0.0000 </r>
       <r>    7.4904   -0.0000 </r>
       <r>    7.4945   -0.0000 </r>
       <r>    7.5060   -0.0000 </r>
       <r>    7.5191   -0.0000 </r>
       <r>    7.5789   -0.0000 </r>
       <r>    7.5797   -0.0000 </r>
       <r>    7.5818   -0.0000 </r>
       <r>    7.5834   -0.0000 </r>
       <r>    7.5880   -0.0000 </r>
       <r>    7.5947   -0.0000 </r>
       <r>    7.6008   -0.0000 </r>
       <r>    7.6122   -0.0000 </r>
       <r>    7.6247   -0.0000 </r>
       <r>    7.6683   -0.0000 </r>
       <r>    7.6955   -0.0000 </r>
       <r>    7.7043   -0.0000 </r>
       <r>    7.7541   -0.0000 </r>
       <r>    7.7919   -0.0000 </r>
       <r>    7.7945   -0.0000 </r>
      </set>
      <set comment="kpoint 2">
       <r>   -1.7298    1.0000 </r>
       <r>   -1.3458    1.0000 </r>
       <r>   -0.6163    1.0000 </r>
       <r>   -0.6163    1.0000 </r>
       <r>   -0.2709    1.0000 </r>
       <r>   -0.2709    1.0000 </r>
       <r>    0.0555    1.0000 </r>
       <r>    0.0555    1.0000 </r>
       <r>    0.3519    1.0000 </r>
       <r>    0.3761    1.0000 </r>
       <r>    0.3761    1.0000 </r>
       <r>    0.5979    1.0000 </r>
[...]
       <r>    -1.7719     3.0070     0.4588 </r>
       <r>    -1.7260     3.4742     0.6181 </r>
       <r>    -1.6802     3.7684     0.7908 </r>
       <r>    -1.6344     3.8994     0.9696 </r>
       <r>    -1.5885     3.9401     1.1502 </r>
       <r>    -1.5427     3.9794     1.3326 </r>
       <r>    -1.4969     4.0860     1.5198 </r>
       <r>    -1.4510     4.3005     1.7170 </r>
       <r>    -1.4052     4.6432     1.9298 </r>
       <r>    -1.3594     5.1188     2.1644 </r>
       <r>    -1.3135     5.7115     2.4262 </r>
       <r>    -1.2677     6.3646     2.7180 </r>
       <r>    -1.2218     6.9540     3.0367 </r>
       <r>    -1.1760     7.2956     3.3711 </r>
       <r>    -1.1302     7.2257     3.7023 </r>
       <r>    -1.0843     6.7215     4.0104 </r>
       <r>    -1.0385     5.9665     4.2839 </r>
       <r>    -0.9927     5.2889     4.5263 </r>
       <r>    -0.9468     5.0107     4.7560 </r>
       <r>    -0.9010     5.3093     4.9993 </r>
       <r>    -0.8552     6.1703     5.2822 </r>
       <r>    -0.8093     7.4336     5.6229 </r>
       <r>    -0.7635     8.8671     6.0293 </r>
       <r>    -0.7176    10.2039     6.4970 </r>
       <r>    -0.6718    11.1445     7.0079 </r>
       <r>    -0.6260    11.3959     7.5302 </r>
       <r>    -0.5801    10.8002     8.0253 </r>
       <r>    -0.5343     9.4902     8.4603 </r>
       <r>    -0.4885     7.9206     8.8233 </r>
       <r>    -0.4426     6.6982     9.1303 </r>
       <r>    -0.3968     6.3004     9.4191 </r>
       <r>    -0.3510     6.8674     9.7339 </r>
       <r>    -0.3051     8.1831    10.1090 </r>
       <r>    -0.2593     9.8174    10.5590 </r>
       <r>    -0.2134    11.3115    11.0775 </r>
       <r>    -0.1676    12.3157    11.6420 </r>
       <r>    -0.1218    12.6652    12.2225 </r>
       <r>    -0.0759    12.4181    12.7917 </r>
       <r>    -0.0301    11.8422    13.3345 </r>
       <r>     0.0157    11.3161    13.8532 </r>
       <r>     0.0616    11.1564    14.3646 </r>
       <r>     0.1074    11.4685    14.8902 </r>
       <r>     0.1533    12.1250    15.4460 </r>
       <r>     0.1991    12.8801    16.0364 </r>
       <r>     0.2449    13.5207    16.6561 </r>
       <r>     0.2908    13.9443    17.2953 </r>
       <r>     0.3366    14.1340    17.9431 </r>
       <r>     0.3824    14.0939    18.5892 </r>
       <r>     0.4283    13.8194    19.2226 </r>
       <r>     0.4741    13.3237    19.8333 </r>
       <r>     0.5199    12.6954    20.4152 </r>
       <r>     0.5658    12.1497    20.9721 </r>
       <r>     0.6116    12.0297    21.5235 </r>
       <r>     0.6575    12.7033    22.1058 </r>
       <r>     0.7033    14.3478    22.7634 </r>
       <r>     0.7491    16.7346    23.5305 </r>
       <r>     0.7950    19.2161    24.4113 </r>
       <r>     0.8408    21.0123    25.3744 </r>
       <r>     0.8866    21.6489    26.3667 </r>
       <r>     0.9325    21.2253    27.3396 </r>
       <r>     0.9783    20.2842    28.2694 </r>
       <r>     1.0241    19.3753    29.1575 </r>
       <r>     1.0700    18.6727    30.0134 </r>
       <r>     1.1158    17.9785    30.8374 </r>
       <r>     1.1617    17.1070    31.6216 </r>
       <r>     1.2075    16.2932    32.3684 </r>
       <r>     1.2533    16.2313    33.1124 </r>
       <r>     1.2992    17.6704    33.9223 </r>
       <r>     1.3450    20.8636    34.8787 </r>
       <r>     1.3908    25.2695    36.0369 </r>
       <r>     1.4367    29.6959    37.3981 </r>
       <r>     1.4825    32.7885    38.9010 </r>
       <r>     1.5283    33.6161    40.4418 </r>
       <r>     1.5742    32.1029    41.9133 </r>
       <r>     1.6200    29.1455    43.2493 </r>
       <r>     1.6659    26.3702    44.4580 </r>
       <r>     1.7117    25.6215    45.6324 </r>
       <r>     1.7575    28.3575    46.9322 </r>
       <r>     1.8034    35.1586    48.5437 </r>
       <r>     1.8492    45.5261    50.6305 </r>
       <r>     1.8950    58.0775    53.2926 </r>
       <r>     1.9409    71.0768    56.5505 </r>
       <r>     1.9867    83.0147    60.3556 </r>
       <r>     2.0326    92.8939    64.6135 </r>
       <r>     2.0784   100.1375    69.2035 </r>
       <r>     2.1242   104.4133    73.9894 </r>
       <r>     2.1701   105.7079    78.8347 </r>
       <r>     2.2159   104.6166    83.6300 </r>
       <r>     2.2617   102.4602    88.3264 </r>
       <r>     2.3076   100.9226    92.9523 </r>
       <r>     2.3534   101.3198    97.5965 </r>
       <r>     2.3992   103.9490   102.3612 </r>
       <r>     2.4451   107.9750   107.3104 </r>
       <r>     2.4909   112.0119   112.4446 </r>
       <r>     2.5368   115.1028   117.7205 </r>
       <r>     2.5826   117.4256   123.1029 </r>
       <r>     2.6284   120.1314   128.6093 </r>
       <r>     2.6743   124.3676   134.3099 </r>
       <r>     2.7201   130.2786   140.2814 </r>
       <r>     2.7659   136.8781   146.5554 </r>
       <r>     2.8118   142.9169   153.1062 </r>
       <r>     2.8576   147.9390   159.8873 </r>
       <r>     2.9034   152.5374   166.8791 </r>
       <r>     2.9493   157.5799   174.1020 </r>
       <r>     2.9951   163.1336   181.5795 </r>
       <r>     3.0410   168.0936   189.2843 </r>
       <r>     3.0868   170.8756   197.1166 </r>
       <r>     3.1326   170.5830   204.9356 </r>
       <r>     3.1785   167.6392   212.6196 </r>
       <r>     3.2243   163.3819   220.1084 </r>
       <r>     3.2701   159.0784   227.4000 </r>
       <r>     3.3160   155.3063   234.5187 </r>
       <r>     3.3618   152.1633   241.4934 </r>
       <r>     3.4076   149.8494   248.3620 </r>
       <r>     3.4535   148.8133   255.1831 </r>
       <r>     3.4993   149.2444   262.0239 </r>
       <r>     3.5452   150.5039   268.9225 </r>
       <r>     3.5910   151.2027   275.8531 </r>
       <r>     3.6368   149.9815   282.7277 </r>
       <r>     3.6827   146.3969   289.4381 </r>
       <r>     3.7285   141.2714   295.9135 </r>
       <r>     3.7743   136.2912   302.1606 </r>
       <r>     3.8202   133.0787   308.2604 </r>
       <r>     3.8660   132.2220   314.3210 </r>
       <r>     3.9118   132.8431   320.4101 </r>
       <r>     3.9577   133.1153   326.5117 </r>
       <r>     4.0035   131.5707   332.5424 </r>
       <r>     4.0494   128.3352   338.4248 </r>
       <r>     4.0952   125.2690   344.1667 </r>
       <r>     4.1410   124.7456   349.8847 </r>
       <r>     4.1869   127.9857   355.7511 </r>
       <r>     4.2327   134.3475   361.9091 </r>
       <r>     4.2785   142.1723   368.4258 </r>
       <r>     4.3244   150.3131   375.3156 </r>
       <r>     4.3702   158.8123   382.5950 </r>
       <r>     4.4161   168.0874   390.2996 </r>
       <r>     4.4619   177.5514   398.4379 </r>
       <r>     4.5077   185.1766   406.9258 </r>
       <r>     4.5536   188.5503   415.5683 </r>
       <r>     4.5994   186.5564   424.1194 </r>
       <r>     4.6452   180.3847   432.3876 </r>
       <r>     4.6911   173.2609   440.3293 </r>
       <r>     4.7369   169.1819   448.0840 </r>
       <r>     4.7827   171.2996   455.9358 </r>
       <r>     4.8286   180.5657   464.2123 </r>
       <r>     4.8744   195.1851   473.1589 </r>
       <r>     4.9203   211.2599   482.8423 </r>
       <r>     4.9661   224.4716   493.1313 </r>
       <r>     5.0119   231.9610   503.7636 </r>
       <r>     5.0578   233.3517   514.4597 </r>
       <r>     5.1036   230.4425   525.0224 </r>
       <r>     5.1494   226.0229   535.3825 </r>
       <r>     5.1953   222.7313   545.5917 </r>
       <r>     5.2411   222.5407   555.7922 </r>
       <r>     5.2869   226.7011   566.1834 </r>
       <r>     5.3328   235.5350   576.9795 </r>
       <r>     5.3786   247.8109   588.3383 </r>
       <r>     5.4245   260.2303   600.2664 </r>
       <r>     5.4703   267.9840   612.5498 </r>
       <r>     5.5161   266.7102   624.7749 </r>
       <r>     5.5620   254.8932   636.4583 </r>
       <r>     5.6078   234.9973   647.2298 </r>
       <r>     5.6536   212.3149   656.9616 </r>
       <r>     5.6995   192.1601   665.7695 </r>
       <r>     5.7453   177.2846   673.8956 </r>
       <r>     5.7911   167.1768   681.5585 </r>
       <r>     5.8370   159.4698   688.8680 </r>
       <r>     5.8828   152.2036   695.8445 </r>
       <r>     5.9287   145.2929   702.5042 </r>
       <r>     5.9745   140.3723   708.9384 </r>
       <r>     6.0203   139.4264   715.3292 </r>
       <r>     6.0662   143.3286   721.8989 </r>
       <r>     6.1120   151.2284   728.8307 </r>
       <r>     6.1578   161.0103   736.2109 </r>
       <r>     6.2037   170.3999   744.0214 </r>
       <r>     6.2495   178.0667   752.1834 </r>
       <r>     6.2954   184.1523   760.6243 </r>
       <r>     6.3412   189.8907   769.3282 </r>
       <r>     6.3870   196.4298   778.3319 </r>
       <r>     6.4329   203.5971   787.6641 </r>
       <r>     6.4787   209.6610   797.2742 </r>
       <r>     6.5245   212.5229   807.0155 </r>
       <r>     6.5704   211.4894   816.7095 </r>
       <r>     6.6162   208.0238   826.2446 </r>
       <r>     6.6620   204.6177   835.6235 </r>
       <r>     6.7079   202.6354   844.9116 </r>
       <r>     6.7537   201.0472   854.1269 </r>
       <r>     6.7996   197.3029   863.1706 </r>
       <r>     6.8454   189.7180   871.8666 </r>
       <r>     6.8912   179.3579   880.0878 </r>
       <r>     6.9371   169.7610   887.8691 </r>
       <r>     6.9829   164.6530   895.4162 </r>
       <r>     7.0287   165.4756   903.0010 </r>
       <r>     7.0746   170.6372   910.8224 </r>
       <r>     7.1204   176.8836   918.9302 </r>
       <r>     7.1662   181.4892   927.2490 </r>
       <r>     7.2121   183.5823   935.6638 </r>
       <r>     7.2579   183.9601   944.0959 </r>
       <r>     7.3038   184.0487   952.5320 </r>
       <r>     7.3496   185.0231   961.0129 </r>
       <r>     7.3954   187.4948   969.6070 </r>
       <r>     7.4413   191.4980   978.3846 </r>
       <r>     7.4871   196.4041   987.3871 </r>
       <r>     7.5329   200.7341   996.5880 </r>
       <r>     7.5788   202.0986  1005.8515 </r>
       <r>     7.6246   197.5140  1014.9049 </r>
       <r>     7.6704   184.2240  1023.3491 </r>
       <r>     7.7163   160.9215  1030.7252 </r>
       <r>     7.7621   128.8781  1036.6325 </r>
       <r>     7.8080    92.1909  1040.8582 </r>
       <r>     7.8538    56.6375  1043.4543 </r>
       <r>     7.8996    27.5365  1044.7165 </r>
       <r>     7.9455     7.8069  1045.0743 </r>
       <r>     7.9913    -2.6709  1044.9519 </r>
       <r>     8.0371    -6.2306  1044.6663 </r>
       <r>     8.0830    -5.9011  1044.3958 </r>
       <r>     8.1288    -4.1569  1044.2053 </r>
       <r>     8.1746    -2.4226  1044.0942 </r>
       <r>     8.2205    -1.2141  1044.0386 </r>
       <r>     8.2663    -0.5329  1044.0141 </r>
       <r>     8.3122    -0.2070  1044.0047 </r>
       <r>     8.3580    -0.0716  1044.0014 </r>
       <r>     8.4038    -0.0221  1044.0004 </r>
       <r>     8.4497    -0.0061  1044.0001 </r>
       <r>     8.4955    -0.0015  1044.0000 </r>
       <r>     8.5413    -0.0003  1044.0000 </r>
       <r>     8.5872    -0.0001  1044.0000 </r>
       <r>     8.6330    -0.0000  1044.0000 </r>
       <r>     8.6789    -0.0000  1044.0000 </r>
       <r>     8.7247    -0.0000  1044.0000 </r>
       <r>     8.7705    -0.0000  1044.0000 </r>
       <r>     8.8164    -0.0000  1044.0000 </r>
       <r>     8.8622    -0.0000  1044.0000 </r>
       <r>     8.9080    -0.0000  1044.0000 </r>
       <r>     8.9539    -0.0000  1044.0000 </r>
       <r>     8.9997    -0.0000  1044.0000 </r>
       <r>     9.0455    -0.0000  1044.0000 </r>
       <r>     9.0914    -0.0000  1044.0000 </r>
       <r>     9.1372     0.0000  1044.0000 </r>
       <r>     9.1831     0.0000  1044.0000 </r>
       <r>     9.2289     0.0000  1044.0000 </r>
       <r>     9.2747     0.0000  1044.0000 </r>
       <r>     9.3206     0.0000  1044.0000 </r>
       <r>     9.3664     0.0000  1044.0000 </r>
       <r>     9.4122     0.0000  1044.0000 </r>
       <r>     9.4581     0.0000  1044.0000 </r>
       <r>     9.5039     0.0000  1044.0000 </r>
       <r>     9.5497     0.0000  1044.0000 </r>
       <r>     9.5956     0.0000  1044.0000 </r>
       <r>     9.6414     0.0000  1044.0000 </r>
       <r>     9.6873     0.0000  1044.0000 </r>
       <r>     9.7331     0.0000  1044.0000 </r>
       <r>     9.7789     0.0000  1044.0000 </r>
       <r>     9.8248     0.0000  1044.0000 </r>
      </set>
     </set>
    </array>
   </total>
  </dos>
 </calculation>
 <structure name="finalpos" >
  <crystal>
   <varray name="basis" >
    <v>      10.33484705       0.00000000       0.00000000 </v>
    <v>       0.00000000      10.33484705       0.00000000 </v>
    <v>       0.00000000       0.00000000      10.33484705 </v>
   </varray>
   <i name="volume">   1103.85533447 </i>
   <varray name="rec_basis" >
    <v>       0.09676002       0.00000000       0.00000000 </v>
    <v>       0.00000000       0.09676002       0.00000000 </v>
    <v>       0.00000000       0.00000000       0.09676002 </v>
   </varray>
  </crystal>
  <varray name="positions" >
   <v>       0.00000000       0.00000000       0.00000000 </v>
   <v>       0.00000000       0.16666893       0.16666893 </v>
   <v>       0.00000000       0.33333106       0.00000000 </v>
   <v>       0.00000000       0.50000000       0.16666894 </v>
   <v>       0.00000000       0.66666897       0.00000000 </v>
   <v>       0.00000000       0.83333104       0.16666893 </v>
   <v>       0.00000000       0.00000000       0.33333106 </v>
   <v>       0.00000000       0.16666894       0.50000000 </v>
   <v>       0.00000000       0.33333107       0.33333107 </v>
   <v>       0.00000000       0.50000000       0.50000000 </v>
   <v>       0.00000000       0.66666896       0.33333107 </v>
   <v>       0.00000000       0.83333103       0.50000000 </v>
   <v>       0.00000000       0.00000000       0.66666897 </v>
   <v>       0.00000000       0.16666893       0.83333104 </v>
   <v>       0.00000000       0.33333107       0.66666896 </v>
   <v>       0.00000000       0.50000000       0.83333103 </v>
   <v>       0.00000000       0.66666896       0.66666896 </v>
   <v>       0.00000000       0.83333104       0.83333104 </v>
   <v>       0.16666893       0.00000000       0.16666893 </v>
   <v>       0.16666893       0.16666893       0.00000000 </v>
   <v>       0.16666893       0.83333104       0.00000000 </v>
   <v>       0.16666893       0.33333107       0.50000000 </v>
   <v>       0.16666893       0.50000000       0.33333107 </v>
   <v>       0.16666893       0.66666896       0.50000000 </v>
   <v>       0.16666893       0.00000000       0.83333104 </v>
   <v>       0.16666893       0.50000000       0.66666896 </v>
   <v>       0.16666893       0.33333107       0.16666893 </v>
   <v>       0.16666893       0.66666896       0.16666893 </v>
   <v>       0.16666893       0.16666893       0.33333107 </v>
   <v>       0.16666893       0.83333104       0.33333107 </v>
   <v>       0.16666893       0.16666893       0.66666896 </v>
   <v>       0.16666893       0.33333107       0.83333104 </v>
   <v>       0.16666893       0.66666896       0.83333104 </v>
   <v>       0.16666893       0.83333104       0.66666896 </v>
   <v>       0.16666894       0.50000000       0.00000000 </v>
   <v>       0.16666894       0.00000000       0.50000000 </v>
   <v>       0.33333106       0.00000000       0.00000000 </v>
   <v>       0.33333106       0.50000000       0.50000000 </v>
   <v>       0.33333107       0.16666893       0.16666893 </v>
   <v>       0.33333107       0.83333104       0.16666893 </v>
   <v>       0.33333107       0.33333107       0.33333107 </v>
   <v>       0.33333107       0.66666896       0.33333107 </v>
   <v>       0.33333107       0.16666893       0.83333104 </v>
   <v>       0.33333107       0.33333107       0.66666896 </v>
   <v>       0.33333107       0.66666896       0.66666896 </v>
   <v>       0.33333107       0.83333104       0.83333104 </v>
   <v>       0.33333107       0.33333107       0.00000000 </v>
   <v>       0.33333107       0.50000000       0.16666893 </v>
   <v>       0.33333107       0.66666896       0.00000000 </v>
   <v>       0.33333107       0.00000000       0.33333107 </v>
   <v>       0.33333107       0.16666893       0.50000000 </v>
   <v>       0.33333107       0.83333104       0.50000000 </v>
   <v>       0.33333107       0.00000000       0.66666896 </v>
   <v>       0.33333107       0.50000000       0.83333104 </v>
   <v>       0.50000000       0.00000000       0.16666894 </v>
   <v>       0.50000000       0.16666894       0.00000000 </v>
   <v>       0.50000000       0.33333107       0.16666893 </v>
   <v>       0.50000000       0.50000000       0.00000000 </v>
   <v>       0.50000000       0.66666896       0.16666893 </v>
   <v>       0.50000000       0.83333103       0.00000000 </v>
   <v>       0.50000000       0.00000000       0.50000000 </v>
   <v>       0.50000000       0.16666893       0.33333107 </v>
   <v>       0.50000000       0.33333106       0.50000000 </v>
   <v>       0.50000000       0.50000000       0.33333106 </v>
   <v>       0.50000000       0.66666897       0.50000000 </v>
   <v>       0.50000000       0.83333104       0.33333107 </v>
   <v>       0.50000000       0.00000000       0.83333103 </v>
   <v>       0.50000000       0.16666893       0.66666896 </v>
   <v>       0.50000000       0.33333107       0.83333104 </v>
   <v>       0.50000000       0.50000000       0.66666897 </v>
   <v>       0.50000000       0.66666896       0.83333104 </v>
   <v>       0.50000000       0.83333104       0.66666896 </v>
   <v>       0.66666896       0.33333107       0.00000000 </v>
   <v>       0.66666896       0.50000000       0.16666893 </v>
   <v>       0.66666896       0.66666896       0.00000000 </v>
   <v>       0.66666896       0.00000000       0.33333107 </v>
   <v>       0.66666896       0.16666893       0.50000000 </v>
   <v>       0.66666896       0.83333104       0.50000000 </v>
   <v>       0.66666896       0.00000000       0.66666896 </v>
   <v>       0.66666896       0.50000000       0.83333104 </v>
   <v>       0.66666896       0.16666893       0.16666893 </v>
   <v>       0.66666896       0.83333104       0.16666893 </v>
   <v>       0.66666896       0.33333107       0.33333107 </v>
   <v>       0.66666896       0.66666896       0.33333107 </v>
   <v>       0.66666896       0.16666893       0.83333104 </v>
   <v>       0.66666896       0.33333107       0.66666896 </v>
   <v>       0.66666896       0.66666896       0.66666896 </v>
   <v>       0.66666896       0.83333104       0.83333104 </v>
   <v>       0.66666897       0.00000000       0.00000000 </v>
   <v>       0.66666897       0.50000000       0.50000000 </v>
   <v>       0.83333103       0.50000000       0.00000000 </v>
   <v>       0.83333103       0.00000000       0.50000000 </v>
   <v>       0.83333104       0.33333107       0.16666893 </v>
   <v>       0.83333104       0.66666896       0.16666893 </v>
   <v>       0.83333104       0.16666893       0.33333107 </v>
   <v>       0.83333104       0.83333104       0.33333107 </v>
   <v>       0.83333104       0.16666893       0.66666896 </v>
   <v>       0.83333104       0.33333107       0.83333104 </v>
   <v>       0.83333104       0.66666896       0.83333104 </v>
   <v>       0.83333104       0.83333104       0.66666896 </v>
   <v>       0.83333104       0.00000000       0.16666893 </v>
   <v>       0.83333104       0.16666893       0.00000000 </v>
   <v>       0.83333104       0.83333104       0.00000000 </v>
   <v>       0.83333104       0.33333107       0.50000000 </v>
   <v>       0.83333104       0.50000000       0.33333107 </v>
   <v>       0.83333104       0.66666896       0.50000000 </v>
   <v>       0.83333104       0.00000000       0.83333104 </v>
   <v>       0.83333104       0.50000000       0.66666896 </v>
  </varray>
 </structure>
</modeling>
