 107 107   0   0
  0.1031640E+02  0.1033485E-08  0.1033485E-08  0.1033485E-08  0.5000000E-15
  1.000000000000000E-004
  CAR 
 Opt                                     
      9.60830355     -3.98858906  301      6.70145562      1.00000000
     -3.989  0.0000E+00  0.0000E+00
     -3.943  0.0000E+00  0.0000E+00
     -3.898  0.0000E+00  0.0000E+00
     -3.853  0.0000E+00  0.0000E+00
     -3.807  0.0000E+00  0.0000E+00
     -3.762  0.0000E+00  0.0000E+00
     -3.717  0.0000E+00  0.0000E+00
     -3.671  0.0000E+00  0.0000E+00
     -3.626 -0.9888E-30 -0.4482E-31
     -3.581 -0.3635E-28 -0.1692E-29
     -3.535 -0.1234E-26 -0.5761E-28
     -3.490 -0.3775E-25 -0.1768E-26
     -3.445 -0.1041E-23 -0.4894E-25
     -3.399 -0.2586E-22 -0.1221E-23
     -3.354 -0.5789E-21 -0.2746E-22
     -3.309 -0.1168E-19 -0.5567E-21
     -3.263 -0.2121E-18 -0.1017E-19
     -3.218 -0.3471E-17 -0.1675E-18
     -3.173 -0.4809E-16 -0.2347E-17
     -3.127 -0.6602E-15 -0.3227E-16
     -3.082 -0.7833E-14 -0.3873E-15
     -3.037 -0.8393E-13 -0.4191E-14
     -2.991 -0.8084E-12 -0.4083E-13
     -2.946 -0.7000E-11 -0.3581E-12
     -2.901 -0.5445E-10 -0.2826E-11
     -2.856 -0.3802E-09 -0.2006E-10
     -2.810 -0.2382E-08 -0.1280E-09
     -2.765 -0.1338E-07 -0.7345E-09
     -2.720 -0.6731E-07 -0.3785E-08
     -2.674 -0.3027E-06 -0.1751E-07
     -2.629 -0.1216E-05 -0.7261E-07
     -2.584 -0.4350E-05 -0.2698E-06
     -2.538 -0.1383E-04 -0.8966E-06
     -2.493 -0.3891E-04 -0.2660E-05
     -2.448 -0.9640E-04 -0.7029E-05
     -2.402 -0.2086E-03 -0.1648E-04
     -2.357 -0.3890E-03 -0.3411E-04
     -2.312 -0.6108E-03 -0.6180E-04
     -2.266 -0.7650E-03 -0.9647E-04
     -2.221 -0.6423E-03 -0.1256E-03
     -2.176  0.2608E-04 -0.1244E-03
     -2.130  0.1469E-02 -0.5784E-04
     -2.085  0.3788E-02  0.1138E-03
     -2.040  0.6977E-02  0.4300E-03
     -1.994  0.1103E-01  0.9299E-03
     -1.949  0.1596E-01  0.1653E-02
     -1.904  0.2166E-01  0.2635E-02
     -1.858  0.2762E-01  0.3887E-02
     -1.813  0.3296E-01  0.5381E-02
     -1.768  0.3683E-01  0.7050E-02
     -1.722  0.3891E-01  0.8814E-02
     -1.677  0.3960E-01  0.1061E-01
     -1.632  0.3972E-01  0.1241E-01
     -1.586  0.4012E-01  0.1423E-01
     -1.541  0.4146E-01  0.1611E-01
     -1.496  0.4417E-01  0.1811E-01
     -1.451  0.4837E-01  0.2030E-01
     -1.405  0.5384E-01  0.2274E-01
     -1.360  0.6009E-01  0.2546E-01
     -1.315  0.6623E-01  0.2847E-01
     -1.269  0.7095E-01  0.3168E-01
     -1.224  0.7272E-01  0.3498E-01
     -1.179  0.7051E-01  0.3817E-01
     -1.133  0.6467E-01  0.4110E-01
     -1.088  0.5733E-01  0.4370E-01
     -1.043  0.5166E-01  0.4604E-01
     -0.997  0.5051E-01  0.4833E-01
     -0.952  0.5524E-01  0.5084E-01
     -0.907  0.6530E-01  0.5380E-01
     -0.861  0.7871E-01  0.5736E-01
     -0.816  0.9275E-01  0.6157E-01
     -0.771  0.1045E+00  0.6630E-01
     -0.725  0.1113E+00  0.7135E-01
     -0.680  0.1110E+00  0.7638E-01
     -0.635  0.1033E+00  0.8106E-01
     -0.589  0.9041E-01  0.8516E-01
     -0.544  0.7655E-01  0.8863E-01
     -0.499  0.6676E-01  0.9165E-01
     -0.453  0.6472E-01  0.9459E-01
     -0.408  0.7134E-01  0.9782E-01
     -0.363  0.8458E-01  0.1017E+00
     -0.317  0.1005E+00  0.1062E+00
     -0.272  0.1147E+00  0.1114E+00
     -0.227  0.1238E+00  0.1170E+00
     -0.181  0.1264E+00  0.1227E+00
     -0.136  0.1236E+00  0.1283E+00
     -0.091  0.1179E+00  0.1337E+00
     -0.045  0.1131E+00  0.1388E+00
     -0.000  0.1118E+00  0.1439E+00
      0.045  0.1149E+00  0.1491E+00
      0.090  0.1211E+00  0.1546E+00
      0.136  0.1284E+00  0.1604E+00
      0.181  0.1345E+00  0.1665E+00
      0.226  0.1386E+00  0.1728E+00
      0.272  0.1403E+00  0.1791E+00
      0.317  0.1397E+00  0.1855E+00
      0.362  0.1370E+00  0.1917E+00
      0.408  0.1323E+00  0.1977E+00
      0.453  0.1267E+00  0.2034E+00
      0.498  0.1223E+00  0.2090E+00
      0.544  0.1221E+00  0.2145E+00
      0.589  0.1292E+00  0.2203E+00
      0.634  0.1446E+00  0.2269E+00
      0.680  0.1664E+00  0.2344E+00
      0.725  0.1888E+00  0.2430E+00
      0.770  0.2054E+00  0.2523E+00
      0.816  0.2121E+00  0.2619E+00
      0.861  0.2094E+00  0.2714E+00
      0.906  0.2021E+00  0.2806E+00
      0.952  0.1949E+00  0.2894E+00
      0.997  0.1896E+00  0.2980E+00
      1.042  0.1841E+00  0.3063E+00
      1.088  0.1764E+00  0.3143E+00
      1.133  0.1678E+00  0.3219E+00
      1.178  0.1648E+00  0.3294E+00
      1.224  0.1750E+00  0.3373E+00
      1.269  0.2020E+00  0.3465E+00
      1.314  0.2422E+00  0.3575E+00
      1.360  0.2851E+00  0.3704E+00
      1.405  0.3179E+00  0.3848E+00
      1.450  0.3309E+00  0.3998E+00
      1.495  0.3223E+00  0.4144E+00
      1.541  0.2990E+00  0.4280E+00
      1.586  0.2754E+00  0.4405E+00
      1.631  0.2681E+00  0.4526E+00
      1.677  0.2906E+00  0.4658E+00
      1.722  0.3493E+00  0.4816E+00
      1.767  0.4409E+00  0.5016E+00
      1.813  0.5546E+00  0.5267E+00
      1.858  0.6767E+00  0.5574E+00
      1.903  0.7942E+00  0.5934E+00
      1.949  0.8971E+00  0.6341E+00
      1.994  0.9776E+00  0.6784E+00
      2.039  0.1030E+01  0.7250E+00
      2.085  0.1051E+01  0.7727E+00
      2.130  0.1047E+01  0.8201E+00
      2.175  0.1028E+01  0.8667E+00
      2.221  0.1010E+01  0.9125E+00
      2.266  0.1008E+01  0.9582E+00
      2.311  0.1026E+01  0.1005E+01
      2.357  0.1058E+01  0.1053E+01
      2.402  0.1092E+01  0.1102E+01
      2.447  0.1122E+01  0.1153E+01
      2.493  0.1148E+01  0.1205E+01
      2.538  0.1179E+01  0.1258E+01
      2.583  0.1225E+01  0.1314E+01
      2.629  0.1286E+01  0.1372E+01
      2.674  0.1353E+01  0.1434E+01
      2.719  0.1413E+01  0.1498E+01
      2.765  0.1460E+01  0.1564E+01
      2.810  0.1497E+01  0.1632E+01
      2.855  0.1534E+01  0.1701E+01
      2.901  0.1576E+01  0.1773E+01
      2.946  0.1619E+01  0.1846E+01
      2.991  0.1654E+01  0.1921E+01
      3.036  0.1672E+01  0.1997E+01
      3.082  0.1668E+01  0.2072E+01
      3.127  0.1646E+01  0.2147E+01
      3.172  0.1612E+01  0.2220E+01
      3.218  0.1574E+01  0.2291E+01
      3.263  0.1537E+01  0.2361E+01
      3.308  0.1509E+01  0.2429E+01
      3.354  0.1493E+01  0.2497E+01
      3.399  0.1492E+01  0.2565E+01
      3.444  0.1500E+01  0.2633E+01
      3.490  0.1508E+01  0.2701E+01
      3.535  0.1504E+01  0.2769E+01
      3.580  0.1483E+01  0.2836E+01
      3.626  0.1447E+01  0.2902E+01
      3.671  0.1406E+01  0.2966E+01
      3.716  0.1371E+01  0.3028E+01
      3.762  0.1351E+01  0.3089E+01
      3.807  0.1345E+01  0.3150E+01
      3.852  0.1344E+01  0.3211E+01
      3.898  0.1335E+01  0.3271E+01
      3.943  0.1311E+01  0.3331E+01
      3.988  0.1279E+01  0.3389E+01
      4.034  0.1257E+01  0.3446E+01
      4.079  0.1263E+01  0.3503E+01
      4.124  0.1304E+01  0.3562E+01
      4.170  0.1375E+01  0.3624E+01
      4.215  0.1459E+01  0.3690E+01
      4.260  0.1547E+01  0.3761E+01
      4.306  0.1634E+01  0.3835E+01
      4.351  0.1718E+01  0.3913E+01
      4.396  0.1791E+01  0.3994E+01
      4.441  0.1838E+01  0.4077E+01
      4.487  0.1847E+01  0.4161E+01
      4.532  0.1819E+01  0.4243E+01
      4.577  0.1770E+01  0.4323E+01
      4.623  0.1728E+01  0.4402E+01
      4.668  0.1721E+01  0.4480E+01
      4.713  0.1766E+01  0.4560E+01
      4.759  0.1862E+01  0.4644E+01
      4.804  0.1989E+01  0.4734E+01
      4.849  0.2117E+01  0.4830E+01
      4.895  0.2218E+01  0.4931E+01
      4.940  0.2274E+01  0.5034E+01
      4.985  0.2288E+01  0.5137E+01
      5.031  0.2273E+01  0.5240E+01
      5.076  0.2251E+01  0.5342E+01
      5.121  0.2242E+01  0.5444E+01
      5.167  0.2261E+01  0.5547E+01
      5.212  0.2312E+01  0.5651E+01
      5.257  0.2392E+01  0.5760E+01
      5.303  0.2486E+01  0.5872E+01
      5.348  0.2564E+01  0.5989E+01
      5.393  0.2593E+01  0.6106E+01
      5.439  0.2549E+01  0.6222E+01
      5.484  0.2426E+01  0.6332E+01
      5.529  0.2250E+01  0.6434E+01
      5.575  0.2058E+01  0.6527E+01
      5.620  0.1890E+01  0.6613E+01
      5.665  0.1763E+01  0.6692E+01
      5.711  0.1674E+01  0.6768E+01
      5.756  0.1604E+01  0.6841E+01
      5.801  0.1538E+01  0.6911E+01
      5.846  0.1476E+01  0.6978E+01
      5.892  0.1429E+01  0.7042E+01
      5.937  0.1415E+01  0.7107E+01
      5.982  0.1445E+01  0.7172E+01
      6.028  0.1515E+01  0.7241E+01
      6.073  0.1610E+01  0.7314E+01
      6.118  0.1709E+01  0.7391E+01
      6.164  0.1795E+01  0.7473E+01
      6.209  0.1862E+01  0.7557E+01
      6.254  0.1919E+01  0.7644E+01
      6.300  0.1973E+01  0.7733E+01
      6.345  0.2028E+01  0.7825E+01
      6.390  0.2074E+01  0.7919E+01
      6.436  0.2101E+01  0.8014E+01
      6.481  0.2103E+01  0.8110E+01
      6.526  0.2088E+01  0.8204E+01
      6.572  0.2069E+01  0.8298E+01
      6.617  0.2049E+01  0.8391E+01
      6.662  0.2021E+01  0.8483E+01
      6.708  0.1969E+01  0.8572E+01
      6.753  0.1887E+01  0.8657E+01
      6.798  0.1788E+01  0.8739E+01
      6.844  0.1703E+01  0.8816E+01
      6.889  0.1660E+01  0.8891E+01
      6.934  0.1669E+01  0.8967E+01
      6.980  0.1714E+01  0.9044E+01
      7.025  0.1769E+01  0.9124E+01
      7.070  0.1811E+01  0.9207E+01
      7.116  0.1835E+01  0.9290E+01
      7.161  0.1851E+01  0.9374E+01
      7.206  0.1874E+01  0.9459E+01
      7.252  0.1917E+01  0.9545E+01
      7.297  0.1986E+01  0.9635E+01
      7.342  0.2075E+01  0.9730E+01
      7.387  0.2166E+01  0.9828E+01
      7.433  0.2222E+01  0.9928E+01
      7.478  0.2193E+01  0.1003E+02
      7.523  0.2039E+01  0.1012E+02
      7.569  0.1745E+01  0.1020E+02
      7.614  0.1343E+01  0.1026E+02
      7.659  0.9012E+00  0.1030E+02
      7.705  0.4994E+00  0.1032E+02
      7.750  0.1968E+00  0.1033E+02
      7.795  0.1337E-01  0.1033E+02
      7.841 -0.6725E-01  0.1033E+02
      7.886 -0.8099E-01  0.1033E+02
      7.931 -0.6377E-01  0.1032E+02
      7.977 -0.4009E-01  0.1032E+02
      8.022 -0.2133E-01  0.1032E+02
      8.067 -0.9851E-02  0.1032E+02
      8.113 -0.3999E-02  0.1032E+02
      8.158 -0.1437E-02  0.1032E+02
      8.203 -0.4599E-03  0.1032E+02
      8.249 -0.1313E-03  0.1032E+02
      8.294 -0.3356E-04  0.1032E+02
      8.339 -0.7687E-05  0.1032E+02
      8.385 -0.1580E-05  0.1032E+02
      8.430 -0.2916E-06  0.1032E+02
      8.475 -0.4839E-07  0.1032E+02
      8.521 -0.7221E-08  0.1032E+02
      8.566 -0.9698E-09  0.1032E+02
      8.611 -0.1172E-09  0.1032E+02
      8.657 -0.1277E-10  0.1032E+02
      8.702 -0.1252E-11  0.1032E+02
      8.747 -0.1106E-12  0.1032E+02
      8.792 -0.8770E-14  0.1032E+02
      8.838 -0.6798E-15  0.1032E+02
      8.883  0.0000E+00  0.1032E+02
      8.928  0.0000E+00  0.1032E+02
      8.974  0.0000E+00  0.1032E+02
      9.019  0.0000E+00  0.1032E+02
      9.064  0.0000E+00  0.1032E+02
      9.110  0.0000E+00  0.1032E+02
      9.155  0.0000E+00  0.1032E+02
      9.200  0.0000E+00  0.1032E+02
      9.246  0.0000E+00  0.1032E+02
      9.291  0.0000E+00  0.1032E+02
      9.336  0.0000E+00  0.1032E+02
      9.382  0.0000E+00  0.1032E+02
      9.427  0.0000E+00  0.1032E+02
      9.472  0.0000E+00  0.1032E+02
      9.518  0.0000E+00  0.1032E+02
      9.563  0.0000E+00  0.1032E+02
      9.608  0.0000E+00  0.1032E+02
