       N       E                     dE             d eps       ncg     rms          rms(c)
DAV:   1     0.746050378797E+04    0.74605E+04   -0.28668E+05 33072   0.182E+03
DAV:   2    -0.417216630434E+02   -0.75022E+04   -0.73281E+04 33024   0.453E+02
DAV:   3    -0.846812718071E+03   -0.80509E+03   -0.68784E+03 33180   0.189E+02
DAV:   4    -0.101841722409E+04   -0.17160E+03   -0.16086E+03 60144   0.563E+01
DAV:   5    -0.103270298207E+04   -0.14286E+02   -0.13504E+02 52668   0.212E+01    0.931E+01
RMM:   6    -0.887201620514E+03    0.14550E+03   -0.14287E+03 33024   0.112E+02    0.445E+01
RMM:   7    -0.118236796478E+04   -0.29517E+03   -0.37598E+02 44109   0.283E+01    0.179E+02
RMM:   8    -0.877241715710E+03    0.30513E+03   -0.22297E+02 33024   0.422E+01    0.431E+01
RMM:   9    -0.869690888834E+03    0.75508E+01   -0.67825E+01 36301   0.164E+01    0.164E+01
RMM:  10    -0.873179913629E+03   -0.34890E+01   -0.37944E+01 47432   0.754E+00    0.245E+01
RMM:  11    -0.870900758649E+03    0.22792E+01   -0.10637E+01 36843   0.631E+00    0.150E+01
RMM:  12    -0.870674897578E+03    0.22586E+00   -0.54882E+00 48057   0.279E+00    0.148E+01
RMM:  13    -0.869403337305E+03    0.12716E+01   -0.28226E+00 34288   0.402E+00    0.781E+00
RMM:  14    -0.869445174224E+03   -0.41837E-01   -0.22666E+00 46606   0.157E+00    0.826E+00
RMM:  15    -0.869325237366E+03    0.11994E+00   -0.56749E-01 38480   0.134E+00    0.811E+00
RMM:  16    -0.869172885129E+03    0.15235E+00   -0.29412E-01 35467   0.113E+00    0.665E+00
RMM:  17    -0.869064864932E+03    0.10802E+00   -0.35065E-01 33951   0.133E+00    0.482E+00
RMM:  18    -0.868957385500E+03    0.10748E+00   -0.28930E-01 35956   0.112E+00    0.911E-01
RMM:  19    -0.868969972935E+03   -0.12587E-01   -0.16893E-01 49238   0.378E-01    0.936E-01
RMM:  20    -0.868975706181E+03   -0.57332E-02   -0.52669E-02 41918   0.320E-01    0.146E+00
RMM:  21    -0.868973119211E+03    0.25870E-02   -0.17392E-02 40992   0.203E-01    0.130E+00
RMM:  22    -0.868971621396E+03    0.14978E-02   -0.85325E-03 40120   0.158E-01    0.120E+00
RMM:  23    -0.868966773138E+03    0.48483E-02   -0.95721E-03 33694   0.240E-01    0.669E-01
RMM:  24    -0.868966420524E+03    0.35261E-03   -0.54606E-03 47055   0.927E-02    0.560E-01
RMM:  25    -0.868965007318E+03    0.14132E-02   -0.24812E-03 38180   0.899E-02    0.201E-01
RMM:  26    -0.868965000058E+03    0.72606E-05   -0.12706E-03 48567   0.347E-02    0.118E-01
RMM:  27    -0.868964969404E+03    0.30653E-04   -0.29945E-04 43815   0.226E-02    0.900E-02
RMM:  28    -0.868964917013E+03    0.52391E-04   -0.12264E-04 40901   0.197E-02    0.363E-02
RMM:  29    -0.868964912920E+03    0.40933E-05   -0.30997E-05 46911   0.108E-02    0.398E-02
RMM:  30    -0.868964887426E+03    0.25493E-04    0.22669E-05 33751   0.106E-02    0.196E-02
RMM:  31    -0.868964881290E+03    0.61367E-05    0.32331E-05 28293   0.474E-03    0.107E-02
RMM:  32    -0.868964878021E+03    0.32685E-05    0.30419E-05 23004   0.418E-03    0.136E-02
RMM:  33    -0.868964874079E+03    0.39426E-05    0.30194E-05 19625   0.412E-03    0.387E-03
RMM:  34    -0.868964871343E+03    0.27357E-05    0.27789E-05 18855   0.134E-03    0.341E-03
RMM:  35    -0.868964869730E+03    0.16130E-05    0.26350E-05 18597   0.163E-03    0.368E-03
RMM:  36    -0.868964867792E+03    0.19382E-05    0.23691E-05 18467   0.120E-03    0.190E-03
RMM:  37    -0.868964866138E+03    0.16540E-05    0.22230E-05 17765   0.840E-04    0.186E-03
RMM:  38    -0.868964864335E+03    0.18033E-05    0.19953E-05 17567   0.812E-04    0.590E-04
RMM:  39    -0.868964862487E+03    0.18471E-05    0.18602E-05 10068   0.471E-04    0.790E-04
RMM:  40    -0.868964860835E+03    0.16525E-05    0.16706E-05  9950   0.506E-04    0.376E-04
RMM:  41    -0.868964859264E+03    0.15712E-05    0.15484E-05  7049   0.373E-04    0.232E-04
RMM:  42    -0.868964857822E+03    0.14420E-05    0.14078E-05  7231   0.415E-04    0.292E-04
RMM:  43    -0.868964856477E+03    0.13446E-05    0.13182E-05  6777   0.362E-04    0.937E-05
RMM:  44    -0.868964855304E+03    0.11730E-05    0.11500E-05  6641   0.376E-04    0.138E-04
RMM:  45    -0.868964854203E+03    0.11015E-05    0.10752E-05  6421   0.346E-04    0.578E-05
RMM:  46    -0.868964853242E+03    0.96048E-06    0.94813E-06  6299   0.350E-04
   1 F= -.86896485E+03 E0= -.86894396E+03  d E =-.868965E+03
       N       E                     dE             d eps       ncg     rms          rms(c)
DAV:   1    -0.869004233543E+03   -0.39379E-01   -0.11135E+01 34560   0.471E+00    0.112E+00
RMM:   2    -0.869849588727E+03   -0.84536E+00   -0.19209E+00 36902   0.281E+00    0.128E+01
RMM:   3    -0.869030209004E+03    0.81938E+00   -0.48700E-01 33024   0.197E+00    0.182E+00
RMM:   4    -0.869010235019E+03    0.19974E-01   -0.17690E-01 43258   0.461E-01    0.649E-01
RMM:   5    -0.869016864265E+03   -0.66292E-02   -0.60292E-02 44833   0.290E-01    0.110E+00
RMM:   6    -0.869010975463E+03    0.58888E-02   -0.18511E-02 36463   0.250E-01    0.330E-01
RMM:   7    -0.869014418913E+03   -0.34434E-02   -0.17873E-02 38354   0.241E-01    0.900E-01
RMM:   8    -0.869010225771E+03    0.41931E-02   -0.56299E-03 33109   0.192E-01    0.246E-01
RMM:   9    -0.869010443625E+03   -0.21785E-03   -0.35279E-03 42189   0.907E-02    0.290E-01
RMM:  10    -0.869010061784E+03    0.38184E-03   -0.94591E-04 35990   0.637E-02    0.799E-02
RMM:  11    -0.869010080745E+03   -0.18962E-04   -0.55691E-04 48867   0.226E-02    0.650E-02
RMM:  12    -0.869010088691E+03   -0.79461E-05   -0.95659E-05 37545   0.185E-02    0.764E-02
RMM:  13    -0.869010060313E+03    0.28378E-04   -0.44104E-05 33837   0.169E-02    0.191E-02
RMM:  14    -0.869010069364E+03   -0.90514E-05   -0.50297E-05 41035   0.118E-02    0.432E-02
RMM:  15    -0.869010061990E+03    0.73742E-05   -0.13482E-05 33398   0.923E-03    0.183E-02
RMM:  16    -0.869010061182E+03    0.80814E-06   -0.44305E-06 28242   0.376E-03
   2 F= -.86901006E+03 E0= -.86898926E+03  d E =-.452079E-01
       N       E                     dE             d eps       ncg     rms          rms(c)
DAV:   1    -0.869018896173E+03   -0.88342E-02   -0.12925E+01 33096   0.507E+00    0.121E+00
RMM:   2    -0.870004406409E+03   -0.98551E+00   -0.22523E+00 36863   0.305E+00    0.138E+01
RMM:   3    -0.869048438986E+03    0.95597E+00   -0.57082E-01 33024   0.214E+00    0.196E+00
RMM:   4    -0.869025830346E+03    0.22609E-01   -0.20507E-01 43427   0.492E-01    0.706E-01
RMM:   5    -0.869033353146E+03   -0.75228E-02   -0.69390E-02 44758   0.311E-01    0.118E+00
RMM:   6    -0.869026648319E+03    0.67048E-02   -0.21458E-02 36490   0.268E-01    0.350E-01
RMM:   7    -0.869030623574E+03   -0.39753E-02   -0.20138E-02 38244   0.258E-01    0.979E-01
RMM:   8    -0.869025744179E+03    0.48794E-02   -0.65217E-03 33096   0.208E-01    0.254E-01
RMM:   9    -0.869026087492E+03   -0.34331E-03   -0.43213E-03 42218   0.100E-01    0.329E-01
RMM:  10    -0.869025579003E+03    0.50849E-03   -0.11152E-03 35608   0.713E-02    0.811E-02
RMM:  11    -0.869025611294E+03   -0.32291E-04   -0.69627E-04 49116   0.241E-02    0.736E-02
RMM:  12    -0.869025619595E+03   -0.83008E-05   -0.11215E-04 37608   0.197E-02    0.846E-02
RMM:  13    -0.869025586076E+03    0.33519E-04   -0.51963E-05 33880   0.179E-02    0.220E-02
RMM:  14    -0.869025598528E+03   -0.12452E-04   -0.68220E-05 41046   0.136E-02    0.495E-02
RMM:  15    -0.869025587512E+03    0.11016E-04   -0.20716E-05 33607   0.111E-02    0.173E-02
RMM:  16    -0.869025587801E+03   -0.28900E-06   -0.10340E-05 33072   0.393E-03    0.160E-02
RMM:  17    -0.869025586849E+03    0.95139E-06   -0.18254E-06 20761   0.361E-03
   3 F= -.86902559E+03 E0= -.86900503E+03  d E =-.607336E-01
       N       E                     dE             d eps       ncg     rms          rms(c)
DAV:   1    -0.869025606961E+03   -0.19160E-04   -0.28383E-02 36000   0.237E-01    0.555E-02
RMM:   2    -0.869027726182E+03   -0.21192E-02   -0.50193E-03 37090   0.140E-01    0.638E-01
RMM:   3    -0.869025661313E+03    0.20649E-02   -0.12463E-03 33024   0.987E-02    0.841E-02
RMM:   4    -0.869025621136E+03    0.40177E-04   -0.48378E-04 44139   0.223E-02    0.319E-02
RMM:   5    -0.869025637003E+03   -0.15867E-04   -0.15690E-04 44254   0.144E-02    0.530E-02
RMM:   6    -0.869025623375E+03    0.13628E-04   -0.44530E-05 36354   0.125E-02    0.178E-02
RMM:   7    -0.869025631293E+03   -0.79181E-05   -0.43470E-05 38718   0.119E-02    0.439E-02
RMM:   8    -0.869025620909E+03    0.10384E-04   -0.13528E-05 32648   0.959E-03    0.102E-02
RMM:   9    -0.869025622019E+03   -0.11097E-05   -0.72015E-06 29275   0.437E-03    0.171E-02
RMM:  10    -0.869025620770E+03    0.12490E-05   -0.19159E-06 19224   0.377E-03    0.595E-03
RMM:  11    -0.869025620645E+03    0.12483E-06   -0.90784E-07 17938   0.201E-03
   4 F= -.86902562E+03 E0= -.86900505E+03  d E =-.607674E-01
       N       E                     dE             d eps       ncg     rms          rms(c)
DAV:   1    -0.869029156122E+03   -0.35354E-02   -0.15078E+00 33240   0.173E+00    0.352E-01
RMM:   2    -0.869106352148E+03   -0.77196E-01   -0.18152E-01 36750   0.886E-01    0.379E+00
RMM:   3    -0.869032428836E+03    0.73923E-01   -0.41914E-02 33024   0.588E-01    0.602E-01
RMM:   4    -0.869030229856E+03    0.21990E-02   -0.15084E-02 42266   0.151E-01    0.203E-01
RMM:   5    -0.869031030961E+03   -0.80110E-03   -0.67150E-03 44248   0.106E-01    0.414E-01
RMM:   6    -0.869030211207E+03    0.81975E-03   -0.20435E-03 35936   0.870E-02    0.115E-01
RMM:   7    -0.869030650829E+03   -0.43962E-03   -0.25759E-03 39440   0.869E-02    0.313E-01
RMM:   8    -0.869030108806E+03    0.54202E-03   -0.72655E-04 33141   0.679E-02    0.643E-02
RMM:   9    -0.869030161315E+03   -0.52508E-04   -0.49069E-04 43457   0.305E-02    0.104E-01
RMM:  10    -0.869030112281E+03    0.49034E-04   -0.11086E-04 35864   0.218E-02    0.313E-02
RMM:  11    -0.869030114958E+03   -0.26768E-05   -0.73201E-05 46658   0.865E-03    0.283E-02
RMM:  12    -0.869030114058E+03    0.89958E-06   -0.11953E-05 33122   0.649E-03    0.261E-02
RMM:  13    -0.869030110830E+03    0.32281E-05   -0.51385E-06 26337   0.553E-03    0.711E-03
RMM:  14    -0.869030111218E+03   -0.38789E-06   -0.30108E-06 21193   0.336E-03
   5 F= -.86903011E+03 E0= -.86900939E+03  d E =-.449057E-02
       N       E                     dE             d eps       ncg     rms          rms(c)
DAV:   1    -0.869030426850E+03   -0.31602E-03   -0.12900E+00 33024   0.160E+00    0.326E-01
RMM:   2    -0.869096644753E+03   -0.66218E-01   -0.15551E-01 36728   0.822E-01    0.351E+00
RMM:   3    -0.869033271589E+03    0.63373E-01   -0.35926E-02 33024   0.544E-01    0.561E-01
RMM:   4    -0.869031345509E+03    0.19261E-02   -0.12878E-02 42179   0.140E-01    0.189E-01
RMM:   5    -0.869032036620E+03   -0.69111E-03   -0.57836E-03 44393   0.980E-02    0.385E-01
RMM:   6    -0.869031331664E+03    0.70496E-03   -0.17516E-03 35948   0.804E-02    0.107E-01
RMM:   7    -0.869031703368E+03   -0.37170E-03   -0.22018E-03 39536   0.803E-02    0.288E-01
RMM:   8    -0.869031243532E+03    0.45984E-03   -0.62061E-04 33147   0.627E-02    0.600E-02
RMM:   9    -0.869031288701E+03   -0.45169E-04   -0.41975E-04 43444   0.283E-02    0.971E-02
RMM:  10    -0.869031246060E+03    0.42641E-04   -0.95249E-05 35803   0.203E-02    0.292E-02
RMM:  11    -0.869031248228E+03   -0.21681E-05   -0.62970E-05 46041   0.806E-03    0.258E-02
RMM:  12    -0.869031247710E+03    0.51760E-06   -0.10299E-05 31723   0.604E-03    0.246E-02
RMM:  13    -0.869031244808E+03    0.29026E-05   -0.44005E-06 24759   0.533E-03    0.647E-03
RMM:  14    -0.869031245261E+03   -0.45356E-06   -0.27807E-06 20542   0.339E-03
   6 F= -.86903125E+03 E0= -.86901041E+03  d E =-.562462E-02
       N       E                     dE             d eps       ncg     rms          rms(c)
DAV:   1    -0.869031251291E+03   -0.64833E-05   -0.12632E-02 34392   0.159E-01    0.325E-02
RMM:   2    -0.869031924482E+03   -0.67319E-03   -0.15368E-03 36531   0.821E-02    0.354E-01
RMM:   3    -0.869031280623E+03    0.64386E-03   -0.35643E-04 33024   0.542E-02    0.550E-02
RMM:   4    -0.869031260905E+03    0.19718E-04   -0.12698E-04 41661   0.140E-02    0.188E-02
RMM:   5    -0.869031268245E+03   -0.73406E-05   -0.55516E-05 43675   0.983E-03    0.390E-02
RMM:   6    -0.869031261010E+03    0.72352E-05   -0.17125E-05 33691   0.795E-03    0.101E-02
RMM:   7    -0.869031264947E+03   -0.39371E-05   -0.21043E-05 37783   0.810E-03    0.292E-02
RMM:   8    -0.869031260366E+03    0.45808E-05   -0.61131E-06 27259   0.652E-03    0.595E-03
RMM:   9    -0.869031260622E+03   -0.25574E-06   -0.19088E-06 19519   0.245E-03
   7 F= -.86903126E+03 E0= -.86901043E+03  d E =-.563998E-02
       N       E                     dE             d eps       ncg     rms          rms(c)
DAV:   1    -0.869031612947E+03   -0.35258E-03   -0.26622E-01 33600   0.725E-01    0.127E-01
RMM:   2    -0.869039530474E+03   -0.79175E-02   -0.21073E-02 36045   0.327E-01    0.121E+00
RMM:   3    -0.869032183328E+03    0.73471E-02   -0.47454E-03 33024   0.201E-01    0.235E-01
RMM:   4    -0.869031864859E+03    0.31847E-03   -0.15184E-03 41755   0.550E-02    0.762E-02
RMM:   5    -0.869031984668E+03   -0.11981E-03   -0.84905E-04 43350   0.415E-02    0.167E-01
RMM:   6    -0.869031845349E+03    0.13932E-03   -0.29384E-04 34742   0.361E-02    0.470E-02
RMM:   7    -0.869031933048E+03   -0.87699E-04   -0.43968E-04 39519   0.359E-02    0.138E-01
RMM:   8    -0.869031831499E+03    0.10155E-03   -0.11680E-04 33107   0.277E-02    0.238E-02
RMM:   9    -0.869031836695E+03   -0.51960E-05   -0.67875E-05 46078   0.924E-03    0.324E-02
RMM:  10    -0.869031832835E+03    0.38599E-05   -0.14440E-05 34418   0.648E-03    0.124E-02
RMM:  11    -0.869031832531E+03    0.30403E-06   -0.35462E-06 24071   0.314E-03
   8 F= -.86903183E+03 E0= -.86901103E+03  d E =-.571909E-03
