<?xml version="1.0" encoding="ISO-8859-1"?>
<modeling>
 <generator>
  <i name="program" type="string">vasp </i>
  <i name="version" type="string">5.4.4.18Apr17-6-g9f103f2a35  </i>
  <i name="subversion" type="string">(build Aug 17 2017 06:00:38) complex            parallel </i>
  <i name="platform" type="string">LinuxIFC </i>
  <i name="date" type="string">2019 07 13 </i>
  <i name="time" type="string">00:27:49 </i>
 </generator>
 <incar>
  <i type="string" name="SYSTEM">Opt</i>
  <i type="int" name="ISTART">     0</i>
  <i type="string" name="PREC">normal</i>
  <i type="string" name="ALGO"> Fast</i>
  <i type="int" name="ISPIN">     1</i>
  <i type="int" name="ICHARG">     2</i>
  <i type="int" name="NELM">   400</i>
  <i type="int" name="IBRION">     2</i>
  <i name="EDIFF">      0.00000100</i>
  <i name="EDIFFG">     -0.01000000</i>
  <i type="int" name="NSW">   100</i>
  <i type="int" name="ISIF">     2</i>
  <i type="int" name="ISYM">     0</i>
  <i name="ENCUT">    400.00000000</i>
  <i type="int" name="NGX">    72</i>
  <i type="int" name="NGY">    72</i>
  <i type="int" name="NGZ">    72</i>
  <i name="POTIM">      0.50000000</i>
  <i type="string" name="LREAL">Auto</i>
  <i type="logical" name="LWAVE"> F  </i>
  <i type="logical" name="LCHARG"> F  </i>
  <v type="int" name="KPOINT_BSE">    -1     0     0     0</v>
  <i type="int" name="NELM">   400</i>
 </incar>
 <structure name="primitive_cell" >
  <crystal>
   <varray name="basis" >
    <v>      10.33484705       0.00000000       0.00000000 </v>
    <v>       0.00000000      10.33484705       0.00000000 </v>
    <v>       0.00000000       0.00000000      10.33484705 </v>
   </varray>
   <i name="volume">   1103.85533447 </i>
   <varray name="rec_basis" >
    <v>       0.09676002       0.00000000       0.00000000 </v>
    <v>       0.00000000       0.09676002       0.00000000 </v>
    <v>       0.00000000       0.00000000       0.09676002 </v>
   </varray>
  </crystal>
  <varray name="positions" >
   <v>       0.00000000       0.00000000       0.00000000 </v>
   <v>       0.00000000       0.16666893       0.16666893 </v>
   <v>       0.16666893       0.00000000       0.16666893 </v>
   <v>       0.16666893       0.16666893       0.00000000 </v>
   <v>       0.00000000      -0.16666896       0.16666893 </v>
   <v>       0.00000000       0.16666893      -0.16666896 </v>
   <v>       0.16666893      -0.16666896       0.00000000 </v>
   <v>       0.16666893       0.00000000      -0.16666896 </v>
   <v>      -0.16666896       0.00000000       0.16666893 </v>
   <v>      -0.16666896       0.16666893       0.00000000 </v>
   <v>       0.00000000      -0.16666896      -0.16666896 </v>
   <v>      -0.16666896      -0.16666896       0.00000000 </v>
   <v>      -0.16666896       0.00000000      -0.16666896 </v>
   <v>       0.00000000      -0.33333103       0.00000000 </v>
   <v>       0.00000000       0.00000000      -0.33333103 </v>
   <v>      -0.33333103       0.00000000       0.00000000 </v>
   <v>       0.00000000       0.33333106       0.00000000 </v>
   <v>       0.00000000       0.00000000       0.33333106 </v>
   <v>       0.33333106       0.00000000       0.00000000 </v>
   <v>       0.16666893      -0.33333104       0.16666893 </v>
   <v>       0.16666893       0.16666893      -0.33333104 </v>
   <v>      -0.33333104       0.16666893       0.16666893 </v>
   <v>       0.16666893      -0.33333104      -0.16666896 </v>
   <v>       0.16666893      -0.16666896      -0.33333104 </v>
   <v>      -0.33333104      -0.16666896       0.16666893 </v>
   <v>      -0.33333104       0.16666893      -0.16666896 </v>
   <v>      -0.16666896      -0.33333104       0.16666893 </v>
   <v>      -0.16666896       0.16666893      -0.33333104 </v>
   <v>       0.16666893       0.33333107       0.16666893 </v>
   <v>       0.16666893       0.16666893       0.33333107 </v>
   <v>       0.33333107       0.16666893       0.16666893 </v>
   <v>      -0.33333104      -0.16666896      -0.16666896 </v>
   <v>      -0.16666896      -0.33333104      -0.16666896 </v>
   <v>      -0.16666896      -0.16666896      -0.33333104 </v>
   <v>       0.16666893      -0.16666896       0.33333107 </v>
   <v>       0.16666893       0.33333107      -0.16666896 </v>
   <v>       0.33333107      -0.16666896       0.16666893 </v>
   <v>       0.33333107       0.16666893      -0.16666896 </v>
   <v>      -0.16666896       0.33333107       0.16666893 </v>
   <v>      -0.16666896       0.16666893       0.33333107 </v>
   <v>       0.33333107      -0.16666896      -0.16666896 </v>
   <v>      -0.16666896      -0.16666896       0.33333107 </v>
   <v>      -0.16666896       0.33333107      -0.16666896 </v>
   <v>       0.00000000      -0.33333104      -0.33333104 </v>
   <v>      -0.33333104      -0.33333104       0.00000000 </v>
   <v>      -0.33333104       0.00000000      -0.33333104 </v>
   <v>       0.00000000      -0.33333104       0.33333107 </v>
   <v>       0.00000000       0.33333107      -0.33333104 </v>
   <v>       0.33333107      -0.33333104       0.00000000 </v>
   <v>       0.33333107       0.00000000      -0.33333104 </v>
   <v>      -0.33333104       0.33333107       0.00000000 </v>
   <v>      -0.33333104       0.00000000       0.33333107 </v>
   <v>       0.00000000       0.33333107       0.33333107 </v>
   <v>       0.33333107       0.33333107       0.00000000 </v>
   <v>       0.33333107       0.00000000       0.33333107 </v>
   <v>       0.00000000      -0.50000000       0.16666894 </v>
   <v>       0.00000000       0.16666894      -0.50000000 </v>
   <v>       0.16666894      -0.50000000       0.00000000 </v>
   <v>       0.16666894       0.00000000      -0.50000000 </v>
   <v>      -0.50000000       0.00000000       0.16666894 </v>
   <v>      -0.50000000       0.16666894       0.00000000 </v>
   <v>       0.00000000      -0.16666897      -0.50000000 </v>
   <v>       0.00000000      -0.50000000      -0.16666897 </v>
   <v>      -0.50000000      -0.16666897       0.00000000 </v>
   <v>      -0.50000000       0.00000000      -0.16666897 </v>
   <v>      -0.16666897      -0.50000000       0.00000000 </v>
   <v>      -0.16666897       0.00000000      -0.50000000 </v>
   <v>      -0.33333104      -0.33333104      -0.33333104 </v>
   <v>       0.33333107      -0.33333104      -0.33333104 </v>
   <v>      -0.33333104      -0.33333104       0.33333107 </v>
   <v>      -0.33333104       0.33333107      -0.33333104 </v>
   <v>       0.33333107      -0.33333104       0.33333107 </v>
   <v>       0.33333107       0.33333107      -0.33333104 </v>
   <v>      -0.33333104       0.33333107       0.33333107 </v>
   <v>       0.33333107       0.33333107       0.33333107 </v>
   <v>       0.16666893      -0.33333104      -0.50000000 </v>
   <v>       0.16666893      -0.50000000      -0.33333104 </v>
   <v>      -0.50000000      -0.33333104       0.16666893 </v>
   <v>      -0.50000000       0.16666893      -0.33333104 </v>
   <v>      -0.33333104      -0.50000000       0.16666893 </v>
   <v>      -0.33333104       0.16666893      -0.50000000 </v>
   <v>      -0.50000000      -0.33333104      -0.16666896 </v>
   <v>      -0.50000000      -0.16666896      -0.33333104 </v>
   <v>      -0.33333104      -0.16666896      -0.50000000 </v>
   <v>      -0.33333104      -0.50000000      -0.16666896 </v>
   <v>      -0.16666896      -0.33333104      -0.50000000 </v>
   <v>      -0.16666896      -0.50000000      -0.33333104 </v>
   <v>       0.16666893       0.33333107      -0.50000000 </v>
   <v>       0.16666893      -0.50000000       0.33333107 </v>
   <v>       0.33333107      -0.50000000       0.16666893 </v>
   <v>       0.33333107       0.16666893      -0.50000000 </v>
   <v>      -0.50000000       0.33333107       0.16666893 </v>
   <v>      -0.50000000       0.16666893       0.33333107 </v>
   <v>       0.33333107      -0.16666896      -0.50000000 </v>
   <v>       0.33333107      -0.50000000      -0.16666896 </v>
   <v>      -0.50000000      -0.16666896       0.33333107 </v>
   <v>      -0.50000000       0.33333107      -0.16666896 </v>
   <v>      -0.16666896       0.33333107      -0.50000000 </v>
   <v>      -0.16666896      -0.50000000       0.33333107 </v>
   <v>       0.00000000      -0.50000000      -0.50000000 </v>
   <v>      -0.50000000      -0.50000000       0.00000000 </v>
   <v>      -0.50000000       0.00000000      -0.50000000 </v>
   <v>      -0.50000000      -0.33333103      -0.50000000 </v>
   <v>      -0.33333103      -0.50000000      -0.50000000 </v>
   <v>      -0.50000000       0.33333106      -0.50000000 </v>
   <v>      -0.50000000      -0.50000000       0.33333106 </v>
   <v>       0.33333106      -0.50000000      -0.50000000 </v>
  </varray>
 </structure>
 <varray name="primitive_index" >
  <v type="int" >        1 </v>
  <v type="int" >        2 </v>
  <v type="int" >       19 </v>
  <v type="int" >       20 </v>
  <v type="int" >        6 </v>
  <v type="int" >       14 </v>
  <v type="int" >       21 </v>
  <v type="int" >       25 </v>
  <v type="int" >       99 </v>
  <v type="int" >      100 </v>
  <v type="int" >       18 </v>
  <v type="int" >      101 </v>
  <v type="int" >      105 </v>
  <v type="int" >        5 </v>
  <v type="int" >       13 </v>
  <v type="int" >       87 </v>
  <v type="int" >        3 </v>
  <v type="int" >        7 </v>
  <v type="int" >       37 </v>
  <v type="int" >       28 </v>
  <v type="int" >       31 </v>
  <v type="int" >       79 </v>
  <v type="int" >       33 </v>
  <v type="int" >       34 </v>
  <v type="int" >       80 </v>
  <v type="int" >       83 </v>
  <v type="int" >       92 </v>
  <v type="int" >       95 </v>
  <v type="int" >       27 </v>
  <v type="int" >       29 </v>
  <v type="int" >       38 </v>
  <v type="int" >       86 </v>
  <v type="int" >       97 </v>
  <v type="int" >       98 </v>
  <v type="int" >       30 </v>
  <v type="int" >       32 </v>
  <v type="int" >       39 </v>
  <v type="int" >       42 </v>
  <v type="int" >       91 </v>
  <v type="int" >       93 </v>
  <v type="int" >       45 </v>
  <v type="int" >       94 </v>
  <v type="int" >       96 </v>
  <v type="int" >       17 </v>
  <v type="int" >       73 </v>
  <v type="int" >       77 </v>
  <v type="int" >       11 </v>
  <v type="int" >       15 </v>
  <v type="int" >       48 </v>
  <v type="int" >       52 </v>
  <v type="int" >       71 </v>
  <v type="int" >       74 </v>
  <v type="int" >        9 </v>
  <v type="int" >       46 </v>
  <v type="int" >       49 </v>
  <v type="int" >        4 </v>
  <v type="int" >        8 </v>
  <v type="int" >       35 </v>
  <v type="int" >       36 </v>
  <v type="int" >       54 </v>
  <v type="int" >       55 </v>
  <v type="int" >       12 </v>
  <v type="int" >       16 </v>
  <v type="int" >       59 </v>
  <v type="int" >       66 </v>
  <v type="int" >       89 </v>
  <v type="int" >       90 </v>
  <v type="int" >       85 </v>
  <v type="int" >       44 </v>
  <v type="int" >       82 </v>
  <v type="int" >       84 </v>
  <v type="int" >       41 </v>
  <v type="int" >       43 </v>
  <v type="int" >       81 </v>
  <v type="int" >       40 </v>
  <v type="int" >       24 </v>
  <v type="int" >       26 </v>
  <v type="int" >       58 </v>
  <v type="int" >       67 </v>
  <v type="int" >       72 </v>
  <v type="int" >       75 </v>
  <v type="int" >       69 </v>
  <v type="int" >       70 </v>
  <v type="int" >       76 </v>
  <v type="int" >       78 </v>
  <v type="int" >      104 </v>
  <v type="int" >      106 </v>
  <v type="int" >       22 </v>
  <v type="int" >       23 </v>
  <v type="int" >       47 </v>
  <v type="int" >       50 </v>
  <v type="int" >       56 </v>
  <v type="int" >       61 </v>
  <v type="int" >       51 </v>
  <v type="int" >       53 </v>
  <v type="int" >       65 </v>
  <v type="int" >       68 </v>
  <v type="int" >      102 </v>
  <v type="int" >      103 </v>
  <v type="int" >       10 </v>
  <v type="int" >       57 </v>
  <v type="int" >       60 </v>
  <v type="int" >       64 </v>
  <v type="int" >       88 </v>
  <v type="int" >       62 </v>
  <v type="int" >       63 </v>
  <v type="int" >      107 </v>
 </varray>
 <kpoints>
  <generation param="Monkhorst-Pack">
   <v type="int" name="divisions">       4        4        4 </v>
   <v name="usershift">      0.00000000       0.00000000       0.00000000 </v>
   <v name="genvec1">      0.25000000       0.00000000       0.00000000 </v>
   <v name="genvec2">      0.00000000       0.25000000       0.00000000 </v>
   <v name="genvec3">      0.00000000       0.00000000       0.25000000 </v>
   <v name="shift">      0.50000000       0.50000000       0.50000000 </v>
  </generation>
  <varray name="kpointlist" >
   <v>       0.12500000       0.12500000       0.12500000 </v>
   <v>       0.37500000       0.12500000       0.12500000 </v>
   <v>      -0.37500000       0.12500000       0.12500000 </v>
   <v>      -0.12500000       0.12500000       0.12500000 </v>
   <v>       0.12500000       0.37500000       0.12500000 </v>
   <v>       0.37500000       0.37500000       0.12500000 </v>
   <v>      -0.37500000       0.37500000       0.12500000 </v>
   <v>      -0.12500000       0.37500000       0.12500000 </v>
   <v>       0.12500000      -0.37500000       0.12500000 </v>
   <v>       0.37500000      -0.37500000       0.12500000 </v>
   <v>      -0.37500000      -0.37500000       0.12500000 </v>
   <v>      -0.12500000      -0.37500000       0.12500000 </v>
   <v>       0.12500000      -0.12500000       0.12500000 </v>
   <v>       0.37500000      -0.12500000       0.12500000 </v>
   <v>      -0.37500000      -0.12500000       0.12500000 </v>
   <v>      -0.12500000      -0.12500000       0.12500000 </v>
   <v>       0.12500000       0.12500000       0.37500000 </v>
   <v>       0.37500000       0.12500000       0.37500000 </v>
   <v>      -0.37500000       0.12500000       0.37500000 </v>
   <v>      -0.12500000       0.12500000       0.37500000 </v>
   <v>       0.12500000       0.37500000       0.37500000 </v>
   <v>       0.37500000       0.37500000       0.37500000 </v>
   <v>      -0.37500000       0.37500000       0.37500000 </v>
   <v>      -0.12500000       0.37500000       0.37500000 </v>
   <v>       0.12500000      -0.37500000       0.37500000 </v>
   <v>       0.37500000      -0.37500000       0.37500000 </v>
   <v>      -0.37500000      -0.37500000       0.37500000 </v>
   <v>      -0.12500000      -0.37500000       0.37500000 </v>
   <v>       0.12500000      -0.12500000       0.37500000 </v>
   <v>       0.37500000      -0.12500000       0.37500000 </v>
   <v>      -0.37500000      -0.12500000       0.37500000 </v>
   <v>      -0.12500000      -0.12500000       0.37500000 </v>
  </varray>
  <varray name="weights" >
   <v>       0.03125000 </v>
   <v>       0.03125000 </v>
   <v>       0.03125000 </v>
   <v>       0.03125000 </v>
   <v>       0.03125000 </v>
   <v>       0.03125000 </v>
   <v>       0.03125000 </v>
   <v>       0.03125000 </v>
   <v>       0.03125000 </v>
   <v>       0.03125000 </v>
   <v>       0.03125000 </v>
   <v>       0.03125000 </v>
   <v>       0.03125000 </v>
   <v>       0.03125000 </v>
   <v>       0.03125000 </v>
   <v>       0.03125000 </v>
   <v>       0.03125000 </v>
   <v>       0.03125000 </v>
   <v>       0.03125000 </v>
   <v>       0.03125000 </v>
   <v>       0.03125000 </v>
   <v>       0.03125000 </v>
   <v>       0.03125000 </v>
   <v>       0.03125000 </v>
   <v>       0.03125000 </v>
   <v>       0.03125000 </v>
   <v>       0.03125000 </v>
   <v>       0.03125000 </v>
   <v>       0.03125000 </v>
   <v>       0.03125000 </v>
   <v>       0.03125000 </v>
   <v>       0.03125000 </v>
  </varray>
 </kpoints>
 <parameters>
  <separator name="general" >
   <i type="string" name="SYSTEM">Opt</i>
   <i type="logical" name="LCOMPAT"> F  </i>
  </separator>
  <separator name="electronic" >
   <i type="string" name="PREC">normal</i>
   <i name="ENMAX">    400.00000000</i>
   <i name="ENAUG">    511.36800000</i>
   <i name="EDIFF">      0.00000100</i>
   <i type="int" name="IALGO">    68</i>
   <i type="int" name="IWAVPR">    11</i>
   <i type="int" name="NBANDS">   516</i>
   <i name="NELECT">    856.00000000</i>
   <i type="int" name="TURBO">     0</i>
   <i type="int" name="IRESTART">     0</i>
   <i type="int" name="NREBOOT">     0</i>
   <i type="int" name="NMIN">     0</i>
   <i name="EREF">      0.00000000</i>
   <separator name="electronic smearing" >
    <i type="int" name="ISMEAR">     1</i>
    <i name="SIGMA">      0.20000000</i>
    <i name="KSPACING">      0.50000000</i>
    <i type="logical" name="KGAMMA"> T  </i>
   </separator>
   <separator name="electronic projectors" >
    <i type="logical" name="LREAL"> T  </i>
    <v name="ROPT">     -0.00050000</v>
    <i type="int" name="LMAXPAW">  -100</i>
    <i type="int" name="LMAXMIX">     2</i>
    <i type="logical" name="NLSPLINE"> F  </i>
   </separator>
   <separator name="electronic startup" >
    <i type="int" name="ISTART">     0</i>
    <i type="int" name="ICHARG">     2</i>
    <i type="int" name="INIWAV">     1</i>
   </separator>
   <separator name="electronic spin" >
    <i type="int" name="ISPIN">     1</i>
    <i type="logical" name="LNONCOLLINEAR"> F  </i>
    <v name="MAGMOM">      1.00000000      1.00000000      1.00000000      1.00000000      1.00000000      1.00000000      1.00000000      1.00000000      1.00000000      1.00000000      1.00000000      1.00000000      1.00000000      1.00000000      1.00000000      1.00000000      1.00000000      1.00000000      1.00000000      1.00000000
      1.00000000      1.00000000      1.00000000      1.00000000      1.00000000      1.00000000      1.00000000      1.00000000      1.00000000      1.00000000      1.00000000      1.00000000      1.00000000      1.00000000      1.00000000      1.00000000      1.00000000      1.00000000      1.00000000      1.00000000
      1.00000000      1.00000000      1.00000000      1.00000000      1.00000000      1.00000000      1.00000000      1.00000000      1.00000000      1.00000000      1.00000000      1.00000000      1.00000000      1.00000000      1.00000000      1.00000000      1.00000000      1.00000000      1.00000000      1.00000000
      1.00000000      1.00000000      1.00000000      1.00000000      1.00000000      1.00000000      1.00000000      1.00000000      1.00000000      1.00000000      1.00000000      1.00000000      1.00000000      1.00000000      1.00000000      1.00000000      1.00000000      1.00000000      1.00000000      1.00000000
      1.00000000      1.00000000      1.00000000      1.00000000      1.00000000      1.00000000      1.00000000      1.00000000      1.00000000      1.00000000      1.00000000      1.00000000      1.00000000      1.00000000      1.00000000      1.00000000      1.00000000      1.00000000      1.00000000      1.00000000
      1.00000000      1.00000000      1.00000000      1.00000000      1.00000000      1.00000000      1.00000000</v>
    <i name="NUPDOWN">     -1.00000000</i>
    <i type="logical" name="LSORBIT"> F  </i>
    <v name="SAXIS">      0.00000000      0.00000000      1.00000000</v>
    <i type="logical" name="LSPIRAL"> F  </i>
    <v name="QSPIRAL">      0.00000000      0.00000000      0.00000000</v>
    <i type="logical" name="LZEROZ"> F  </i>
   </separator>
   <separator name="electronic exchange-correlation" >
    <i type="logical" name="LASPH"> F  </i>
    <i type="logical" name="LMETAGGA"> F  </i>
   </separator>
   <separator name="electronic convergence" >
    <i type="int" name="NELM">   400</i>
    <i type="int" name="NELMDL">    -5</i>
    <i type="int" name="NELMIN">     2</i>
    <i name="ENINI">    400.00000000</i>
    <separator name="electronic convergence detail" >
     <i type="logical" name="LDIAG"> T  </i>
     <i type="logical" name="LSUBROT"> F  </i>
     <i name="WEIMIN">      0.00100000</i>
     <i name="EBREAK">      0.00000000</i>
     <i name="DEPER">      0.30000000</i>
     <i type="int" name="NRMM">     4</i>
     <i name="TIME">      0.40000000</i>
    </separator>
   </separator>
   <separator name="electronic mixer" >
    <i name="AMIX">      0.40000000</i>
    <i name="BMIX">      1.00000000</i>
    <i name="AMIN">      0.10000000</i>
    <i name="AMIX_MAG">      1.60000000</i>
    <i name="BMIX_MAG">      1.00000000</i>
    <separator name="electronic mixer details" >
     <i type="int" name="IMIX">     4</i>
     <i type="logical" name="MIXFIRST"> F  </i>
     <i type="int" name="MAXMIX">   -45</i>
     <i name="WC">    100.00000000</i>
     <i type="int" name="INIMIX">     1</i>
     <i type="int" name="MIXPRE">     1</i>
     <i type="int" name="MREMOVE">     5</i>
    </separator>
   </separator>
   <separator name="electronic dipolcorrection" >
    <i type="logical" name="LDIPOL"> F  </i>
    <i type="logical" name="LMONO"> F  </i>
    <i type="int" name="IDIPOL">     0</i>
    <i name="EPSILON">      1.00000000</i>
    <v name="DIPOL">   -100.00000000   -100.00000000   -100.00000000</v>
    <i name="EFIELD">      0.00000000</i>
   </separator>
  </separator>
  <separator name="grids" >
   <i type="int" name="NGX">    72</i>
   <i type="int" name="NGY">    72</i>
   <i type="int" name="NGZ">    72</i>
   <i type="int" name="NGXF">   144</i>
   <i type="int" name="NGYF">   144</i>
   <i type="int" name="NGZF">   144</i>
   <i type="logical" name="ADDGRID"> F  </i>
  </separator>
  <separator name="ionic" >
   <i type="int" name="NSW">   100</i>
   <i type="int" name="IBRION">     2</i>
   <i type="int" name="MDALGO">     0</i>
   <i type="int" name="ISIF">     2</i>
   <i name="PSTRESS">      0.00000000</i>
   <i name="EDIFFG">     -0.01000000</i>
   <i type="int" name="NFREE">     1</i>
   <i name="POTIM">      0.50000000</i>
   <i name="SMASS">     -3.00000000</i>
   <i name="SCALEE">      1.00000000</i>
  </separator>
  <separator name="ionic md" >
   <i name="TEBEG">      0.00010000</i>
   <i name="TEEND">      0.00010000</i>
   <i type="int" name="NBLOCK">     1</i>
   <i type="int" name="KBLOCK">   100</i>
   <i type="int" name="NPACO">   256</i>
   <i name="APACO">     16.00000000</i>
  </separator>
  <separator name="symmetry" >
   <i type="int" name="ISYM">     0</i>
   <i name="SYMPREC">      0.00001000</i>
  </separator>
  <separator name="dos" >
   <i type="int" name="LORBIT">     0</i>
   <v name="RWIGS">     -1.00000000</v>
   <i type="int" name="NEDOS">   301</i>
   <i name="EMIN">     10.00000000</i>
   <i name="EMAX">    -10.00000000</i>
   <i name="EFERMI">      0.00000000</i>
  </separator>
  <separator name="writing" >
   <i type="int" name="NWRITE">     2</i>
   <i type="logical" name="LWAVE"> F  </i>
   <i type="logical" name="LDOWNSAMPLE"> F  </i>
   <i type="logical" name="LCHARG"> F  </i>
   <i type="logical" name="LPARD"> F  </i>
   <i type="logical" name="LVTOT"> F  </i>
   <i type="logical" name="LVHAR"> F  </i>
   <i type="logical" name="LELF"> F  </i>
   <i type="logical" name="LOPTICS"> F  </i>
   <v name="STM">      0.00000000      0.00000000      0.00000000      0.00000000      0.00000000      0.00000000      0.00000000</v>
  </separator>
  <separator name="performance" >
   <i type="int" name="NPAR">     6</i>
   <i type="int" name="NSIM">     4</i>
   <i type="int" name="NBLK">    -1</i>
   <i type="logical" name="LPLANE"> T  </i>
   <i type="logical" name="LSCALAPACK"> T  </i>
   <i type="logical" name="LSCAAWARE"> F  </i>
   <i type="logical" name="LSCALU"> F  </i>
   <i type="logical" name="LASYNC"> F  </i>
   <i type="logical" name="LORBITALREAL"> F  </i>
  </separator>
  <separator name="miscellaneous" >
   <i type="int" name="IDIOT">     3</i>
   <i type="int" name="ISPECIAL">     0</i>
   <i type="logical" name="LMUSIC"> F  </i>
   <v name="POMASS">     55.84700000</v>
   <v name="DARWINR">      0.00000000</v>
   <v name="DARWINV">      1.00000000</v>
   <i type="logical" name="LCORR"> T  </i>
  </separator>
  <i type="logical" name="GGA_COMPAT"> T  </i>
  <i type="logical" name="LBERRY"> F  </i>
  <i type="int" name="ICORELEVEL">     0</i>
  <i type="logical" name="LDAU"> F  </i>
  <i type="int" name="I_CONSTRAINED_M">     0</i>
  <separator name="electronic exchange-correlation" >
   <i type="string" name="GGA">--</i>
   <i type="int" name="VOSKOWN">     0</i>
   <i type="logical" name="LHFCALC"> F  </i>
   <i type="string" name="PRECFOCK"></i>
   <i type="logical" name="LSYMGRAD"> F  </i>
   <i type="logical" name="LHFONE"> F  </i>
   <i type="logical" name="LRHFCALC"> F  </i>
   <i type="logical" name="LTHOMAS"> F  </i>
   <i type="logical" name="LMODELHF"> F  </i>
   <i name="ENCUT4O">     -1.00000000</i>
   <i type="int" name="EXXOEP">     0</i>
   <i type="int" name="FOURORBIT">     0</i>
   <i name="AEXX">      0.00000000</i>
   <i name="HFALPHA">      0.00000000</i>
   <i name="MCALPHA">      0.00000000</i>
   <i name="ALDAX">      1.00000000</i>
   <i name="AGGAX">      1.00000000</i>
   <i name="ALDAC">      1.00000000</i>
   <i name="AGGAC">      1.00000000</i>
   <i type="int" name="NKREDX">     1</i>
   <i type="int" name="NKREDY">     1</i>
   <i type="int" name="NKREDZ">     1</i>
   <i type="logical" name="SHIFTRED"> F  </i>
   <i type="logical" name="ODDONLY"> F  </i>
   <i type="logical" name="EVENONLY"> F  </i>
   <i type="int" name="LMAXFOCK">     0</i>
   <i type="int" name="NMAXFOCKAE">     0</i>
   <i type="logical" name="LFOCKAEDFT"> F  </i>
   <i name="HFSCREEN">      0.00000000</i>
   <i name="HFSCREENC">      0.00000000</i>
   <i type="int" name="NBANDSGWLOW">     0</i>
  </separator>
  <separator name="vdW DFT" >
   <i type="logical" name="LUSE_VDW"> F  </i>
   <i name="Zab_VDW">     -0.84910000</i>
   <i name="PARAM1">      0.12340000</i>
   <i name="PARAM2">      1.00000000</i>
   <i name="PARAM3">      0.00000000</i>
  </separator>
  <separator name="model GW" >
   <i type="int" name="MODEL_GW">     0</i>
   <i name="MODEL_EPS0">      6.18984300</i>
   <i name="MODEL_ALPHA">      1.00000000</i>
  </separator>
  <separator name="linear response parameters" >
   <i type="logical" name="LEPSILON"> F  </i>
   <i type="logical" name="LRPA"> F  </i>
   <i type="logical" name="LNABLA"> F  </i>
   <i type="logical" name="LVEL"> F  </i>
   <i type="int" name="KINTER">     0</i>
   <i name="CSHIFT">      0.10000000</i>
   <i name="OMEGAMAX">     -1.00000000</i>
   <i name="DEG_THRESHOLD">      0.00200000</i>
   <i name="RTIME">     -0.10000000</i>
   <i name="WPLASMAI">      0.00000000</i>
   <v name="DFIELD">      0.00000000      0.00000000      0.00000000</v>
   <v name="WPLASMA">      0.00000000      0.00000000      0.00000000      0.00000000      0.00000000      0.00000000      0.00000000      0.00000000      0.00000000</v>
  </separator>
  <separator name="orbital magnetization" >
   <i type="logical" name="NUCIND"> F  </i>
   <v name="MAGPOS">      0.00000000      0.00000000      0.00000000</v>
   <i type="logical" name="LNICSALL"> T  </i>
   <i type="logical" name="ORBITALMAG"> F  </i>
   <i type="logical" name="LMAGBLOCH"> F  </i>
   <i type="logical" name="LCHIMAG"> F  </i>
   <i type="logical" name="LGAUGE"> T  </i>
   <i type="int" name="MAGATOM">     0</i>
   <v name="MAGDIPOL">      0.00000000      0.00000000      0.00000000</v>
   <v name="AVECCONST">      0.00000000      0.00000000      0.00000000</v>
  </separator>
  <separator name="response functions" >
   <i type="logical" name="LADDER"> F  </i>
   <i type="logical" name="LRPAFORCE"> F  </i>
   <i type="logical" name="LFXC"> F  </i>
   <i type="logical" name="LHARTREE"> T  </i>
   <i type="int" name="IBSE">     0</i>
   <v type="int" name="KPOINT">    -1     0     0     0</v>
   <i type="logical" name="LTCTE"> F  </i>
   <i type="logical" name="LTETE"> F  </i>
   <i type="logical" name="LTRIPLET"> F  </i>
   <i type="logical" name="LFXCEPS"> F  </i>
   <i type="logical" name="LFXHEG"> F  </i>
   <i type="int" name="NATURALO">     2</i>
   <i type="logical" name="L2ORDER"> F  </i>
   <i type="logical" name="LMP2LT"> F  </i>
   <i type="logical" name="LUSEW"> F  </i>
   <i name="ENCUTGW">     -2.00000000</i>
   <i name="ENCUTGWSOFT">     -2.00000000</i>
   <i name="ENCUTLF">     -1.00000000</i>
   <i type="int" name="LMAXMP2">    -1</i>
   <i name="SCISSOR">      0.00000000</i>
   <i type="int" name="NOMEGA">     0</i>
   <i type="int" name="NOMEGAR">     0</i>
   <i type="int" name="NBANDSGW">    -1</i>
   <i type="int" name="NBANDSO">    -1</i>
   <i type="int" name="NBANDSV">    -1</i>
   <i type="int" name="NELM">   400</i>
   <i type="int" name="NELMHF">     1</i>
   <i type="int" name="DIM">     3</i>
   <i type="int" name="ANTIRES">     0</i>
   <i name="OMEGAMAX">    -30.00000000</i>
   <i name="OMEGAMIN">    -30.00000000</i>
   <i name="OMEGATL">   -200.00000000</i>
   <i type="int" name="OMEGAGRID">   140</i>
   <i name="CSHIFT">     -0.10000000</i>
   <i type="logical" name="SELFENERGY"> F  </i>
   <i type="logical" name="LSPECTRAL"> F  </i>
   <i type="logical" name="LSPECTRALGW"> F  </i>
   <i type="logical" name="LSINGLES"> F  </i>
   <i type="logical" name="LFERMIGW"> F  </i>
   <i type="logical" name="ODDONLYGW"> F  </i>
   <i type="logical" name="EVENONLYGW"> F  </i>
   <i type="int" name="NKREDLFX">     1</i>
   <i type="int" name="NKREDLFY">     1</i>
   <i type="int" name="NKREDLFZ">     1</i>
   <i type="int" name="MAXMEM">  2800</i>
   <i type="int" name="TELESCOPE">     0</i>
   <i type="int" name="TAUPAR">     1</i>
   <i type="int" name="OMEGAPAR">    -1</i>
   <i name="LAMBDA">      1.00000000</i>
  </separator>
  <separator name="External order field" >
   <i name="OFIELD_KAPPA">      0.00000000</i>
   <v name="OFIELD_K">      0.00000000      0.00000000      0.00000000</v>
   <i name="OFIELD_Q6_NEAR">      0.00000000</i>
   <i name="OFIELD_Q6_FAR">      0.00000000</i>
   <i name="OFIELD_A">      0.00000000</i>
  </separator>
 </parameters>
 <atominfo>
  <atoms>     107 </atoms>
  <types>       1 </types>
  <array name="atoms" >
   <dimension dim="1">ion</dimension>
   <field type="string">element</field>
   <field type="int">atomtype</field>
   <set>
    <rc><c>Fe</c><c>   1</c></rc>
    <rc><c>Fe</c><c>   1</c></rc>
    <rc><c>Fe</c><c>   1</c></rc>
    <rc><c>Fe</c><c>   1</c></rc>
    <rc><c>Fe</c><c>   1</c></rc>
    <rc><c>Fe</c><c>   1</c></rc>
    <rc><c>Fe</c><c>   1</c></rc>
    <rc><c>Fe</c><c>   1</c></rc>
    <rc><c>Fe</c><c>   1</c></rc>
    <rc><c>Fe</c><c>   1</c></rc>
    <rc><c>Fe</c><c>   1</c></rc>
    <rc><c>Fe</c><c>   1</c></rc>
    <rc><c>Fe</c><c>   1</c></rc>
    <rc><c>Fe</c><c>   1</c></rc>
    <rc><c>Fe</c><c>   1</c></rc>
    <rc><c>Fe</c><c>   1</c></rc>
    <rc><c>Fe</c><c>   1</c></rc>
    <rc><c>Fe</c><c>   1</c></rc>
    <rc><c>Fe</c><c>   1</c></rc>
    <rc><c>Fe</c><c>   1</c></rc>
    <rc><c>Fe</c><c>   1</c></rc>
    <rc><c>Fe</c><c>   1</c></rc>
    <rc><c>Fe</c><c>   1</c></rc>
    <rc><c>Fe</c><c>   1</c></rc>
    <rc><c>Fe</c><c>   1</c></rc>
    <rc><c>Fe</c><c>   1</c></rc>
    <rc><c>Fe</c><c>   1</c></rc>
    <rc><c>Fe</c><c>   1</c></rc>
    <rc><c>Fe</c><c>   1</c></rc>
    <rc><c>Fe</c><c>   1</c></rc>
    <rc><c>Fe</c><c>   1</c></rc>
    <rc><c>Fe</c><c>   1</c></rc>
    <rc><c>Fe</c><c>   1</c></rc>
    <rc><c>Fe</c><c>   1</c></rc>
    <rc><c>Fe</c><c>   1</c></rc>
    <rc><c>Fe</c><c>   1</c></rc>
    <rc><c>Fe</c><c>   1</c></rc>
    <rc><c>Fe</c><c>   1</c></rc>
    <rc><c>Fe</c><c>   1</c></rc>
    <rc><c>Fe</c><c>   1</c></rc>
    <rc><c>Fe</c><c>   1</c></rc>
    <rc><c>Fe</c><c>   1</c></rc>
    <rc><c>Fe</c><c>   1</c></rc>
    <rc><c>Fe</c><c>   1</c></rc>
    <rc><c>Fe</c><c>   1</c></rc>
    <rc><c>Fe</c><c>   1</c></rc>
    <rc><c>Fe</c><c>   1</c></rc>
    <rc><c>Fe</c><c>   1</c></rc>
    <rc><c>Fe</c><c>   1</c></rc>
    <rc><c>Fe</c><c>   1</c></rc>
    <rc><c>Fe</c><c>   1</c></rc>
    <rc><c>Fe</c><c>   1</c></rc>
    <rc><c>Fe</c><c>   1</c></rc>
    <rc><c>Fe</c><c>   1</c></rc>
    <rc><c>Fe</c><c>   1</c></rc>
    <rc><c>Fe</c><c>   1</c></rc>
    <rc><c>Fe</c><c>   1</c></rc>
    <rc><c>Fe</c><c>   1</c></rc>
    <rc><c>Fe</c><c>   1</c></rc>
    <rc><c>Fe</c><c>   1</c></rc>
    <rc><c>Fe</c><c>   1</c></rc>
    <rc><c>Fe</c><c>   1</c></rc>
    <rc><c>Fe</c><c>   1</c></rc>
    <rc><c>Fe</c><c>   1</c></rc>
    <rc><c>Fe</c><c>   1</c></rc>
    <rc><c>Fe</c><c>   1</c></rc>
    <rc><c>Fe</c><c>   1</c></rc>
    <rc><c>Fe</c><c>   1</c></rc>
    <rc><c>Fe</c><c>   1</c></rc>
    <rc><c>Fe</c><c>   1</c></rc>
    <rc><c>Fe</c><c>   1</c></rc>
    <rc><c>Fe</c><c>   1</c></rc>
    <rc><c>Fe</c><c>   1</c></rc>
    <rc><c>Fe</c><c>   1</c></rc>
    <rc><c>Fe</c><c>   1</c></rc>
    <rc><c>Fe</c><c>   1</c></rc>
    <rc><c>Fe</c><c>   1</c></rc>
    <rc><c>Fe</c><c>   1</c></rc>
    <rc><c>Fe</c><c>   1</c></rc>
    <rc><c>Fe</c><c>   1</c></rc>
    <rc><c>Fe</c><c>   1</c></rc>
    <rc><c>Fe</c><c>   1</c></rc>
    <rc><c>Fe</c><c>   1</c></rc>
    <rc><c>Fe</c><c>   1</c></rc>
    <rc><c>Fe</c><c>   1</c></rc>
    <rc><c>Fe</c><c>   1</c></rc>
    <rc><c>Fe</c><c>   1</c></rc>
    <rc><c>Fe</c><c>   1</c></rc>
    <rc><c>Fe</c><c>   1</c></rc>
    <rc><c>Fe</c><c>   1</c></rc>
    <rc><c>Fe</c><c>   1</c></rc>
    <rc><c>Fe</c><c>   1</c></rc>
    <rc><c>Fe</c><c>   1</c></rc>
    <rc><c>Fe</c><c>   1</c></rc>
    <rc><c>Fe</c><c>   1</c></rc>
    <rc><c>Fe</c><c>   1</c></rc>
    <rc><c>Fe</c><c>   1</c></rc>
    <rc><c>Fe</c><c>   1</c></rc>
    <rc><c>Fe</c><c>   1</c></rc>
    <rc><c>Fe</c><c>   1</c></rc>
    <rc><c>Fe</c><c>   1</c></rc>
    <rc><c>Fe</c><c>   1</c></rc>
    <rc><c>Fe</c><c>   1</c></rc>
    <rc><c>Fe</c><c>   1</c></rc>
    <rc><c>Fe</c><c>   1</c></rc>
    <rc><c>Fe</c><c>   1</c></rc>
    <rc><c>Fe</c><c>   1</c></rc>
   </set>
  </array>
  <array name="atomtypes" >
   <dimension dim="1">type</dimension>
   <field type="int">atomspertype</field>
   <field type="string">element</field>
   <field>mass</field>
   <field>valence</field>
   <field type="string">pseudopotential</field>
   <set>
    <rc><c> 107</c><c>Fe</c><c>     55.84700000</c><c>      8.00000000</c><c> PAW_PBE Fe 06Sep2000                   </c></rc>
   </set>
  </array>
 </atominfo>
 <structure name="initialpos" >
  <crystal>
   <varray name="basis" >
    <v>      10.33484705       0.00000000       0.00000000 </v>
    <v>       0.00000000      10.33484705       0.00000000 </v>
    <v>       0.00000000       0.00000000      10.33484705 </v>
   </varray>
   <i name="volume">   1103.85533447 </i>
   <varray name="rec_basis" >
    <v>       0.09676002       0.00000000       0.00000000 </v>
    <v>       0.00000000       0.09676002       0.00000000 </v>
    <v>       0.00000000       0.00000000       0.09676002 </v>
   </varray>
  </crystal>
  <varray name="positions" >
   <v>       0.00000000       0.00000000       0.00000000 </v>
   <v>       0.00000000       0.16666893       0.16666893 </v>
   <v>       0.00000000       0.33333106       0.00000000 </v>
   <v>       0.00000000       0.50000000       0.16666894 </v>
   <v>       0.00000000       0.66666897       0.00000000 </v>
   <v>       0.00000000       0.83333104       0.16666893 </v>
   <v>       0.00000000       0.00000000       0.33333106 </v>
   <v>       0.00000000       0.16666894       0.50000000 </v>
   <v>       0.00000000       0.33333107       0.33333107 </v>
   <v>       0.00000000       0.50000000       0.50000000 </v>
   <v>       0.00000000       0.66666896       0.33333107 </v>
   <v>       0.00000000       0.83333103       0.50000000 </v>
   <v>       0.00000000       0.00000000       0.66666897 </v>
   <v>       0.00000000       0.16666893       0.83333104 </v>
   <v>       0.00000000       0.33333107       0.66666896 </v>
   <v>       0.00000000       0.50000000       0.83333103 </v>
   <v>       0.00000000       0.66666896       0.66666896 </v>
   <v>       0.00000000       0.83333104       0.83333104 </v>
   <v>       0.16666893       0.00000000       0.16666893 </v>
   <v>       0.16666893       0.16666893       0.00000000 </v>
   <v>       0.16666893       0.83333104       0.00000000 </v>
   <v>       0.16666893       0.33333107       0.50000000 </v>
   <v>       0.16666893       0.50000000       0.33333107 </v>
   <v>       0.16666893       0.66666896       0.50000000 </v>
   <v>       0.16666893       0.00000000       0.83333104 </v>
   <v>       0.16666893       0.50000000       0.66666896 </v>
   <v>       0.16666893       0.33333107       0.16666893 </v>
   <v>       0.16666893       0.66666896       0.16666893 </v>
   <v>       0.16666893       0.16666893       0.33333107 </v>
   <v>       0.16666893       0.83333104       0.33333107 </v>
   <v>       0.16666893       0.16666893       0.66666896 </v>
   <v>       0.16666893       0.33333107       0.83333104 </v>
   <v>       0.16666893       0.66666896       0.83333104 </v>
   <v>       0.16666893       0.83333104       0.66666896 </v>
   <v>       0.16666894       0.50000000       0.00000000 </v>
   <v>       0.16666894       0.00000000       0.50000000 </v>
   <v>       0.33333106       0.00000000       0.00000000 </v>
   <v>       0.33333107       0.16666893       0.16666893 </v>
   <v>       0.33333107       0.83333104       0.16666893 </v>
   <v>       0.33333107       0.33333107       0.33333107 </v>
   <v>       0.33333107       0.66666896       0.33333107 </v>
   <v>       0.33333107       0.16666893       0.83333104 </v>
   <v>       0.33333107       0.33333107       0.66666896 </v>
   <v>       0.33333107       0.66666896       0.66666896 </v>
   <v>       0.33333107       0.83333104       0.83333104 </v>
   <v>       0.33333107       0.33333107       0.00000000 </v>
   <v>       0.33333107       0.50000000       0.16666893 </v>
   <v>       0.33333107       0.66666896       0.00000000 </v>
   <v>       0.33333107       0.00000000       0.33333107 </v>
   <v>       0.33333107       0.16666893       0.50000000 </v>
   <v>       0.33333107       0.83333104       0.50000000 </v>
   <v>       0.33333107       0.00000000       0.66666896 </v>
   <v>       0.33333107       0.50000000       0.83333104 </v>
   <v>       0.50000000       0.00000000       0.16666894 </v>
   <v>       0.50000000       0.16666894       0.00000000 </v>
   <v>       0.50000000       0.33333107       0.16666893 </v>
   <v>       0.50000000       0.50000000       0.00000000 </v>
   <v>       0.50000000       0.66666896       0.16666893 </v>
   <v>       0.50000000       0.83333103       0.00000000 </v>
   <v>       0.50000000       0.00000000       0.50000000 </v>
   <v>       0.50000000       0.16666893       0.33333107 </v>
   <v>       0.50000000       0.33333106       0.50000000 </v>
   <v>       0.50000000       0.50000000       0.33333106 </v>
   <v>       0.50000000       0.66666897       0.50000000 </v>
   <v>       0.50000000       0.83333104       0.33333107 </v>
   <v>       0.50000000       0.00000000       0.83333103 </v>
   <v>       0.50000000       0.16666893       0.66666896 </v>
   <v>       0.50000000       0.33333107       0.83333104 </v>
   <v>       0.50000000       0.66666896       0.83333104 </v>
   <v>       0.50000000       0.83333104       0.66666896 </v>
   <v>       0.66666896       0.33333107       0.00000000 </v>
   <v>       0.66666896       0.50000000       0.16666893 </v>
   <v>       0.66666896       0.66666896       0.00000000 </v>
   <v>       0.66666896       0.00000000       0.33333107 </v>
   <v>       0.66666896       0.16666893       0.50000000 </v>
   <v>       0.66666896       0.83333104       0.50000000 </v>
   <v>       0.66666896       0.00000000       0.66666896 </v>
   <v>       0.66666896       0.50000000       0.83333104 </v>
   <v>       0.66666896       0.16666893       0.16666893 </v>
   <v>       0.66666896       0.83333104       0.16666893 </v>
   <v>       0.66666896       0.33333107       0.33333107 </v>
   <v>       0.66666896       0.66666896       0.33333107 </v>
   <v>       0.66666896       0.16666893       0.83333104 </v>
   <v>       0.66666896       0.33333107       0.66666896 </v>
   <v>       0.66666896       0.66666896       0.66666896 </v>
   <v>       0.66666896       0.83333104       0.83333104 </v>
   <v>       0.66666897       0.00000000       0.00000000 </v>
   <v>       0.66666897       0.50000000       0.50000000 </v>
   <v>       0.83333103       0.50000000       0.00000000 </v>
   <v>       0.83333103       0.00000000       0.50000000 </v>
   <v>       0.83333104       0.33333107       0.16666893 </v>
   <v>       0.83333104       0.66666896       0.16666893 </v>
   <v>       0.83333104       0.16666893       0.33333107 </v>
   <v>       0.83333104       0.83333104       0.33333107 </v>
   <v>       0.83333104       0.16666893       0.66666896 </v>
   <v>       0.83333104       0.33333107       0.83333104 </v>
   <v>       0.83333104       0.66666896       0.83333104 </v>
   <v>       0.83333104       0.83333104       0.66666896 </v>
   <v>       0.83333104       0.00000000       0.16666893 </v>
   <v>       0.83333104       0.16666893       0.00000000 </v>
   <v>       0.83333104       0.83333104       0.00000000 </v>
   <v>       0.83333104       0.33333107       0.50000000 </v>
   <v>       0.83333104       0.50000000       0.33333107 </v>
   <v>       0.83333104       0.66666896       0.50000000 </v>
   <v>       0.83333104       0.00000000       0.83333104 </v>
   <v>       0.83333104       0.50000000       0.66666896 </v>
   <v>       0.33333106       0.50000000       0.50000000 </v>
  </varray>
 </structure>
 <calculation>
  <scstep>
   <time name="dav">  123.58  123.60</time>
   <time name="total">  123.71  123.73</time>
   <energy>
    <i name="alphaZ">   7165.75404585 </i>
    <i name="ewald"> -65132.79052617 </i>
    <i name="hartreedc"> -11421.99766877 </i>
    <i name="XCdc">    440.44462655 </i>
    <i name="pawpsdc">  51244.96395782 </i>
    <i name="pawaedc"> -52061.72305433 </i>
    <i name="eentropy">     -0.00024571 </i>
    <i name="bandstr">  13618.64168771 </i>
    <i name="atom">  63607.21096501 </i>
    <i name="e_fr_energy">   7460.50378797 </i>
    <i name="e_wo_entrp">   7460.50403368 </i>
    <i name="e_0_energy">   7460.50386988 </i>
   </energy>
  </scstep>
  <scstep>
   <time name="dav">  123.34  123.34</time>
   <time name="total">  123.36  123.36</time>
   <energy>
    <i name="e_fr_energy">    -41.72166304 </i>
    <i name="e_wo_entrp">    -41.71722853 </i>
    <i name="e_0_energy">    -41.72018487 </i>
   </energy>
  </scstep>
  <scstep>
   <time name="dav">  123.86  123.87</time>
   <time name="total">  123.88  123.89</time>
   <energy>
    <i name="e_fr_energy">   -846.81271807 </i>
    <i name="e_wo_entrp">   -846.83246905 </i>
    <i name="e_0_energy">   -846.81930173 </i>
   </energy>
  </scstep>
  <scstep>
   <time name="dav">  201.16  201.17</time>
   <time name="total">  201.18  201.19</time>
   <energy>
    <i name="e_fr_energy">  -1018.41722409 </i>
    <i name="e_wo_entrp">  -1018.38315313 </i>
    <i name="e_0_energy">  -1018.40586711 </i>
   </energy>
  </scstep>
  <scstep>
   <time name="dav">  179.58  179.61</time>
   <time name="total">  184.25  184.28</time>
   <energy>
    <i name="e_fr_energy">  -1032.70298207 </i>
    <i name="e_wo_entrp">  -1032.64731623 </i>
    <i name="e_0_energy">  -1032.68442679 </i>
   </energy>
  </scstep>
  <scstep>
   <time name="diag">   17.81   17.81</time>
   <time name="diis">   69.45   69.45</time>
   <time name="orth">    3.46    3.46</time>
   <time name="total">   95.56   95.56</time>
   <energy>
    <i name="e_fr_energy">   -887.20162051 </i>
    <i name="e_wo_entrp">   -887.23951382 </i>
    <i name="e_0_energy">   -887.21425162 </i>
   </energy>
  </scstep>
  <scstep>
   <time name="diag">   17.83   17.83</time>
   <time name="diis">   91.10   91.10</time>
   <time name="orth">    3.46    3.45</time>
   <time name="total">  117.21  117.22</time>
   <energy>
    <i name="e_fr_energy">  -1182.36796478 </i>
    <i name="e_wo_entrp">  -1182.35493445 </i>
    <i name="e_0_energy">  -1182.36362134 </i>
   </energy>
  </scstep>
  <scstep>
   <time name="diag">   17.77   17.77</time>
   <time name="diis">   69.41   69.42</time>
   <time name="orth">    3.46    3.46</time>
   <time name="total">   95.48   95.49</time>
   <energy>
    <i name="e_fr_energy">   -877.24171571 </i>
    <i name="e_wo_entrp">   -877.14461009 </i>
    <i name="e_0_energy">   -877.20934717 </i>
   </energy>
  </scstep>
  <scstep>
   <time name="diag">   17.87   17.87</time>
   <time name="diis">   75.74   75.74</time>
   <time name="orth">    3.45    3.45</time>
   <time name="total">  101.93  101.94</time>
   <energy>
    <i name="e_fr_energy">   -869.69088883 </i>
    <i name="e_wo_entrp">   -869.63648507 </i>
    <i name="e_0_energy">   -869.67275424 </i>
   </energy>
  </scstep>
  <scstep>
   <time name="diag">   17.70   17.70</time>
   <time name="diis">   97.67   97.67</time>
   <time name="orth">    3.46    3.46</time>
   <time name="total">  123.75  123.75</time>
   <energy>
    <i name="e_fr_energy">   -873.17991363 </i>
    <i name="e_wo_entrp">   -873.14537933 </i>
    <i name="e_0_energy">   -873.16840220 </i>
   </energy>
  </scstep>
  <scstep>
   <time name="diag">   17.79   17.79</time>
   <time name="diis">   76.60   76.62</time>
   <time name="orth">    3.46    3.46</time>
   <time name="total">  102.75  102.77</time>
   <energy>
    <i name="e_fr_energy">   -870.90075865 </i>
    <i name="e_wo_entrp">   -870.86603077 </i>
    <i name="e_0_energy">   -870.88918269 </i>
   </energy>
  </scstep>
  <scstep>
   <time name="diag">   17.80   17.80</time>
   <time name="diis">   99.35   99.35</time>
   <time name="orth">    3.45    3.45</time>
   <time name="total">  125.48  125.49</time>
   <energy>
    <i name="e_fr_energy">   -870.67489758 </i>
    <i name="e_wo_entrp">   -870.63167507 </i>
    <i name="e_0_energy">   -870.66049008 </i>
   </energy>
  </scstep>
  <scstep>
   <time name="diag">   17.79   17.79</time>
   <time name="diis">   71.71   71.72</time>
   <time name="orth">    3.47    3.47</time>
   <time name="total">   97.87   97.90</time>
   <energy>
    <i name="e_fr_energy">   -869.40333730 </i>
    <i name="e_wo_entrp">   -869.34401087 </i>
    <i name="e_0_energy">   -869.38356183 </i>
   </energy>
  </scstep>
  <scstep>
   <time name="diag">   17.72   17.72</time>
   <time name="diis">   96.28   96.28</time>
   <time name="orth">    3.47    3.47</time>
   <time name="total">  122.35  122.35</time>
   <energy>
    <i name="e_fr_energy">   -869.44517422 </i>
    <i name="e_wo_entrp">   -869.38352093 </i>
    <i name="e_0_energy">   -869.42462313 </i>
   </energy>
  </scstep>
  <scstep>
   <time name="diag">   17.70   17.70</time>
   <time name="diis">   80.02   80.02</time>
   <time name="orth">    3.47    3.47</time>
   <time name="total">  106.04  106.04</time>
   <energy>
    <i name="e_fr_energy">   -869.32523737 </i>
    <i name="e_wo_entrp">   -869.26112656 </i>
    <i name="e_0_energy">   -869.30386710 </i>
   </energy>
  </scstep>
  <scstep>
   <time name="diag">   17.74   17.74</time>
   <time name="diis">   74.08   74.08</time>
   <time name="orth">    3.45    3.45</time>
   <time name="total">  100.16  100.16</time>
   <energy>
    <i name="e_fr_energy">   -869.17288513 </i>
    <i name="e_wo_entrp">   -869.10775007 </i>
    <i name="e_0_energy">   -869.15117344 </i>
   </energy>
  </scstep>
  <scstep>
   <time name="diag">   17.69   17.69</time>
   <time name="diis">   70.88   70.89</time>
   <time name="orth">    3.46    3.46</time>
   <time name="total">   96.92   96.93</time>
   <energy>
    <i name="e_fr_energy">   -869.06486493 </i>
    <i name="e_wo_entrp">   -868.99975014 </i>
    <i name="e_0_energy">   -869.04316000 </i>
   </energy>
  </scstep>
  <scstep>
   <time name="diag">   17.67   17.67</time>
   <time name="diis">   75.10   75.11</time>
   <time name="orth">    3.44    3.44</time>
   <time name="total">  101.08  101.09</time>
   <energy>
    <i name="e_fr_energy">   -868.95738550 </i>
    <i name="e_wo_entrp">   -868.89236398 </i>
    <i name="e_0_energy">   -868.93571166 </i>
   </energy>
  </scstep>
  <scstep>
   <time name="diag">   17.67   17.67</time>
   <time name="diis">  101.48  101.49</time>
   <time name="orth">    3.46    3.46</time>
   <time name="total">  127.46  127.47</time>
   <energy>
    <i name="e_fr_energy">   -868.96997294 </i>
    <i name="e_wo_entrp">   -868.90530277 </i>
    <i name="e_0_energy">   -868.94841621 </i>
   </energy>
  </scstep>
  <scstep>
   <time name="diag">   17.71   17.71</time>
   <time name="diis">   86.90   86.90</time>
   <time name="orth">    3.45    3.45</time>
   <time name="total">  112.91  112.91</time>
   <energy>
    <i name="e_fr_energy">   -868.97570618 </i>
    <i name="e_wo_entrp">   -868.91200675 </i>
    <i name="e_0_energy">   -868.95447304 </i>
   </energy>
  </scstep>
  <scstep>
   <time name="diag">   17.74   17.74</time>
   <time name="diis">   84.94   84.94</time>
   <time name="orth">    3.45    3.45</time>
   <time name="total">  111.01  111.02</time>
   <energy>
    <i name="e_fr_energy">   -868.97311921 </i>
    <i name="e_wo_entrp">   -868.90979491 </i>
    <i name="e_0_energy">   -868.95201111 </i>
   </energy>
  </scstep>
  <scstep>
   <time name="diag">   17.73   17.74</time>
   <time name="diis">   83.37   83.38</time>
   <time name="orth">    3.45    3.45</time>
   <time name="total">  109.39  109.41</time>
   <energy>
    <i name="e_fr_energy">   -868.97162140 </i>
    <i name="e_wo_entrp">   -868.90841148 </i>
    <i name="e_0_energy">   -868.95055142 </i>
   </energy>
  </scstep>
  <scstep>
   <time name="diag">   17.76   17.76</time>
   <time name="diis">   70.49   70.49</time>
   <time name="orth">    3.47    3.47</time>
   <time name="total">   96.56   96.56</time>
   <energy>
    <i name="e_fr_energy">   -868.96677314 </i>
    <i name="e_wo_entrp">   -868.90346179 </i>
    <i name="e_0_energy">   -868.94566935 </i>
   </energy>
  </scstep>
  <scstep>
   <time name="diag">   17.76   17.76</time>
   <time name="diis">   97.15   97.15</time>
   <time name="orth">    3.46    3.46</time>
   <time name="total">  123.18  123.19</time>
   <energy>
    <i name="e_fr_energy">   -868.96642052 </i>
    <i name="e_wo_entrp">   -868.90309193 </i>
    <i name="e_0_energy">   -868.94531099 </i>
   </energy>
  </scstep>
  <scstep>
   <time name="diag">   17.76   17.76</time>
   <time name="diis">   80.20   80.20</time>
   <time name="orth">    3.43    3.43</time>
   <time name="total">  106.19  106.19</time>
   <energy>
    <i name="e_fr_energy">   -868.96500732 </i>
    <i name="e_wo_entrp">   -868.90150771 </i>
    <i name="e_0_energy">   -868.94384078 </i>
   </energy>
  </scstep>
  <scstep>
   <time name="diag">   17.81   17.82</time>
   <time name="diis">  100.05  100.05</time>
   <time name="orth">    3.45    3.45</time>
   <time name="total">  126.12  126.13</time>
   <energy>
    <i name="e_fr_energy">   -868.96500006 </i>
    <i name="e_wo_entrp">   -868.90158429 </i>
    <i name="e_0_energy">   -868.94386147 </i>
   </energy>
  </scstep>
  <scstep>
   <time name="diag">   17.76   17.76</time>
   <time name="diis">   90.64   90.65</time>
   <time name="orth">    3.46    3.46</time>
   <time name="total">  116.66  116.67</time>
   <energy>
    <i name="e_fr_energy">   -868.96496940 </i>
    <i name="e_wo_entrp">   -868.90158370 </i>
    <i name="e_0_energy">   -868.94384084 </i>
   </energy>
  </scstep>
  <scstep>
   <time name="diag">   17.81   17.81</time>
   <time name="diis">   85.29   85.30</time>
   <time name="orth">    3.43    3.43</time>
   <time name="total">  111.33  111.35</time>
   <energy>
    <i name="e_fr_energy">   -868.96491701 </i>
    <i name="e_wo_entrp">   -868.90159165 </i>
    <i name="e_0_energy">   -868.94380856 </i>
   </energy>
  </scstep>
  <scstep>
   <time name="diag">   17.75   17.75</time>
   <time name="diis">   96.89   96.90</time>
   <time name="orth">    3.49    3.49</time>
   <time name="total">  122.94  122.96</time>
   <energy>
    <i name="e_fr_energy">   -868.96491292 </i>
    <i name="e_wo_entrp">   -868.90166968 </i>
    <i name="e_0_energy">   -868.94383184 </i>
   </energy>
  </scstep>
  <scstep>
   <time name="diag">   17.78   17.78</time>
   <time name="diis">   70.57   70.58</time>
   <time name="orth">    3.45    3.45</time>
   <time name="total">   96.61   96.62</time>
   <energy>
    <i name="e_fr_energy">   -868.96488743 </i>
    <i name="e_wo_entrp">   -868.90173037 </i>
    <i name="e_0_energy">   -868.94383508 </i>
   </energy>
  </scstep>
  <scstep>
   <time name="diag">   17.78   17.78</time>
   <time name="diis">   60.68   60.70</time>
   <time name="orth">    3.45    3.45</time>
   <time name="total">   86.71   86.73</time>
   <energy>
    <i name="e_fr_energy">   -868.96488129 </i>
    <i name="e_wo_entrp">   -868.90177537 </i>
    <i name="e_0_energy">   -868.94384598 </i>
   </energy>
  </scstep>
  <scstep>
   <time name="diag">   17.82   17.82</time>
   <time name="diis">   49.87   49.88</time>
   <time name="orth">    3.46    3.46</time>
   <time name="total">   75.96   75.98</time>
   <energy>
    <i name="e_fr_energy">   -868.96487802 </i>
    <i name="e_wo_entrp">   -868.90181725 </i>
    <i name="e_0_energy">   -868.94385776 </i>
   </energy>
  </scstep>
  <scstep>
   <time name="diag">   17.78   17.78</time>
   <time name="diis">   43.31   43.32</time>
   <time name="orth">    3.47    3.47</time>
   <time name="total">   69.36   69.37</time>
   <energy>
    <i name="e_fr_energy">   -868.96487408 </i>
    <i name="e_wo_entrp">   -868.90185893 </i>
    <i name="e_0_energy">   -868.94386903 </i>
   </energy>
  </scstep>
  <scstep>
   <time name="diag">   17.76   17.76</time>
   <time name="diis">   42.03   42.03</time>
   <time name="orth">    3.45    3.45</time>
   <time name="total">   68.03   68.04</time>
   <energy>
    <i name="e_fr_energy">   -868.96487134 </i>
    <i name="e_wo_entrp">   -868.90189701 </i>
    <i name="e_0_energy">   -868.94387990 </i>
   </energy>
  </scstep>
  <scstep>
   <time name="diag">   17.77   17.77</time>
   <time name="diis">   41.75   41.76</time>
   <time name="orth">    3.44    3.44</time>
   <time name="total">   67.76   67.77</time>
   <energy>
    <i name="e_fr_energy">   -868.96486973 </i>
    <i name="e_wo_entrp">   -868.90193370 </i>
    <i name="e_0_energy">   -868.94389105 </i>
   </energy>
  </scstep>
  <scstep>
   <time name="diag">   17.78   17.78</time>
   <time name="diis">   41.44   41.45</time>
   <time name="orth">    3.44    3.44</time>
   <time name="total">   67.47   67.48</time>
   <energy>
    <i name="e_fr_energy">   -868.96486779 </i>
    <i name="e_wo_entrp">   -868.90196702 </i>
    <i name="e_0_energy">   -868.94390087 </i>
   </energy>
  </scstep>
  <scstep>
   <time name="diag">   17.76   17.76</time>
   <time name="diis">   40.86   40.86</time>
   <time name="orth">    3.43    3.43</time>
   <time name="total">   66.83   66.83</time>
   <energy>
    <i name="e_fr_energy">   -868.96486614 </i>
    <i name="e_wo_entrp">   -868.90199709 </i>
    <i name="e_0_energy">   -868.94390979 </i>
   </energy>
  </scstep>
  <scstep>
   <time name="diag">   17.76   17.76</time>
   <time name="diis">   40.64   40.64</time>
   <time name="orth">    3.42    3.42</time>
   <time name="total">   66.60   66.60</time>
   <energy>
    <i name="e_fr_energy">   -868.96486433 </i>
    <i name="e_wo_entrp">   -868.90202400 </i>
    <i name="e_0_energy">   -868.94391756 </i>
   </energy>
  </scstep>
  <scstep>
   <time name="diag">   17.74   17.75</time>
   <time name="diis">   35.46   35.46</time>
   <time name="orth">    3.43    3.43</time>
   <time name="total">   61.41   61.42</time>
   <energy>
    <i name="e_fr_energy">   -868.96486249 </i>
    <i name="e_wo_entrp">   -868.90204920 </i>
    <i name="e_0_energy">   -868.94392472 </i>
   </energy>
  </scstep>
  <scstep>
   <time name="diag">   17.77   17.78</time>
   <time name="diis">   35.27   35.27</time>
   <time name="orth">    3.43    3.43</time>
   <time name="total">   61.23   61.25</time>
   <energy>
    <i name="e_fr_energy">   -868.96486083 </i>
    <i name="e_wo_entrp">   -868.90207189 </i>
    <i name="e_0_energy">   -868.94393119 </i>
   </energy>
  </scstep>
  <scstep>
   <time name="diag">   17.77   17.77</time>
   <time name="diis">   33.28   33.28</time>
   <time name="orth">    3.44    3.44</time>
   <time name="total">   59.33   59.33</time>
   <energy>
    <i name="e_fr_energy">   -868.96485926 </i>
    <i name="e_wo_entrp">   -868.90209286 </i>
    <i name="e_0_energy">   -868.94393713 </i>
   </energy>
  </scstep>
  <scstep>
   <time name="diag">   17.78   17.78</time>
   <time name="diis">   33.39   33.39</time>
   <time name="orth">    3.45    3.45</time>
   <time name="total">   59.44   59.44</time>
   <energy>
    <i name="e_fr_energy">   -868.96485782 </i>
    <i name="e_wo_entrp">   -868.90211197 </i>
    <i name="e_0_energy">   -868.94394254 </i>
   </energy>
  </scstep>
  <scstep>
   <time name="diag">   17.80   17.80</time>
   <time name="diis">   33.04   33.04</time>
   <time name="orth">    3.46    3.46</time>
   <time name="total">   59.11   59.12</time>
   <energy>
    <i name="e_fr_energy">   -868.96485648 </i>
    <i name="e_wo_entrp">   -868.90212977 </i>
    <i name="e_0_energy">   -868.94394758 </i>
   </energy>
  </scstep>
  <scstep>
   <time name="diag">   17.78   17.78</time>
   <time name="diis">   32.96   32.96</time>
   <time name="orth">    3.45    3.45</time>
   <time name="total">   59.01   59.01</time>
   <energy>
    <i name="e_fr_energy">   -868.96485530 </i>
    <i name="e_wo_entrp">   -868.90214545 </i>
    <i name="e_0_energy">   -868.94395202 </i>
   </energy>
  </scstep>
  <scstep>
   <time name="diag">   17.74   17.74</time>
   <time name="diis">   32.72   32.72</time>
   <time name="orth">    3.46    3.46</time>
   <time name="total">   58.74   58.74</time>
   <energy>
    <i name="e_fr_energy">   -868.96485420 </i>
    <i name="e_wo_entrp">   -868.90216006 </i>
    <i name="e_0_energy">   -868.94395616 </i>
   </energy>
  </scstep>
  <scstep>
   <time name="diag">   17.74   17.74</time>
   <time name="diis">   32.71   32.71</time>
   <time name="orth">    3.44    3.44</time>
   <time name="total">   54.02   54.03</time>
   <energy>
    <i name="alphaZ">   7165.75404585 </i>
    <i name="ewald"> -65132.79052617 </i>
    <i name="hartreedc">  -9603.60821517 </i>
    <i name="XCdc">    355.54076208 </i>
    <i name="pawpsdc">  57402.94160365 </i>
    <i name="pawaedc"> -58329.12585164 </i>
    <i name="eentropy">     -0.06268020 </i>
    <i name="bandstr">   3665.17504333 </i>
    <i name="atom">  63607.21096501 </i>
    <i name="e_fr_energy">   -868.96485324 </i>
    <i name="e_wo_entrp">   -868.90217304 </i>
    <i name="e_0_energy">   -868.94395984 </i>
   </energy>
  </scstep>
  <structure>
   <crystal>
    <varray name="basis" >
     <v>      10.33484705       0.00000000       0.00000000 </v>
     <v>       0.00000000      10.33484705       0.00000000 </v>
     <v>       0.00000000       0.00000000      10.33484705 </v>
    </varray>
    <i name="volume">   1103.85533447 </i>
    <varray name="rec_basis" >
     <v>       0.09676002       0.00000000       0.00000000 </v>
     <v>       0.00000000       0.09676002       0.00000000 </v>
     <v>       0.00000000       0.00000000       0.09676002 </v>
    </varray>
   </crystal>
   <varray name="positions" >
    <v>       0.00000000       0.00000000       0.00000000 </v>
    <v>       0.00000000       0.16666893       0.16666893 </v>
    <v>       0.00000000       0.33333106       0.00000000 </v>
    <v>       0.00000000       0.50000000       0.16666894 </v>
    <v>       0.00000000       0.66666897       0.00000000 </v>
    <v>       0.00000000       0.83333104       0.16666893 </v>
    <v>       0.00000000       0.00000000       0.33333106 </v>
    <v>       0.00000000       0.16666894       0.50000000 </v>
    <v>       0.00000000       0.33333107       0.33333107 </v>
    <v>       0.00000000       0.50000000       0.50000000 </v>
    <v>       0.00000000       0.66666896       0.33333107 </v>
    <v>       0.00000000       0.83333103       0.50000000 </v>
    <v>       0.00000000       0.00000000       0.66666897 </v>
    <v>       0.00000000       0.16666893       0.83333104 </v>
    <v>       0.00000000       0.33333107       0.66666896 </v>
    <v>       0.00000000       0.50000000       0.83333103 </v>
    <v>       0.00000000       0.66666896       0.66666896 </v>
    <v>       0.00000000       0.83333104       0.83333104 </v>
    <v>       0.16666893       0.00000000       0.16666893 </v>
    <v>       0.16666893       0.16666893       0.00000000 </v>
    <v>       0.16666893       0.83333104       0.00000000 </v>
    <v>       0.16666893       0.33333107       0.50000000 </v>
    <v>       0.16666893       0.50000000       0.33333107 </v>
    <v>       0.16666893       0.66666896       0.50000000 </v>
    <v>       0.16666893       0.00000000       0.83333104 </v>
    <v>       0.16666893       0.50000000       0.66666896 </v>
    <v>       0.16666893       0.33333107       0.16666893 </v>
    <v>       0.16666893       0.66666896       0.16666893 </v>
    <v>       0.16666893       0.16666893       0.33333107 </v>
    <v>       0.16666893       0.83333104       0.33333107 </v>
    <v>       0.16666893       0.16666893       0.66666896 </v>
    <v>       0.16666893       0.33333107       0.83333104 </v>
    <v>       0.16666893       0.66666896       0.83333104 </v>
    <v>       0.16666893       0.83333104       0.66666896 </v>
    <v>       0.16666894       0.50000000       0.00000000 </v>
    <v>       0.16666894       0.00000000       0.50000000 </v>
    <v>       0.33333106       0.00000000       0.00000000 </v>
    <v>       0.33333107       0.16666893       0.16666893 </v>
    <v>       0.33333107       0.83333104       0.16666893 </v>
    <v>       0.33333107       0.33333107       0.33333107 </v>
    <v>       0.33333107       0.66666896       0.33333107 </v>
    <v>       0.33333107       0.16666893       0.83333104 </v>
    <v>       0.33333107       0.33333107       0.66666896 </v>
    <v>       0.33333107       0.66666896       0.66666896 </v>
    <v>       0.33333107       0.83333104       0.83333104 </v>
    <v>       0.33333107       0.33333107       0.00000000 </v>
    <v>       0.33333107       0.50000000       0.16666893 </v>
    <v>       0.33333107       0.66666896       0.00000000 </v>
    <v>       0.33333107       0.00000000       0.33333107 </v>
    <v>       0.33333107       0.16666893       0.50000000 </v>
    <v>       0.33333107       0.83333104       0.50000000 </v>
    <v>       0.33333107       0.00000000       0.66666896 </v>
    <v>       0.33333107       0.50000000       0.83333104 </v>
    <v>       0.50000000       0.00000000       0.16666894 </v>
    <v>       0.50000000       0.16666894       0.00000000 </v>
    <v>       0.50000000       0.33333107       0.16666893 </v>
    <v>       0.50000000       0.50000000       0.00000000 </v>
    <v>       0.50000000       0.66666896       0.16666893 </v>
    <v>       0.50000000       0.83333103       0.00000000 </v>
    <v>       0.50000000       0.00000000       0.50000000 </v>
    <v>       0.50000000       0.16666893       0.33333107 </v>
    <v>       0.50000000       0.33333106       0.50000000 </v>
    <v>       0.50000000       0.50000000       0.33333106 </v>
    <v>       0.50000000       0.66666897       0.50000000 </v>
    <v>       0.50000000       0.83333104       0.33333107 </v>
    <v>       0.50000000       0.00000000       0.83333103 </v>
    <v>       0.50000000       0.16666893       0.66666896 </v>
    <v>       0.50000000       0.33333107       0.83333104 </v>
    <v>       0.50000000       0.66666896       0.83333104 </v>
    <v>       0.50000000       0.83333104       0.66666896 </v>
    <v>       0.66666896       0.33333107       0.00000000 </v>
    <v>       0.66666896       0.50000000       0.16666893 </v>
    <v>       0.66666896       0.66666896       0.00000000 </v>
    <v>       0.66666896       0.00000000       0.33333107 </v>
    <v>       0.66666896       0.16666893       0.50000000 </v>
    <v>       0.66666896       0.83333104       0.50000000 </v>
    <v>       0.66666896       0.00000000       0.66666896 </v>
    <v>       0.66666896       0.50000000       0.83333104 </v>
    <v>       0.66666896       0.16666893       0.16666893 </v>
    <v>       0.66666896       0.83333104       0.16666893 </v>
    <v>       0.66666896       0.33333107       0.33333107 </v>
    <v>       0.66666896       0.66666896       0.33333107 </v>
    <v>       0.66666896       0.16666893       0.83333104 </v>
    <v>       0.66666896       0.33333107       0.66666896 </v>
    <v>       0.66666896       0.66666896       0.66666896 </v>
    <v>       0.66666896       0.83333104       0.83333104 </v>
    <v>       0.66666897       0.00000000       0.00000000 </v>
    <v>       0.66666897       0.50000000       0.50000000 </v>
    <v>       0.83333103       0.50000000       0.00000000 </v>
    <v>       0.83333103       0.00000000       0.50000000 </v>
    <v>       0.83333104       0.33333107       0.16666893 </v>
    <v>       0.83333104       0.66666896       0.16666893 </v>
    <v>       0.83333104       0.16666893       0.33333107 </v>
    <v>       0.83333104       0.83333104       0.33333107 </v>
    <v>       0.83333104       0.16666893       0.66666896 </v>
    <v>       0.83333104       0.33333107       0.83333104 </v>
    <v>       0.83333104       0.66666896       0.83333104 </v>
    <v>       0.83333104       0.83333104       0.66666896 </v>
    <v>       0.83333104       0.00000000       0.16666893 </v>
    <v>       0.83333104       0.16666893       0.00000000 </v>
    <v>       0.83333104       0.83333104       0.00000000 </v>
    <v>       0.83333104       0.33333107       0.50000000 </v>
    <v>       0.83333104       0.50000000       0.33333107 </v>
    <v>       0.83333104       0.66666896       0.50000000 </v>
    <v>       0.83333104       0.00000000       0.83333104 </v>
    <v>       0.83333104       0.50000000       0.66666896 </v>
    <v>       0.33333106       0.50000000       0.50000000 </v>
   </varray>
  </structure>
  <varray name="forces" >
   <v>       0.00000116       0.00000910       0.05691851 </v>
   <v>       0.00000029      -0.05730883      -0.00040469 </v>
   <v>      -0.00000357       0.00638613      -0.01296779 </v>
   <v>      -0.00000256      -0.00000862      -0.00039456 </v>
   <v>       0.00000202      -0.00639692      -0.01297110 </v>
   <v>       0.00000569       0.05731914      -0.00040462 </v>
   <v>       0.00000273       0.00000867      -0.05649543 </v>
   <v>       0.00000301       0.01256457       0.00597617 </v>
   <v>       0.00000123       0.00637962       0.01336369 </v>
   <v>      -0.00000201      -0.00000488       0.01645214 </v>
   <v>      -0.00000159      -0.00638949       0.01336811 </v>
   <v>      -0.00000344      -0.01255759       0.00597976 </v>
   <v>      -0.00000319       0.00000612      -0.00041742 </v>
   <v>      -0.00000329       0.01257910      -0.00557701 </v>
   <v>      -0.00000017       0.01688426      -0.00040269 </v>
   <v>      -0.00000049      -0.00000552      -0.01606997 </v>
   <v>      -0.00000549      -0.01689165      -0.00040598 </v>
   <v>      -0.00000186      -0.01257329      -0.00557965 </v>
   <v>      -0.05731237       0.00000449      -0.00040152 </v>
   <v>      -0.02851636      -0.02850479       0.02811973 </v>
   <v>      -0.02850787       0.02850915       0.02812036 </v>
   <v>       0.01025454      -0.01045535      -0.01085002 </v>
   <v>       0.19654388      -0.00000787       0.19736575 </v>
   <v>       0.01025287       0.01044444      -0.01084613 </v>
   <v>       0.01256733       0.00000566      -0.00557672 </v>
   <v>       0.19485814      -0.00000513      -0.00040496 </v>
   <v>       0.01256399       0.00638330      -0.00039798 </v>
   <v>       0.01257363      -0.00639013      -0.00040386 </v>
   <v>      -0.02850784      -0.02850206      -0.02770169 </v>
   <v>      -0.02850266       0.02851191      -0.02770499 </v>
   <v>       0.19654181       0.19655231      -0.00040905 </v>
   <v>       0.01023712      -0.01044551       0.01125841 </v>
   <v>       0.01023850       0.01043941       0.01126161 </v>
   <v>       0.19654283      -0.19654583      -0.00040582 </v>
   <v>       0.19655775      -0.00000196      -0.19698289 </v>
   <v>       0.01255858       0.00000807       0.00597457 </v>
   <v>       0.00639652      -0.00000048      -0.01296054 </v>
   <v>       0.00639584       0.01256797      -0.00039410 </v>
   <v>       0.00639628      -0.01256549      -0.00040104 </v>
   <v>      -0.01045053      -0.01046033       0.01101384 </v>
   <v>      -0.01044682       0.01045303       0.01100798 </v>
   <v>      -0.01044657       0.01024764       0.01126382 </v>
   <v>       0.04318118       0.04318433      -0.00039204 </v>
   <v>       0.04318325      -0.04319131      -0.00038710 </v>
   <v>      -0.01044246      -0.01024301       0.01126944 </v>
   <v>      -0.01043668      -0.01044082      -0.01063555 </v>
   <v>       0.01690402      -0.00000154      -0.00039433 </v>
   <v>      -0.01043640       0.01044007      -0.01063278 </v>
   <v>       0.00639122       0.00000542       0.01336113 </v>
   <v>      -0.01045178       0.01026003      -0.01085797 </v>
   <v>      -0.01044645      -0.01024981      -0.01085793 </v>
   <v>       0.01688452       0.00000415      -0.00040902 </v>
   <v>       0.04337770      -0.00000235      -0.04252885 </v>
   <v>      -0.00000411       0.00000347      -0.00038927 </v>
   <v>       0.00000405       0.19655976      -0.19697674 </v>
   <v>       0.00000287       0.01689200      -0.00038986 </v>
   <v>       0.00000140      -0.00000301      -0.19524198 </v>
   <v>      -0.00000372      -0.01689792      -0.00039394 </v>
   <v>      -0.00000517      -0.19655718      -0.19697819 </v>
   <v>       0.00000217       0.00000297       0.01643531 </v>
   <v>      -0.00000175       0.19654761       0.19736359 </v>
   <v>       0.00000243       0.04330750       0.04284975 </v>
   <v>       0.00000352      -0.00000391       0.19560350 </v>
   <v>       0.00000708      -0.04331368       0.04285063 </v>
   <v>      -0.00000336      -0.19654198       0.19736352 </v>
   <v>       0.00000364       0.00000167      -0.01605830 </v>
   <v>       0.00000238       0.19486782      -0.00041000 </v>
   <v>       0.00000328       0.04338066      -0.04252866 </v>
   <v>       0.00000388      -0.04338495      -0.04252658 </v>
   <v>       0.00000576      -0.19486201      -0.00040848 </v>
   <v>       0.01043998      -0.01044289      -0.01063636 </v>
   <v>      -0.01690312      -0.00000736      -0.00039357 </v>
   <v>       0.01043125       0.01043338      -0.01063810 </v>
   <v>      -0.00639704       0.00000476       0.01336679 </v>
   <v>       0.01044658       0.01026164      -0.01085188 </v>
   <v>       0.01044899      -0.01025655      -0.01084776 </v>
   <v>      -0.01688192       0.00000079      -0.00040616 </v>
   <v>      -0.04337838      -0.00000330      -0.04253138 </v>
   <v>      -0.00639825       0.01257645      -0.00040073 </v>
   <v>      -0.00640315      -0.01256753      -0.00039951 </v>
   <v>       0.01044771      -0.01045590       0.01101309 </v>
   <v>       0.01044630       0.01044840       0.01101779 </v>
   <v>       0.01044837       0.01024942       0.01126475 </v>
   <v>      -0.04318050       0.04318587      -0.00038932 </v>
   <v>      -0.04318133      -0.04318957      -0.00039130 </v>
   <v>       0.01044428      -0.01024327       0.01125767 </v>
   <v>      -0.00640098       0.00000790      -0.01296700 </v>
   <v>      -0.04330963      -0.00000139       0.04285502 </v>
   <v>      -0.19655656      -0.00000791      -0.19698522 </v>
   <v>      -0.01255606       0.00000213       0.00598190 </v>
   <v>      -0.01256481       0.00638519      -0.00040264 </v>
   <v>      -0.01256748      -0.00639873      -0.00040008 </v>
   <v>       0.02851108      -0.02849934      -0.02770362 </v>
   <v>       0.02850787       0.02850725      -0.02769455 </v>
   <v>      -0.19654447       0.19655188      -0.00040455 </v>
   <v>      -0.01024025      -0.01044764       0.01126248 </v>
   <v>      -0.01024069       0.01043950       0.01125246 </v>
   <v>      -0.19654717      -0.19654944      -0.00040839 </v>
   <v>       0.05732072       0.00001034      -0.00040466 </v>
   <v>       0.02851432      -0.02849927       0.02811679 </v>
   <v>       0.02851426       0.02851120       0.02811286 </v>
   <v>      -0.01025545      -0.01044994      -0.01084809 </v>
   <v>      -0.19654544      -0.00000627       0.19736889 </v>
   <v>      -0.01025729       0.01044638      -0.01084269 </v>
   <v>      -0.01256898       0.00000684      -0.00558231 </v>
   <v>      -0.19486184      -0.00000266      -0.00040638 </v>
   <v>       0.04330957      -0.00000673       0.04285423 </v>
  </varray>
  <varray name="stress" >
   <v>      -7.70488986       0.00000158      -0.00000974 </v>
   <v>       0.00000152      -7.70488676      -0.00000718 </v>
   <v>      -0.00000981      -0.00000725      -7.70596929 </v>
  </varray>
  <energy>
   <i name="e_fr_energy">   -868.96485324 </i>
   <i name="e_wo_entrp">   -868.94395984 </i>
   <i name="e_0_energy">     -0.06268020 </i>
  </energy>
  <time name="totalsc"> 4699.14 4699.55</time>
 </calculation>
 <calculation>
  <scstep>
   <time name="dav">  127.66  127.68</time>
   <time name="total">  132.44  132.47</time>
   <energy>
    <i name="alphaZ">   7165.75404585 </i>
    <i name="ewald"> -65144.54377845 </i>
    <i name="hartreedc">  -9592.17949961 </i>
    <i name="XCdc">    355.53090669 </i>
    <i name="pawpsdc">  57402.94160377 </i>
    <i name="pawaedc"> -58329.12585135 </i>
    <i name="eentropy">     -0.06080058 </i>
    <i name="bandstr">   3665.46817512 </i>
    <i name="atom">  63607.21096501 </i>
    <i name="e_fr_energy">   -869.00423354 </i>
    <i name="e_wo_entrp">   -868.94343296 </i>
    <i name="e_0_energy">   -868.98396668 </i>
   </energy>
  </scstep>
  <scstep>
   <time name="diag">   17.78   17.78</time>
   <time name="diis">   76.62   76.64</time>
   <time name="orth">    3.47    3.47</time>
   <time name="total">  102.67  102.70</time>
   <energy>
    <i name="e_fr_energy">   -869.84958873 </i>
    <i name="e_wo_entrp">   -869.78119792 </i>
    <i name="e_0_energy">   -869.82679179 </i>
   </energy>
  </scstep>
  <scstep>
   <time name="diag">   17.76   17.77</time>
   <time name="diis">   69.13   69.15</time>
   <time name="orth">    3.46    3.46</time>
   <time name="total">   95.15   95.18</time>
   <energy>
    <i name="e_fr_energy">   -869.03020900 </i>
    <i name="e_wo_entrp">   -868.96838326 </i>
    <i name="e_0_energy">   -869.00960042 </i>
   </energy>
  </scstep>
  <scstep>
   <time name="diag">   17.77   17.78</time>
   <time name="diis">   89.13   89.17</time>
   <time name="orth">    3.45    3.45</time>
   <time name="total">  115.15  115.20</time>
   <energy>
    <i name="e_fr_energy">   -869.01023502 </i>
    <i name="e_wo_entrp">   -868.94760127 </i>
    <i name="e_0_energy">   -868.98935710 </i>
   </energy>
  </scstep>
  <scstep>
   <time name="diag">   17.79   17.79</time>
   <time name="diis">   92.33   92.37</time>
   <time name="orth">    3.44    3.44</time>
   <time name="total">  118.35  118.39</time>
   <energy>
    <i name="e_fr_energy">   -869.01686427 </i>
    <i name="e_wo_entrp">   -868.95490351 </i>
    <i name="e_0_energy">   -868.99621068 </i>
   </energy>
  </scstep>
  <scstep>
   <time name="diag">   17.76   17.77</time>
   <time name="diis">   75.85   75.87</time>
   <time name="orth">    3.44    3.44</time>
   <time name="total">  101.86  101.88</time>
   <energy>
    <i name="e_fr_energy">   -869.01097546 </i>
    <i name="e_wo_entrp">   -868.94908973 </i>
    <i name="e_0_energy">   -868.99034689 </i>
   </energy>
  </scstep>
  <scstep>
   <time name="diag">   17.76   17.76</time>
   <time name="diis">   79.17   79.17</time>
   <time name="orth">    3.47    3.47</time>
   <time name="total">  105.22  105.22</time>
   <energy>
    <i name="e_fr_energy">   -869.01441891 </i>
    <i name="e_wo_entrp">   -868.95166276 </i>
    <i name="e_0_energy">   -868.99350020 </i>
   </energy>
  </scstep>
  <scstep>
   <time name="diag">   17.77   17.77</time>
   <time name="diis">   69.00   69.01</time>
   <time name="orth">    3.49    3.49</time>
   <time name="total">   95.04   95.06</time>
   <energy>
    <i name="e_fr_energy">   -869.01022577 </i>
    <i name="e_wo_entrp">   -868.94765890 </i>
    <i name="e_0_energy">   -868.98937015 </i>
   </energy>
  </scstep>
  <scstep>
   <time name="diag">   17.87   17.87</time>
   <time name="diis">   86.63   86.64</time>
   <time name="orth">    3.48    3.48</time>
   <time name="total">  112.76  112.78</time>
   <energy>
    <i name="e_fr_energy">   -869.01044363 </i>
    <i name="e_wo_entrp">   -868.94796533 </i>
    <i name="e_0_energy">   -868.98961753 </i>
   </energy>
  </scstep>
  <scstep>
   <time name="diag">   17.82   17.82</time>
   <time name="diis">   74.66   74.66</time>
   <time name="orth">    3.45    3.45</time>
   <time name="total">  100.73  100.74</time>
   <energy>
    <i name="e_fr_energy">   -869.01006178 </i>
    <i name="e_wo_entrp">   -868.94771840 </i>
    <i name="e_0_energy">   -868.98928065 </i>
   </energy>
  </scstep>
  <scstep>
   <time name="diag">   17.80   17.80</time>
   <time name="diis">  100.29  100.30</time>
   <time name="orth">    3.45    3.45</time>
   <time name="total">  126.32  126.33</time>
   <energy>
    <i name="e_fr_energy">   -869.01008075 </i>
    <i name="e_wo_entrp">   -868.94772189 </i>
    <i name="e_0_energy">   -868.98929446 </i>
   </energy>
  </scstep>
  <scstep>
   <time name="diag">   17.80   17.80</time>
   <time name="diis">   77.92   77.93</time>
   <time name="orth">    3.45    3.45</time>
   <time name="total">  104.01  104.01</time>
   <energy>
    <i name="e_fr_energy">   -869.01008869 </i>
    <i name="e_wo_entrp">   -868.94769854 </i>
    <i name="e_0_energy">   -868.98929197 </i>
   </energy>
  </scstep>
  <scstep>
   <time name="diag">   17.77   17.77</time>
   <time name="diis">   70.36   70.37</time>
   <time name="orth">    3.49    3.49</time>
   <time name="total">   96.35   96.36</time>
   <energy>
    <i name="e_fr_energy">   -869.01006031 </i>
    <i name="e_wo_entrp">   -868.94766851 </i>
    <i name="e_0_energy">   -868.98926304 </i>
   </energy>
  </scstep>
  <scstep>
   <time name="diag">   17.78   17.78</time>
   <time name="diis">   84.51   84.52</time>
   <time name="orth">    3.45    3.45</time>
   <time name="total">  110.47  110.48</time>
   <energy>
    <i name="e_fr_energy">   -869.01006936 </i>
    <i name="e_wo_entrp">   -868.94766947 </i>
    <i name="e_0_energy">   -868.98926940 </i>
   </energy>
  </scstep>
  <scstep>
   <time name="diag">   17.78   17.78</time>
   <time name="diis">   69.59   69.59</time>
   <time name="orth">    3.46    3.46</time>
   <time name="total">   95.57   95.57</time>
   <energy>
    <i name="e_fr_energy">   -869.01006199 </i>
    <i name="e_wo_entrp">   -868.94766195 </i>
    <i name="e_0_energy">   -868.98926198 </i>
   </energy>
  </scstep>
  <scstep>
   <time name="diag">   17.76   17.76</time>
   <time name="diis">   60.02   60.02</time>
   <time name="orth">    3.47    3.47</time>
   <time name="total">   81.38   81.38</time>
   <energy>
    <i name="alphaZ">   7165.75404585 </i>
    <i name="ewald"> -65144.54377845 </i>
    <i name="hartreedc">  -9591.94381980 </i>
[...]
       <r>    -1.9491     1.5961     0.1653 </r>
       <r>    -1.9037     2.1659     0.2635 </r>
       <r>    -1.8584     2.7619     0.3887 </r>
       <r>    -1.8131     3.2960     0.5381 </r>
       <r>    -1.7678     3.6830     0.7050 </r>
       <r>    -1.7224     3.8915     0.8814 </r>
       <r>    -1.6771     3.9604     1.0608 </r>
       <r>    -1.6318     3.9720     1.2409 </r>
       <r>    -1.5865     4.0118     1.4227 </r>
       <r>    -1.5411     4.1463     1.6106 </r>
       <r>    -1.4958     4.4172     1.8108 </r>
       <r>    -1.4505     4.8366     2.0300 </r>
       <r>    -1.4052     5.3843     2.2741 </r>
       <r>    -1.3599     6.0089     2.5464 </r>
       <r>    -1.3145     6.6226     2.8466 </r>
       <r>    -1.2692     7.0948     3.1681 </r>
       <r>    -1.2239     7.2721     3.4977 </r>
       <r>    -1.1786     7.0505     3.8173 </r>
       <r>    -1.1332     6.4671     4.1104 </r>
       <r>    -1.0879     5.7332     4.3702 </r>
       <r>    -1.0426     5.1658     4.6044 </r>
       <r>    -0.9973     5.0508     4.8333 </r>
       <r>    -0.9519     5.5235     5.0836 </r>
       <r>    -0.9066     6.5302     5.3796 </r>
       <r>    -0.8613     7.8712     5.7363 </r>
       <r>    -0.8160     9.2747     6.1567 </r>
       <r>    -0.7707    10.4510     6.6303 </r>
       <r>    -0.7253    11.1263     7.1346 </r>
       <r>    -0.6800    11.0985     7.6376 </r>
       <r>    -0.6347    10.3331     8.1060 </r>
       <r>    -0.5894     9.0411     8.5157 </r>
       <r>    -0.5440     7.6548     8.8627 </r>
       <r>    -0.4987     6.6759     9.1652 </r>
       <r>    -0.4534     6.4723     9.4586 </r>
       <r>    -0.4081     7.1341     9.7819 </r>
       <r>    -0.3628     8.4582    10.1653 </r>
       <r>    -0.3174    10.0477    10.6207 </r>
       <r>    -0.2721    11.4659    11.1403 </r>
       <r>    -0.2268    12.3776    11.7013 </r>
       <r>    -0.1815    12.6443    12.2744 </r>
       <r>    -0.1361    12.3568    12.8345 </r>
       <r>    -0.0908    11.7947    13.3690 </r>
       <r>    -0.0455    11.3119    13.8817 </r>
       <r>    -0.0002    11.1828    14.3886 </r>
       <r>     0.0452    11.4895    14.9093 </r>
       <r>     0.0905    12.1142    15.4583 </r>
       <r>     0.1358    12.8353    16.0401 </r>
       <r>     0.1811    13.4530    16.6498 </r>
       <r>     0.2264    13.8603    17.2780 </r>
       <r>     0.2718    14.0322    17.9140 </r>
       <r>     0.3171    13.9746    18.5473 </r>
       <r>     0.3624    13.6961    19.1681 </r>
       <r>     0.4077    13.2271    19.7676 </r>
       <r>     0.4531    12.6682    20.3417 </r>
       <r>     0.4984    12.2281    20.8960 </r>
       <r>     0.5437    12.2110    21.4494 </r>
       <r>     0.5890    12.9166    22.0348 </r>
       <r>     0.6344    14.4642    22.6904 </r>
       <r>     0.6797    16.6358    23.4444 </r>
       <r>     0.7250    18.8794    24.3000 </r>
       <r>     0.7703    20.5391    25.2309 </r>
       <r>     0.8156    21.2056    26.1920 </r>
       <r>     0.8610    20.9450    27.1413 </r>
       <r>     0.9063    20.2125    28.0574 </r>
       <r>     0.9516    19.4949    28.9410 </r>
       <r>     0.9969    18.9590    29.8003 </r>
       <r>     1.0423    18.4140    30.6348 </r>
       <r>     1.0876    17.6380    31.4342 </r>
       <r>     1.1329    16.7837    32.1949 </r>
       <r>     1.1782    16.4799    32.9418 </r>
       <r>     1.2236    17.4954    33.7348 </r>
       <r>     1.2689    20.2014    34.6504 </r>
       <r>     1.3142    24.2239    35.7483 </r>
       <r>     1.3595    28.5149    37.0407 </r>
       <r>     1.4048    31.7903    38.4815 </r>
       <r>     1.4502    33.0926    39.9813 </r>
       <r>     1.4955    32.2273    41.4420 </r>
       <r>     1.5408    29.9042    42.7973 </r>
       <r>     1.5861    27.5410    44.0456 </r>
       <r>     1.6315    26.8059    45.2605 </r>
       <r>     1.6768    29.0645    46.5778 </r>
       <r>     1.7221    34.9294    48.1609 </r>
       <r>     1.7674    44.0856    50.1590 </r>
       <r>     1.8128    55.4645    52.6728 </r>
       <r>     1.8581    67.6729    55.7399 </r>
       <r>     1.9034    79.4209    59.3395 </r>
       <r>     1.9487    89.7060    63.4053 </r>
       <r>     1.9940    97.7555    67.8358 </r>
       <r>     2.0394   102.9772    72.5031 </r>
       <r>     2.0847   105.1372    77.2682 </r>
       <r>     2.1300   104.6682    82.0121 </r>
       <r>     2.1753   102.7659    86.6697 </r>
       <r>     2.2207   101.0371    91.2490 </r>
       <r>     2.2660   100.8203    95.8185 </r>
       <r>     2.3113   102.5768   100.4676 </r>
       <r>     2.3566   105.7502   105.2605 </r>
       <r>     2.4020   109.2373   110.2115 </r>
       <r>     2.4473   112.2214   115.2977 </r>
       <r>     2.4926   114.8025   120.5009 </r>
       <r>     2.5379   117.9048   125.8447 </r>
       <r>     2.5832   122.4697   131.3953 </r>
       <r>     2.6286   128.5787   137.2229 </r>
       <r>     2.6739   135.2796   143.3542 </r>
       <r>     2.7192   141.2935   149.7580 </r>
       <r>     2.7645   145.9794   156.3742 </r>
       <r>     2.8099   149.7126   163.1597 </r>
       <r>     2.8552   153.3906   170.1118 </r>
       <r>     2.9005   157.5538   177.2526 </r>
       <r>     2.9458   161.8794   184.5895 </r>
       <r>     2.9911   165.3991   192.0858 </r>
       <r>     3.0365   167.1678   199.6624 </r>
       <r>     3.0818   166.8145   207.2229 </r>
       <r>     3.1271   164.6238   214.6841 </r>
       <r>     3.1724   161.2468   221.9923 </r>
       <r>     3.2178   157.3913   229.1258 </r>
       <r>     3.2631   153.7195   236.0928 </r>
       <r>     3.3084   150.8634   242.9304 </r>
       <r>     3.3537   149.3268   249.6983 </r>
       <r>     3.3991   149.2173   256.4613 </r>
       <r>     3.4444   150.0338   263.2613 </r>
       <r>     3.4897   150.7747   270.0948 </r>
       <r>     3.5350   150.3884   276.9109 </r>
       <r>     3.5803   148.3048   283.6325 </r>
       <r>     3.6257   144.7384   290.1925 </r>
       <r>     3.6710   140.6069   296.5652 </r>
       <r>     3.7163   137.0997   302.7789 </r>
       <r>     3.7616   135.0619   308.9003 </r>
       <r>     3.8070   134.4753   314.9952 </r>
       <r>     3.8523   134.3876   321.0860 </r>
       <r>     3.8976   133.4910   327.1362 </r>
       <r>     3.9429   131.1065   333.0784 </r>
       <r>     3.9883   127.8958   338.8750 </r>
       <r>     4.0336   125.6611   344.5703 </r>
       <r>     4.0789   126.2598   350.2928 </r>
       <r>     4.1242   130.4287   356.2042 </r>
       <r>     4.1695   137.4567   362.4341 </r>
       <r>     4.2149   145.9152   369.0475 </r>
       <r>     4.2602   154.7008   376.0590 </r>
       <r>     4.3055   163.4101   383.4652 </r>
       <r>     4.3508   171.8025   391.2518 </r>
       <r>     4.3962   179.0653   399.3676 </r>
       <r>     4.4415   183.7741   407.6967 </r>
       <r>     4.4868   184.7152   416.0686 </r>
       <r>     4.5321   181.9056   424.3131 </r>
       <r>     4.5775   176.9979   432.3352 </r>
       <r>     4.6228   172.7797   440.1661 </r>
       <r>     4.6681   172.0718   447.9649 </r>
       <r>     4.7134   176.5763   455.9678 </r>
       <r>     4.7587   186.1612   464.4052 </r>
       <r>     4.8041   198.8722   473.4187 </r>
       <r>     4.8494   211.6957   483.0134 </r>
       <r>     4.8947   221.7625   493.0643 </r>
       <r>     4.9400   227.4374   503.3725 </r>
       <r>     4.9854   228.7910   513.7419 </r>
       <r>     5.0307   227.3095   524.0443 </r>
       <r>     5.0760   225.1265   534.2477 </r>
       <r>     5.1213   224.2471   544.4112 </r>
       <r>     5.1667   226.0737   554.6576 </r>
       <r>     5.2120   231.2000   565.1362 </r>
       <r>     5.2573   239.2331   575.9790 </r>
       <r>     5.3026   248.5644   587.2447 </r>
       <r>     5.3479   256.3780   598.8645 </r>
       <r>     5.3933   259.3207   610.6177 </r>
       <r>     5.4386   254.8552   622.1685 </r>
       <r>     5.4839   242.6367   633.1655 </r>
       <r>     5.5292   224.9646   643.3615 </r>
       <r>     5.5746   205.8238   652.6901 </r>
       <r>     5.6199   188.9843   661.2554 </r>
       <r>     5.6652   176.3199   669.2468 </r>
       <r>     5.7105   167.3827   676.8330 </r>
       <r>     5.7559   160.3912   684.1025 </r>
       <r>     5.8012   153.8362   691.0748 </r>
       <r>     5.8465   147.5933   697.7641 </r>
       <r>     5.8918   142.9217   704.2418 </r>
       <r>     5.9371   141.5443   710.6570 </r>
       <r>     5.9825   144.5151   717.2068 </r>
       <r>     6.0278   151.5400   724.0751 </r>
       <r>     6.0731   161.0473   731.3742 </r>
       <r>     6.1184   170.9153   739.1206 </r>
       <r>     6.1638   179.4769   747.2550 </r>
       <r>     6.2091   186.2442   755.6962 </r>
       <r>     6.2544   191.8671   764.3922 </r>
       <r>     6.2997   197.2949   773.3342 </r>
       <r>     6.3450   202.7565   782.5237 </r>
       <r>     6.3904   207.4252   791.9248 </r>
       <r>     6.4357   210.1045   801.4474 </r>
       <r>     6.4810   210.3329   810.9803 </r>
       <r>     6.5263   208.8469   820.4459 </r>
       <r>     6.5717   206.8893   829.8227 </r>
       <r>     6.6170   204.9481   839.1115 </r>
       <r>     6.6623   202.1335   848.2728 </r>
       <r>     6.7076   196.9061   857.1972 </r>
       <r>     6.7530   188.6567   865.7477 </r>
       <r>     6.7983   178.7945   873.8512 </r>
       <r>     6.8436   170.3136   881.5703 </r>
       <r>     6.8889   166.0442   889.0959 </r>
       <r>     6.9342   166.8932   896.6600 </r>
       <r>     6.9796   171.3976   904.4283 </r>
       <r>     7.0249   176.8558   912.4439 </r>
       <r>     7.0702   181.0877   920.6513 </r>
       <r>     7.1155   183.5355   928.9697 </r>
       <r>     7.1609   185.1402   937.3608 </r>
       <r>     7.2062   187.4426   945.8563 </r>
       <r>     7.2515   191.7283   954.5460 </r>
       <r>     7.2968   198.5682   963.5457 </r>
       <r>     7.3422   207.5023   972.9503 </r>
       <r>     7.3875   216.5966   982.7671 </r>
       <r>     7.4328   222.1607   992.8361 </r>
       <r>     7.4781   219.3323  1002.7769 </r>
       <r>     7.5234   203.8681  1012.0168 </r>
       <r>     7.5688   174.4827  1019.9248 </r>
       <r>     7.6141   134.2840  1026.0110 </r>
       <r>     7.6594    90.1197  1030.0955 </r>
       <r>     7.7047    49.9441  1032.3591 </r>
       <r>     7.7501    19.6762  1033.2509 </r>
       <r>     7.7954     1.3366  1033.3115 </r>
       <r>     7.8407    -6.7252  1033.0067 </r>
       <r>     7.8860    -8.0989  1032.6396 </r>
       <r>     7.9314    -6.3770  1032.3506 </r>
       <r>     7.9767    -4.0093  1032.1689 </r>
       <r>     8.0220    -2.1334  1032.0722 </r>
       <r>     8.0673    -0.9851  1032.0275 </r>
       <r>     8.1126    -0.3999  1032.0094 </r>
       <r>     8.1580    -0.1437  1032.0029 </r>
       <r>     8.2033    -0.0460  1032.0008 </r>
       <r>     8.2486    -0.0131  1032.0002 </r>
       <r>     8.2939    -0.0034  1032.0000 </r>
       <r>     8.3393    -0.0008  1032.0000 </r>
       <r>     8.3846    -0.0002  1032.0000 </r>
       <r>     8.4299    -0.0000  1032.0000 </r>
       <r>     8.4752    -0.0000  1032.0000 </r>
       <r>     8.5206    -0.0000  1032.0000 </r>
       <r>     8.5659    -0.0000  1032.0000 </r>
       <r>     8.6112    -0.0000  1032.0000 </r>
       <r>     8.6565    -0.0000  1032.0000 </r>
       <r>     8.7018    -0.0000  1032.0000 </r>
       <r>     8.7472    -0.0000  1032.0000 </r>
       <r>     8.7925    -0.0000  1032.0000 </r>
       <r>     8.8378    -0.0000  1032.0000 </r>
       <r>     8.8831     0.0000  1032.0000 </r>
       <r>     8.9285     0.0000  1032.0000 </r>
       <r>     8.9738     0.0000  1032.0000 </r>
       <r>     9.0191     0.0000  1032.0000 </r>
       <r>     9.0644     0.0000  1032.0000 </r>
       <r>     9.1098     0.0000  1032.0000 </r>
       <r>     9.1551     0.0000  1032.0000 </r>
       <r>     9.2004     0.0000  1032.0000 </r>
       <r>     9.2457     0.0000  1032.0000 </r>
       <r>     9.2910     0.0000  1032.0000 </r>
       <r>     9.3364     0.0000  1032.0000 </r>
       <r>     9.3817     0.0000  1032.0000 </r>
       <r>     9.4270     0.0000  1032.0000 </r>
       <r>     9.4723     0.0000  1032.0000 </r>
       <r>     9.5177     0.0000  1032.0000 </r>
       <r>     9.5630     0.0000  1032.0000 </r>
       <r>     9.6083     0.0000  1032.0000 </r>
      </set>
     </set>
    </array>
   </total>
  </dos>
 </calculation>
 <structure name="finalpos" >
  <crystal>
   <varray name="basis" >
    <v>      10.33484705       0.00000000       0.00000000 </v>
    <v>       0.00000000      10.33484705       0.00000000 </v>
    <v>       0.00000000       0.00000000      10.33484705 </v>
   </varray>
   <i name="volume">   1103.85533447 </i>
   <varray name="rec_basis" >
    <v>       0.09676002       0.00000000       0.00000000 </v>
    <v>       0.00000000       0.09676002       0.00000000 </v>
    <v>       0.00000000       0.00000000       0.09676002 </v>
   </varray>
  </crystal>
  <varray name="positions" >
   <v>       0.00000066      -0.00000087       0.00016579 </v>
   <v>       0.00000065       0.16650162       0.16666847 </v>
   <v>       0.00000060       0.33376842      -0.00019374 </v>
   <v>       0.00000060       0.50000079       0.16666818 </v>
   <v>       0.00000053       0.66623235      -0.00019375 </v>
   <v>       0.00000057       0.83349757       0.16666844 </v>
   <v>       0.00000062      -0.00000080       0.33316865 </v>
   <v>       0.00000056       0.16686127       0.50043267 </v>
   <v>       0.00000053       0.33376831       0.33352840 </v>
   <v>       0.00000049       0.50000079       0.50045710 </v>
   <v>       0.00000056       0.66623240       0.33352832 </v>
   <v>       0.00000058       0.83313790       0.50043265 </v>
   <v>       0.00000066      -0.00000080       0.66666485 </v>
   <v>       0.00000064       0.16686133       0.83289853 </v>
   <v>       0.00000050       0.33379173       0.66666485 </v>
   <v>       0.00000051       0.50000083       0.83287437 </v>
   <v>       0.00000053       0.66620896       0.66666486 </v>
   <v>       0.00000056       0.83313781       0.83289859 </v>
   <v>       0.16650205      -0.00000079       0.16666842 </v>
   <v>       0.16641564       0.16641509       0.00025253 </v>
   <v>       0.16641555       0.83358404       0.00025256 </v>
   <v>       0.16655646       0.33319244       0.49985814 </v>
   <v>       0.16866250       0.50000076       0.33532996 </v>
   <v>       0.16655656       0.66680820       0.49985819 </v>
   <v>       0.16686182      -0.00000076       0.83289853 </v>
   <v>       0.16850504       0.50000088       0.66666487 </v>
   <v>       0.16686147       0.33376821       0.16666822 </v>
   <v>       0.16686138       0.66623248       0.16666822 </v>
   <v>       0.16641561       0.16641508       0.33308181 </v>
   <v>       0.16641557       0.83358404       0.33308183 </v>
   <v>       0.16866001       0.16865938       0.66666419 </v>
   <v>       0.16655638       0.33319218       0.83347324 </v>
   <v>       0.16655646       0.66680845       0.83347318 </v>
   <v>       0.16866003       0.83133968       0.66666405 </v>
   <v>       0.16866268       0.50000075      -0.00199530 </v>
   <v>       0.16686173      -0.00000076       0.50043273 </v>
   <v>       0.33376746      -0.00000076      -0.00019376 </v>
   <v>       0.33376728       0.16686100       0.16666824 </v>
   <v>       0.33376727       0.83313820       0.16666821 </v>
   <v>       0.33319189       0.33319270       0.33322358 </v>
   <v>       0.33319191       0.66680791       0.33322373 </v>
   <v>       0.33319130       0.16655583       0.83347324 </v>
   <v>       0.33430529       0.33430634       0.66666840 </v>
   <v>       0.33430551       0.66569435       0.66666836 </v>
   <v>       0.33319140       0.83344315       0.83347315 </v>
   <v>       0.33319181       0.33319266       0.00011137 </v>
   <v>       0.33379079       0.50000075       0.16666795 </v>
   <v>       0.33319188       0.66680798       0.00011122 </v>
   <v>       0.33376741      -0.00000075       0.33352839 </v>
   <v>       0.33319159       0.16655594       0.49985813 </v>
   <v>       0.33319166       0.83344305       0.49985822 </v>
   <v>       0.33379077      -0.00000076       0.66666488 </v>
   <v>       0.33430448       0.50000088       0.83235692 </v>
   <v>       0.49999942      -0.00000079       0.16666821 </v>
   <v>       0.49999935       0.16866225      -0.00199542 </v>
   <v>       0.49999935       0.33379174       0.16666797 </v>
   <v>       0.49999937       0.50000088      -0.00183699 </v>
   <v>       0.49999944       0.66620895       0.16666792 </v>
   <v>       0.49999943       0.83133684      -0.00199556 </v>
   <v>       0.49999938      -0.00000073       0.50045710 </v>
   <v>       0.49999944       0.16866208       0.33533012 </v>
   <v>       0.49999939       0.33431040       0.50097583 </v>
   <v>       0.49999939       0.50000084       0.33517234 </v>
   <v>       0.49999864       0.66569160       0.50097584 </v>
   <v>       0.49999942       0.83133704       0.33532998 </v>
   <v>       0.49999933      -0.00000075       0.83287435 </v>
   <v>       0.49999934       0.16850433       0.66666482 </v>
   <v>       0.49999933       0.33430749       0.83235619 </v>
   <v>       0.49999939       0.66569319       0.83235589 </v>
   <v>       0.49999931       0.83149445       0.66666481 </v>
   <v>       0.66680765       0.33319272       0.00011143 </v>
   <v>       0.66620864       0.50000084       0.16666793 </v>
   <v>       0.66680764       0.66680799       0.00011129 </v>
   <v>       0.66623202      -0.00000073       0.33352835 </v>
   <v>       0.66680789       0.16655593       0.49985805 </v>
   <v>       0.66680781       0.83344306       0.49985816 </v>
   <v>       0.66620860      -0.00000073       0.66666480 </v>
   <v>       0.66569396       0.50000200       0.83235648 </v>
   <v>       0.66623210       0.16686097       0.16666830 </v>
   <v>       0.66623219       0.83313815       0.16666819 </v>
   <v>       0.66680762       0.33319267       0.33322361 </v>
   <v>       0.66680758       0.66680792       0.33322366 </v>
   <v>       0.66680811       0.16655581       0.83347324 </v>
   <v>       0.66569422       0.33430629       0.66666828 </v>
   <v>       0.66569399       0.66569437       0.66666832 </v>
   <v>       0.66680809       0.83344310       0.83347323 </v>
   <v>       0.66623193      -0.00000083      -0.00019374 </v>
   <v>       0.66569372       0.50000191       0.50097510 </v>
   <v>       0.83133794       0.50000082      -0.00199549 </v>
   <v>       0.83313889      -0.00000075       0.50043266 </v>
   <v>       0.83313917       0.33376827       0.16666828 </v>
   <v>       0.83313918       0.66623251       0.16666819 </v>
   <v>       0.83358500       0.16641516       0.33308191 </v>
   <v>       0.83358505       0.83358398       0.33308182 </v>
   <v>       0.83134064       0.16865954       0.66666399 </v>
   <v>       0.83344437       0.33319224       0.83347322 </v>
   <v>       0.83344421       0.66680846       0.83347322 </v>
   <v>       0.83134066       0.83133957       0.66666394 </v>
   <v>       0.83349851      -0.00000087       0.16666850 </v>
   <v>       0.83358504       0.16641513       0.00025254 </v>
   <v>       0.83358506       0.83358394       0.00025259 </v>
   <v>       0.83344422       0.33319245       0.49985809 </v>
   <v>       0.83133811       0.50000075       0.33532994 </v>
   <v>       0.83344412       0.66680818       0.49985817 </v>
   <v>       0.83313884      -0.00000083       0.83289852 </v>
   <v>       0.83149569       0.50000086       0.66666478 </v>
   <v>       0.33430582       0.50000193       0.50097526 </v>
  </varray>
 </structure>
</modeling>
