Opt                                     
           1
    10.334847    0.000000    0.000000
     0.000000   10.334847    0.000000
     0.000000    0.000000   10.334847
   Fe
 107
Direct configuration=     1
   0.00000000  0.00000000  0.00000000
   0.00000000  0.16666893  0.16666893
   0.00000000  0.33333106  0.00000000
   0.00000000  0.50000000  0.16666894
   0.00000000  0.66666897  0.00000000
   0.00000000  0.83333104  0.16666893
   0.00000000  0.00000000  0.33333106
   0.00000000  0.16666894  0.50000000
   0.00000000  0.33333107  0.33333107
   0.00000000  0.50000000  0.50000000
   0.00000000  0.66666896  0.33333107
   0.00000000  0.83333103  0.50000000
   0.00000000  0.00000000  0.66666897
   0.00000000  0.16666893  0.83333104
   0.00000000  0.33333107  0.66666896
   0.00000000  0.50000000  0.83333103
   0.00000000  0.66666896  0.66666896
   0.00000000  0.83333104  0.83333104
   0.16666893  0.00000000  0.16666893
   0.16666893  0.16666893  0.00000000
   0.16666893  0.83333104  0.00000000
   0.16666893  0.33333107  0.50000000
   0.16666893  0.50000000  0.33333107
   0.16666893  0.66666896  0.50000000
   0.16666893  0.00000000  0.83333104
   0.16666893  0.50000000  0.66666896
   0.16666893  0.33333107  0.16666893
   0.16666893  0.66666896  0.16666893
   0.16666893  0.16666893  0.33333107
   0.16666893  0.83333104  0.33333107
   0.16666893  0.16666893  0.66666896
   0.16666893  0.33333107  0.83333104
   0.16666893  0.66666896  0.83333104
   0.16666893  0.83333104  0.66666896
   0.16666894  0.50000000  0.00000000
   0.16666894  0.00000000  0.50000000
   0.33333106  0.00000000  0.00000000
   0.33333107  0.16666893  0.16666893
   0.33333107  0.83333104  0.16666893
   0.33333107  0.33333107  0.33333107
   0.33333107  0.66666896  0.33333107
   0.33333107  0.16666893  0.83333104
   0.33333107  0.33333107  0.66666896
   0.33333107  0.66666896  0.66666896
   0.33333107  0.83333104  0.83333104
   0.33333107  0.33333107  0.00000000
   0.33333107  0.50000000  0.16666893
   0.33333107  0.66666896  0.00000000
   0.33333107  0.00000000  0.33333107
   0.33333107  0.16666893  0.50000000
   0.33333107  0.83333104  0.50000000
   0.33333107  0.00000000  0.66666896
   0.33333107  0.50000000  0.83333104
   0.50000000  0.00000000  0.16666894
   0.50000000  0.16666894  0.00000000
   0.50000000  0.33333107  0.16666893
   0.50000000  0.50000000  0.00000000
   0.50000000  0.66666896  0.16666893
   0.50000000  0.83333103  0.00000000
   0.50000000  0.00000000  0.50000000
   0.50000000  0.16666893  0.33333107
   0.50000000  0.33333106  0.50000000
   0.50000000  0.50000000  0.33333106
   0.50000000  0.66666897  0.50000000
   0.50000000  0.83333104  0.33333107
   0.50000000  0.00000000  0.83333103
   0.50000000  0.16666893  0.66666896
   0.50000000  0.33333107  0.83333104
   0.50000000  0.66666896  0.83333104
   0.50000000  0.83333104  0.66666896
   0.66666896  0.33333107  0.00000000
   0.66666896  0.50000000  0.16666893
   0.66666896  0.66666896  0.00000000
   0.66666896  0.00000000  0.33333107
   0.66666896  0.16666893  0.50000000
   0.66666896  0.83333104  0.50000000
   0.66666896  0.00000000  0.66666896
   0.66666896  0.50000000  0.83333104
   0.66666896  0.16666893  0.16666893
   0.66666896  0.83333104  0.16666893
   0.66666896  0.33333107  0.33333107
   0.66666896  0.66666896  0.33333107
   0.66666896  0.16666893  0.83333104
   0.66666896  0.33333107  0.66666896
   0.66666896  0.66666896  0.66666896
   0.66666896  0.83333104  0.83333104
   0.66666897  0.00000000  0.00000000
   0.66666897  0.50000000  0.50000000
   0.83333103  0.50000000  0.00000000
   0.83333103  0.00000000  0.50000000
   0.83333104  0.33333107  0.16666893
   0.83333104  0.66666896  0.16666893
   0.83333104  0.16666893  0.33333107
   0.83333104  0.83333104  0.33333107
   0.83333104  0.16666893  0.66666896
   0.83333104  0.33333107  0.83333104
   0.83333104  0.66666896  0.83333104
   0.83333104  0.83333104  0.66666896
   0.83333104  0.00000000  0.16666893
   0.83333104  0.16666893  0.00000000
   0.83333104  0.83333104  0.00000000
   0.83333104  0.33333107  0.50000000
   0.83333104  0.50000000  0.33333107
   0.83333104  0.66666896  0.50000000
   0.83333104  0.00000000  0.83333104
   0.83333104  0.50000000  0.66666896
   0.33333106  0.50000000  0.50000000
Direct configuration=     2
   0.00000001  0.00000004  0.00026569
   0.00000000  0.16640142  0.16666704
  -0.00000002  0.33336087 -0.00006053
  -0.00000001  0.49999996  0.16666710
   0.00000001  0.66663911 -0.00006055
   0.00000003  0.83359860  0.16666704
   0.00000001  0.00000004  0.33306734
   0.00000001  0.16672759  0.50002790
   0.00000001  0.33336085  0.33339345
  -0.00000001  0.49999998  0.50007680
  -0.00000001  0.66663914  0.33339347
  -0.00000002  0.83327241  0.50002791
  -0.00000001  0.00000003  0.66666702
  -0.00000002  0.16672765  0.83330500
  -0.00000000  0.33340988  0.66666708
  -0.00000000  0.49999997  0.83325602
  -0.00000003  0.66659011  0.66666707
  -0.00000001  0.83327235  0.83330499
   0.16640140  0.00000002  0.16666706
   0.16653582  0.16653587  0.00013126
   0.16653586  0.83346412  0.00013126
   0.16671680  0.33328226  0.49994935
   0.16758639  0.49999996  0.33425236
   0.16671679  0.66671772  0.49994937
   0.16672760  0.00000003  0.83330501
   0.16757852  0.49999998  0.66666707
   0.16672758  0.33336086  0.16666708
   0.16672763  0.66663913  0.16666705
   0.16653586  0.16653589  0.33320176
   0.16653588  0.83346413  0.33320174
   0.16758638  0.16758643  0.66666705
   0.16671672  0.33328231  0.83338359
   0.16671673  0.66671769  0.83338361
   0.16758639  0.83241357  0.66666707
   0.16758646  0.49999999 -0.00091951
   0.16672756  0.00000004  0.50002789
   0.33336092 -0.00000000 -0.00006050
   0.33336092  0.16672760  0.16666709
   0.33336092  0.83327238  0.16666706
   0.33328228  0.33328224  0.33338248
   0.33328230  0.66671776  0.33338245
   0.33328230  0.16671677  0.83338362
   0.33353263  0.33353265  0.66666713
   0.33353264  0.66646735  0.66666716
   0.33328232  0.83328322  0.83338364
   0.33328235  0.33328233 -0.00004965
   0.33340997  0.49999999  0.16666709
   0.33328235  0.66671770 -0.00004963
   0.33336090  0.00000003  0.33339344
   0.33328228  0.16671683  0.49994932
   0.33328230  0.83328319  0.49994932
   0.33340988  0.00000002  0.66666705
   0.33353355  0.49999999  0.83313252
   0.49999998  0.00000002  0.16666712
   0.50000002  0.16758647 -0.00091948
   0.50000001  0.33340992  0.16666711
   0.50000001  0.49999999 -0.00091138
   0.49999998  0.66659008  0.16666709
   0.49999998  0.83241351 -0.00091949
   0.50000001  0.00000001  0.50007672
   0.49999999  0.16758641  0.33425235
   0.50000001  0.33353322  0.50020002
   0.50000002  0.49999998  0.33424413
   0.50000003  0.66646678  0.50020003
   0.49999998  0.83241359  0.33425235
   0.50000002  0.00000001  0.83325607
   0.50000001  0.16757857  0.66666705
   0.50000002  0.33353357  0.83313252
   0.50000002  0.66646644  0.83313253
   0.50000003  0.83242143  0.66666706
   0.66671770  0.33328232 -0.00004965
   0.66659006  0.49999997  0.16666710
   0.66671765  0.66671766 -0.00004966
   0.66663910  0.00000002  0.33339346
   0.66671773  0.16671683  0.49994934
   0.66671774  0.83328316  0.49994936
   0.66659016  0.00000000  0.66666707
   0.66646647  0.49999998  0.83313250
   0.66663910  0.16672764  0.16666706
   0.66663907  0.83327237  0.16666707
   0.66671773  0.33328226  0.33338247
   0.66671773  0.66671774  0.33338250
   0.66671774  0.16671678  0.83338362
   0.66646740  0.33353266  0.66666715
   0.66646739  0.66646736  0.66666714
   0.66671772  0.83328322  0.83338359
   0.66663909  0.00000004 -0.00006053
   0.66646680  0.49999999  0.50020005
   0.83241351  0.49999996 -0.00091952
   0.83327242  0.00000001  0.50002792
   0.83327238  0.33336087  0.16666705
   0.83327237  0.66663909  0.16666707
   0.83346413  0.16653590  0.33320175
   0.83346411  0.83346411  0.33320179
   0.83241358  0.16758643  0.66666707
   0.83328324  0.33328230  0.83338361
   0.83328323  0.66671769  0.83338356
   0.83241356  0.83241355  0.66666706
   0.83359861  0.00000005  0.16666704
   0.83346414  0.16653590  0.00013125
   0.83346414  0.83346413  0.00013123
   0.83328317  0.33328229  0.49994936
   0.83241357  0.49999997  0.33425238
   0.83328316  0.66671773  0.49994939
   0.83327237  0.00000003  0.83330498
   0.83242143  0.49999999  0.66666707
   0.33353323  0.49999997  0.50020004
Direct configuration=     3
   0.00000001  0.00000009  0.00055196
   0.00000000  0.16611319  0.16666501
  -0.00000003  0.33339299 -0.00012575
  -0.00000002  0.49999992  0.16666511
   0.00000002  0.66660693 -0.00012579
   0.00000006  0.83388689  0.16666501
   0.00000003  0.00000008  0.33278320
   0.00000003  0.16679078  0.50005795
   0.00000001  0.33339293  0.33346066
  -0.00000002  0.49999995  0.50015954
  -0.00000002  0.66660700  0.33346070
  -0.00000003  0.83320926  0.50005799
  -0.00000003  0.00000006  0.66666492
  -0.00000003  0.16679092  0.83327696
  -0.00000000  0.33349480  0.66666506
  -0.00000000  0.49999995  0.83317520
  -0.00000005  0.66650516  0.66666503
  -0.00000002  0.83320911  0.83327693
   0.16611315  0.00000004  0.16666504
   0.16639240  0.16639251  0.00027269
   0.16639248  0.83360750  0.00027269
   0.16676838  0.33322968  0.49989478
   0.16857490  0.49999992  0.33524500
   0.16676836  0.66677025  0.49989482
   0.16679080  0.00000005  0.83327696
   0.16855855  0.49999995  0.66666503
   0.16679077  0.33339297  0.16666507
   0.16679087  0.66660700  0.16666502
   0.16639248  0.16639254  0.33306243
   0.16639253  0.83360753  0.33306240
   0.16857488  0.16857498  0.66666500
   0.16676821  0.33322977  0.83344021
   0.16676822  0.66677020  0.83344025
   0.16857489  0.83142505  0.66666503
   0.16857504  0.49999998 -0.00191022
   0.16679072  0.00000008  0.50005794
   0.33339309 -0.00000000 -0.00012568
   0.33339309  0.16679081  0.16666511
   0.33339309  0.83320918  0.16666504
   0.33322972  0.33322963  0.33343787
   0.33322976  0.66677033  0.33343781
   0.33322976  0.16676831  0.83344027
   0.33374981  0.33374984  0.66666516
   0.33374983  0.66625012  0.66666521
   0.33322980  0.83323171  0.83344032
   0.33322986  0.33322982 -0.00010314
   0.33349499  0.49999999  0.16666511
   0.33322986  0.66677020 -0.00010311
   0.33339305  0.00000005  0.33346064
   0.33322971  0.16676843  0.49989471
   0.33322976  0.83323164  0.49989471
   0.33349480  0.00000004  0.66666500
   0.33375172  0.49999998  0.83291862
   0.49999996  0.00000003  0.16666516
   0.50000004  0.16857506 -0.00191016
   0.50000003  0.33349488  0.16666515
   0.50000001  0.49999997 -0.00189334
   0.49999996  0.66650510  0.16666511
   0.49999995  0.83142494 -0.00191018
   0.50000002  0.00000003  0.50015938
   0.49999998  0.16857494  0.33524498
   0.50000002  0.33375103  0.50041553
   0.50000003  0.49999996  0.33522791
   0.50000007  0.66624894  0.50041554
   0.49999997  0.83142509  0.33524498
   0.50000004  0.00000002  0.83317531
   0.50000002  0.16855865  0.66666499
   0.50000003  0.33375175  0.83291862
   0.50000004  0.66624824  0.83291864
   0.50000006  0.83144138  0.66666500
   0.66677020  0.33322980 -0.00010315
   0.66650505  0.49999993  0.16666512
   0.66677012  0.66677014 -0.00010316
   0.66660693  0.00000005  0.33346069
   0.66677027  0.16676844  0.49989476
   0.66677029  0.83323158  0.49989480
   0.66650525  0.00000001  0.66666502
   0.66624830  0.49999997  0.83291859
   0.66660692  0.16679089  0.16666505
   0.66660687  0.83320916  0.16666506
   0.66677028  0.33322967  0.33343786
   0.66677027  0.66677029  0.33343791
   0.66677029  0.16676833  0.83344028
   0.66625022  0.33374986  0.66666519
   0.66625022  0.66625014  0.66666517
   0.66677025  0.83323170  0.83344021
   0.66660689  0.00000008 -0.00012575
   0.66624898  0.49999999  0.50041558
   0.83142494  0.49999992 -0.00191025
   0.83320927  0.00000002  0.50005801
   0.83320919  0.33339299  0.16666503
   0.83320917  0.66660691  0.16666505
   0.83360752  0.16639256  0.33306241
   0.83360749  0.83360748  0.33306250
   0.83142506  0.16857498  0.66666504
   0.83323173  0.33322975  0.83344025
   0.83323173  0.66677020  0.83344016
   0.83142504  0.83142502  0.66666500
   0.83388690  0.00000010  0.16666501
   0.83360755  0.16639256  0.00027266
   0.83360755  0.83360752  0.00027262
   0.83323159  0.33322973  0.49989480
   0.83142506  0.49999994  0.33524503
   0.83323157  0.66677026  0.49989485
   0.83320915  0.00000007  0.83327690
   0.83144138  0.49999997  0.66666502
   0.33375105  0.49999993  0.50041557
Direct configuration=     4
   0.00000001  0.00000009  0.00053855
   0.00000000  0.16612669  0.16666510
  -0.00000003  0.33339149 -0.00012270
  -0.00000002  0.49999992  0.16666520
   0.00000002  0.66660844 -0.00012273
   0.00000005  0.83387337  0.16666510
   0.00000003  0.00000008  0.33279652
   0.00000003  0.16678782  0.50005654
   0.00000001  0.33339143  0.33345751
  -0.00000002  0.49999995  0.50015567
  -0.00000002  0.66660851  0.33345755
  -0.00000003  0.83321222  0.50005658
  -0.00000003  0.00000006  0.66666502
  -0.00000003  0.16678795  0.83327827
  -0.00000000  0.33349082  0.66666515
  -0.00000000  0.49999995  0.83317898
  -0.00000005  0.66650914  0.66666512
  -0.00000002  0.83321207  0.83327825
   0.16612666  0.00000004  0.16666513
   0.16639912  0.16639923  0.00026606
   0.16639920  0.83360078  0.00026607
   0.16676596  0.33323214  0.49989734
   0.16852857  0.49999993  0.33519848
   0.16676594  0.66676778  0.49989738
   0.16678784  0.00000005  0.83327827
   0.16851262  0.49999995  0.66666513
   0.16678781  0.33339146  0.16666517
   0.16678790  0.66660850  0.16666511
   0.16639920  0.16639926  0.33306896
   0.16639925  0.83360081  0.33306893
   0.16852855  0.16852865  0.66666509
   0.16676579  0.33323223  0.83343756
   0.16676581  0.66676774  0.83343759
   0.16852856  0.83147138  0.66666512
   0.16852871  0.49999998 -0.00186379
   0.16678776  0.00000008  0.50005653
   0.33339158 -0.00000000 -0.00012263
   0.33339158  0.16678785  0.16666521
   0.33339159  0.83321215  0.16666514
   0.33323219  0.33323209  0.33343528
   0.33323222  0.66676787  0.33343522
   0.33323222  0.16676589  0.83343761
   0.33373963  0.33373966  0.66666525
   0.33373965  0.66626030  0.66666530
   0.33323226  0.83323412  0.83343767
   0.33323232  0.33323228 -0.00010063
   0.33349101  0.49999999  0.16666520
   0.33323232  0.66676774 -0.00010060
   0.33339154  0.00000005  0.33345749
   0.33323218  0.16676601  0.49989727
   0.33323223  0.83323406  0.49989727
   0.33349082  0.00000004  0.66666509
   0.33374149  0.49999998  0.83292864
   0.49999996  0.00000003  0.16666525
   0.50000004  0.16852873 -0.00186373
   0.50000003  0.33349089  0.16666524
   0.50000001  0.49999997 -0.00184732
   0.49999996  0.66650908  0.16666521
   0.49999995  0.83147127 -0.00186375
   0.50000002  0.00000003  0.50015551
   0.49999998  0.16852861  0.33519846
   0.50000002  0.33374082  0.50040543
   0.50000003  0.49999996  0.33518180
   0.50000007  0.66625915  0.50040544
   0.49999997  0.83147142  0.33519846
   0.50000003  0.00000002  0.83317909
   0.50000002  0.16851271  0.66666508
   0.50000003  0.33374152  0.83292864
   0.50000004  0.66625847  0.83292866
   0.50000005  0.83148731  0.66666510
   0.66676774  0.33323226 -0.00010064
   0.66650903  0.49999993  0.16666521
   0.66676766  0.66676768 -0.00010065
   0.66660844  0.00000005  0.33345754
   0.66676780  0.16676603  0.49989732
   0.66676783  0.83323399  0.49989736
   0.66650923  0.00000001  0.66666512
   0.66625853  0.49999997  0.83292862
   0.66660842  0.16678793  0.16666514
   0.66660838  0.83321213  0.16666515
   0.66676782  0.33323214  0.33343527
   0.66676780  0.66676782  0.33343531
   0.66676782  0.16676591  0.83343762
   0.66626040  0.33373968  0.66666528
   0.66626039  0.66626032  0.66666526
   0.66676778  0.83323412  0.83343755
   0.66660840  0.00000007 -0.00012269
   0.66625918  0.49999999  0.50040548
   0.83147127  0.49999993 -0.00186382
   0.83321223  0.00000002  0.50005660
   0.83321215  0.33339148  0.16666512
   0.83321213  0.66660842  0.16666515
   0.83360080  0.16639928  0.33306894
   0.83360077  0.83360076  0.33306903
   0.83147139  0.16852865  0.66666514
   0.83323415  0.33323221  0.83343760
   0.83323414  0.66676774  0.83343750
   0.83147137  0.83147135  0.66666510
   0.83387339  0.00000010  0.16666510
   0.83360083  0.16639928  0.00026603
   0.83360083  0.83360080  0.00026600
   0.83323400  0.33323219  0.49989736
   0.83147138  0.49999994  0.33519851
   0.83323399  0.66676780  0.49989741
   0.83321211  0.00000006  0.83327822
   0.83148731  0.49999997  0.66666512
   0.33374084  0.49999994  0.50040547
Direct configuration=     5
   0.00000007 -0.00000002  0.00036254
   0.00000006  0.16630426  0.16666665
   0.00000006  0.33361441 -0.00011110
   0.00000006  0.50000002  0.16666649
   0.00000006  0.66638562 -0.00011111
   0.00000007  0.83369572  0.16666668
   0.00000007 -0.00000002  0.33297116
   0.00000006  0.16677801  0.50028054
   0.00000006  0.33361439  0.33344487
   0.00000005  0.50000003  0.50030553
   0.00000006  0.66638565  0.33344489
   0.00000006  0.83322196  0.50028054
   0.00000005 -0.00000001  0.66666636
   0.00000005  0.16677807  0.83305300
   0.00000005  0.33363942  0.66666635
   0.00000006  0.50000002  0.83302798
   0.00000005  0.66636061  0.66666633
   0.00000005  0.83322189  0.83305300
   0.16630414 -0.00000003  0.16666666
   0.16640003  0.16640017  0.00026673
   0.16640006  0.83359980  0.00026675
   0.16664453  0.33322632  0.49989241
   0.16859764  0.50000004  0.33526471
   0.16664456  0.66677372  0.49989243
   0.16677793 -0.00000002  0.83305303
   0.16855631  0.50000005  0.66666636
   0.16677786  0.33361438  0.16666657
   0.16677789  0.66638566  0.16666658
   0.16640001  0.16640013  0.33306699
   0.16640004  0.83359983  0.33306701
   0.16859342  0.16859358  0.66666526
   0.16664455  0.33322625  0.83344106
   0.16664456  0.66677378  0.83344105
   0.16859346  0.83140637  0.66666519
   0.16859767  0.50000003 -0.00193096
   0.16677788 -0.00000003  0.50028051
   0.33361421 -0.00000004 -0.00011108
   0.33361419  0.16677798  0.16666658
   0.33361419  0.83322197  0.16666657
   0.33322606  0.33322631  0.33331154
   0.33322609  0.66677374  0.33331156
   0.33322601  0.16664467  0.83344107
   0.33399005  0.33399031  0.66666641
   0.33399010  0.66600974  0.66666640
   0.33322604  0.83335528  0.83344106
   0.33322610  0.33322634  0.00002217
   0.33363916  0.50000004  0.16666656
   0.33322611  0.66677372  0.00002218
   0.33361417 -0.00000004  0.33344487
   0.33322607  0.16664465  0.49989240
   0.33322610  0.83335529  0.49989240
   0.33363921 -0.00000005  0.66666634
   0.33399046  0.50000005  0.83267644
   0.49999994 -0.00000004  0.16666650
   0.49999995  0.16859775 -0.00193092
   0.49999993  0.33363936  0.16666656
   0.49999992  0.50000004 -0.00188931
   0.49999992  0.66636068  0.16666656
   0.49999993  0.83140219 -0.00193098
   0.49999994 -0.00000006  0.50030550
   0.49999994  0.16859773  0.33526465
   0.49999993  0.33399065  0.50065679
   0.49999993  0.50000006  0.33522315
   0.49999993  0.66600943  0.50065679
   0.49999992  0.83140220  0.33526462
   0.49999995 -0.00000004  0.83302800
   0.49999993  0.16855643  0.66666637
   0.49999993  0.33399071  0.83267645
   0.49999993  0.66600934  0.83267640
   0.49999993  0.83144348  0.66666632
   0.66677386  0.33322632  0.00002218
   0.66636078  0.50000003  0.16666655
   0.66677382  0.66677372  0.00002217
   0.66638576 -0.00000004  0.33344488
   0.66677387  0.16664465  0.49989242
   0.66677385  0.83335528  0.49989243
   0.66636074 -0.00000004  0.66666634
   0.66600947  0.50000005  0.83267643
   0.66638575  0.16677799  0.16666656
   0.66638574  0.83322198  0.16666656
   0.66677388  0.33322630  0.33331154
   0.66677385  0.66677374  0.33331158
   0.66677395  0.16664466  0.83344108
   0.66600990  0.33399029  0.66666640
   0.66600985  0.66600977  0.66666637
   0.66677392  0.83335528  0.83344105
   0.66638573 -0.00000003 -0.00011110
   0.66600954  0.50000006  0.50065676
   0.83140240  0.50000002 -0.00193103
   0.83322219 -0.00000004  0.50028053
   0.83322220  0.33361438  0.16666656
   0.83322218  0.66638565  0.16666657
   0.83360004  0.16640014  0.33306700
   0.83360002  0.83359983  0.33306704
   0.83140663  0.16859358  0.66666521
   0.83335552  0.33322624  0.83344107
   0.83335550  0.66677379  0.83344103
   0.83140660  0.83140636  0.66666513
   0.83369593 -0.00000002  0.16666667
   0.83360001  0.16640017  0.00026673
   0.83360000  0.83359981  0.00026674
   0.83335553  0.33322632  0.49989241
   0.83140242  0.50000003  0.33526467
   0.83335550  0.66677372  0.49989243
   0.83322210 -0.00000002  0.83305301
   0.83144377  0.50000004  0.66666633
   0.33399040  0.50000006  0.50065680
Direct configuration=     6
   0.00000012 -0.00000011  0.00019974
   0.00000011  0.16646849  0.16666808
   0.00000014  0.33382060 -0.00010037
   0.00000014  0.50000011  0.16666769
   0.00000011  0.66617952 -0.00010035
   0.00000009  0.83353140  0.16666813
   0.00000011 -0.00000011  0.33313269
   0.00000009  0.16676893  0.50048772
   0.00000010  0.33382060  0.33343319
   0.00000012  0.50000011  0.50044414
   0.00000013  0.66617952  0.33343317
   0.00000014  0.83323098  0.50048769
   0.00000012 -0.00000008  0.66666759
   0.00000013  0.16676893  0.83284465
   0.00000011  0.33377686  0.66666746
   0.00000012  0.50000009  0.83288831
   0.00000014  0.66622324  0.66666744
   0.00000012  0.83323097  0.83284466
   0.16646829 -0.00000010  0.16666807
   0.16640087  0.16640104  0.00026735
   0.16640085  0.83359890  0.00026738
   0.16653222  0.33322093  0.49988786
   0.16866153  0.50000014  0.33532596
   0.16653228  0.66677920  0.49988785
   0.16676877 -0.00000009  0.83284469
   0.16859672  0.50000014  0.66666751
   0.16676866  0.33382056  0.16666787
   0.16676863  0.66617955  0.16666793
   0.16640076  0.16640094  0.33306516
   0.16640078  0.83359893  0.33306523
   0.16865343  0.16865363  0.66666541
   0.16653240  0.33322072  0.83344429
   0.16653241  0.66677937  0.83344426
   0.16865348  0.83134623  0.66666524
   0.16866146  0.50000007 -0.00199309
   0.16676874 -0.00000014  0.50048769
   0.33382012 -0.00000008 -0.00010040
   0.33382008  0.16676885  0.16666785
   0.33382009  0.83323105  0.16666789
   0.33322040  0.33322095  0.33319709
   0.33322041  0.66677917  0.33319718
   0.33322026  0.16653255  0.83344426
   0.33422167  0.33422215  0.66666749
   0.33422174  0.66577799  0.66666741
   0.33322028  0.83346734  0.83344421
   0.33322034  0.33322085  0.00013575
   0.33377619  0.50000010  0.16666781
   0.33322036  0.66677924  0.00013574
   0.33382009 -0.00000013  0.33343320
   0.33322042  0.16653240  0.49988791
   0.33322043  0.83346742  0.49988790
   0.33377647 -0.00000012  0.66666749
   0.33422074  0.50000011  0.83244317
   0.49999992 -0.00000010  0.16666766
   0.49999986  0.16866159 -0.00199306
   0.49999985  0.33377668  0.16666777
   0.49999983  0.50000011 -0.00192815
   0.49999989  0.66622343  0.16666782
   0.49999990  0.83133830 -0.00199316
   0.49999987 -0.00000014  0.50044424
   0.49999989  0.16866167  0.33532587
   0.49999984  0.33422172  0.50088929
   0.49999984  0.50000016  0.33526140
   0.49999981  0.66577845  0.50088926
   0.49999988  0.83133818  0.33532580
   0.49999987 -0.00000009  0.83288825
   0.49999985  0.16859686  0.66666756
   0.49999983  0.33422120  0.83244318
   0.49999984  0.66577891  0.83244307
   0.49999982  0.83140293  0.66666745
   0.66677952  0.33322083  0.00013579
   0.66622366  0.50000013  0.16666780
   0.66677953  0.66677930  0.00013578
   0.66617981 -0.00000011  0.33343316
   0.66677949  0.16653240  0.49988788
   0.66677943  0.83346746  0.49988787
   0.66622340 -0.00000009  0.66666748
   0.66577911  0.50000012  0.83244318
   0.66617979  0.16676880  0.16666788
   0.66617981  0.83323108  0.16666786
   0.66677949  0.33322090  0.33319711
   0.66677945  0.66677921  0.33319713
   0.66677962  0.16653252  0.83344427
   0.66577819  0.33422209  0.66666744
   0.66577811  0.66577803  0.66666740
   0.66677960  0.83346735  0.83344428
   0.66617978 -0.00000012 -0.00010038
   0.66577864  0.50000013  0.50088918
   0.83133869  0.50000011 -0.00199321
   0.83323140 -0.00000010  0.50048765
   0.83323149  0.33382055  0.16666789
   0.83323148  0.66617960  0.16666789
   0.83359934  0.16640094  0.33306520
   0.83359933  0.83359896  0.33306520
   0.83134672  0.16865364  0.66666527
   0.83346779  0.33322071  0.83344427
   0.83346776  0.66677939  0.83344429
   0.83134670  0.83134625  0.66666516
   0.83353179 -0.00000012  0.16666811
   0.83359926  0.16640099  0.00026738
   0.83359924  0.83359890  0.00026743
   0.83346793  0.33322090  0.49988783
   0.83133864  0.50000012  0.33532585
   0.83346790  0.66677920  0.49988783
   0.83323134 -0.00000010  0.83284471
   0.83140349  0.50000010  0.66666745
   0.33422122  0.50000017  0.50088926
Direct configuration=     7
   0.00000011 -0.00000010  0.00021585
   0.00000011  0.16645224  0.16666794
   0.00000013  0.33380020 -0.00010143
   0.00000013  0.50000010  0.16666757
   0.00000010  0.66619991 -0.00010142
   0.00000009  0.83354765  0.16666799
   0.00000010 -0.00000010  0.33311671
   0.00000008  0.16676983  0.50046722
   0.00000010  0.33380020  0.33343434
   0.00000011  0.50000010  0.50043042
   0.00000013  0.66619992  0.33343433
   0.00000013  0.83323009  0.50046719
   0.00000012 -0.00000008  0.66666747
   0.00000012  0.16676984  0.83286527
   0.00000010  0.33376326  0.66666735
   0.00000012  0.50000009  0.83290213
   0.00000013  0.66623683  0.66666733
   0.00000011  0.83323007  0.83286528
   0.16645205 -0.00000009  0.16666793
   0.16640079  0.16640095  0.00026729
   0.16640077  0.83359899  0.00026732
   0.16654333  0.33322147  0.49988831
   0.16865520  0.50000013  0.33531990
   0.16654339  0.66677866  0.49988831
   0.16676967 -0.00000008  0.83286531
   0.16859272  0.50000013  0.66666739
   0.16676957  0.33380016  0.16666774
   0.16676955  0.66619995  0.16666779
   0.16640069  0.16640086  0.33306534
   0.16640071  0.83359902  0.33306540
   0.16864749  0.16864769  0.66666539
   0.16654350  0.33322127  0.83344397
   0.16654351  0.66677881  0.83344394
   0.16864754  0.83135218  0.66666524
   0.16865515  0.50000006 -0.00198694
   0.16676964 -0.00000013  0.50046719
   0.33379975 -0.00000007 -0.00010146
   0.33379971  0.16676975  0.16666773
   0.33379972  0.83323016  0.16666776
   0.33322096  0.33322148  0.33320842
   0.33322097  0.66677863  0.33320850
   0.33322083  0.16654365  0.83344395
   0.33419875  0.33419921  0.66666738
   0.33419882  0.66580092  0.66666731
   0.33322085  0.83345625  0.83344389
   0.33322091  0.33322139  0.00012451
   0.33376263  0.50000009  0.16666769
   0.33322093  0.66677870  0.00012450
   0.33379971 -0.00000012  0.33343435
   0.33322098  0.16654351  0.49988835
   0.33322099  0.83345632  0.49988835
   0.33376288 -0.00000012  0.66666738
   0.33419795  0.50000011  0.83246625
   0.49999992 -0.00000010  0.16666754
   0.49999987  0.16865528 -0.00198691
   0.49999986  0.33376309  0.16666765
   0.49999984  0.50000010 -0.00192431
   0.49999989  0.66623701  0.16666770
   0.49999991  0.83134462 -0.00198701
   0.49999988 -0.00000013  0.50043051
   0.49999990  0.16865534  0.33531981
   0.49999985  0.33419886  0.50086628
   0.49999985  0.50000015  0.33525761
   0.49999982  0.66580131  0.50086626
   0.49999988  0.83134451  0.33531975
   0.49999988 -0.00000008  0.83290207
   0.49999986  0.16859286  0.66666744
   0.49999984  0.33419839  0.83246626
   0.49999985  0.66580171  0.83246616
   0.49999983  0.83140694  0.66666734
   0.66677896  0.33322137  0.00012454
   0.66623723  0.50000012  0.16666768
   0.66677896  0.66677875  0.00012454
   0.66620019 -0.00000011  0.33343432
   0.66677893  0.16654350  0.49988833
   0.66677887  0.83345636  0.49988832
   0.66623699 -0.00000009  0.66666736
   0.66580190  0.50000011  0.83246626
   0.66620017  0.16676971  0.16666775
   0.66620019  0.83323018  0.16666773
   0.66677894  0.33322143  0.33320843
   0.66677890  0.66677867  0.33320846
   0.66677906  0.16654362  0.83344396
   0.66580112  0.33419916  0.66666734
   0.66580104  0.66580096  0.66666730
   0.66677904  0.83345626  0.83344396
   0.66620016 -0.00000011 -0.00010144
   0.66580149  0.50000013  0.50086618
   0.83134500  0.50000010 -0.00198706
   0.83323049 -0.00000009  0.50046715
   0.83323057  0.33380014  0.16666776
   0.83323056  0.66619999  0.16666776
   0.83359941  0.16640086  0.33306538
   0.83359940  0.83359905  0.33306539
   0.83135265  0.16864769  0.66666526
   0.83345668  0.33322126  0.83344396
   0.83345665  0.66677884  0.83344397
   0.83135263  0.83135220  0.66666515
   0.83354803 -0.00000011  0.16666797
   0.83359933  0.16640091  0.00026732
   0.83359931  0.83359899  0.00026736
   0.83345681  0.33322143  0.49988829
   0.83134495  0.50000011  0.33531980
   0.83345678  0.66677866  0.49988828
   0.83323043 -0.00000009  0.83286532
   0.83140748  0.50000010  0.66666734
   0.33419838  0.50000016  0.50086626
Direct configuration=     8
   0.00000066 -0.00000087  0.00016579
   0.00000065  0.16650162  0.16666847
   0.00000060  0.33376842 -0.00019374
   0.00000060  0.50000079  0.16666818
   0.00000053  0.66623235 -0.00019375
   0.00000057  0.83349757  0.16666844
   0.00000062 -0.00000080  0.33316865
   0.00000056  0.16686127  0.50043267
   0.00000053  0.33376831  0.33352840
   0.00000049  0.50000079  0.50045710
   0.00000056  0.66623240  0.33352832
   0.00000058  0.83313790  0.50043265
   0.00000066 -0.00000080  0.66666485
   0.00000064  0.16686133  0.83289853
   0.00000050  0.33379173  0.66666485
   0.00000051  0.50000083  0.83287437
   0.00000053  0.66620896  0.66666486
   0.00000056  0.83313781  0.83289859
   0.16650205 -0.00000079  0.16666842
   0.16641564  0.16641509  0.00025253
   0.16641555  0.83358404  0.00025256
   0.16655646  0.33319244  0.49985814
   0.16866250  0.50000076  0.33532996
   0.16655656  0.66680820  0.49985819
   0.16686182 -0.00000076  0.83289853
   0.16850504  0.50000088  0.66666487
   0.16686147  0.33376821  0.16666822
   0.16686138  0.66623248  0.16666822
   0.16641561  0.16641508  0.33308181