 108 108   0   0
  0.1022088E+02  0.1033485E-08  0.1033485E-08  0.1033485E-08  0.5000000E-15
  1.000000000000000E-004
  CAR 
 Opt                                     
     10.18812175     -4.00053462  301      6.80851831      1.00000000
     -4.001  0.0000E+00  0.0000E+00
     -3.953  0.0000E+00  0.0000E+00
     -3.906  0.0000E+00  0.0000E+00
     -3.859  0.0000E+00  0.0000E+00
     -3.811  0.0000E+00  0.0000E+00
     -3.764  0.0000E+00  0.0000E+00
     -3.717  0.0000E+00  0.0000E+00
     -3.669  0.0000E+00  0.0000E+00
     -3.622 -0.2173E-30 -0.1028E-31
     -3.575 -0.9366E-29 -0.4532E-30
     -3.528 -0.3564E-27 -0.1731E-28
     -3.480 -0.1214E-25 -0.5914E-27
     -3.433 -0.3694E-24 -0.1806E-25
     -3.386 -0.1005E-22 -0.4934E-24
     -3.338 -0.2445E-21 -0.1206E-22
     -3.291 -0.5318E-20 -0.2636E-21
     -3.244 -0.1034E-18 -0.5155E-20
     -3.197 -0.1799E-17 -0.9024E-19
     -3.149 -0.2724E-16 -0.1379E-17
     -3.102 -0.3767E-15 -0.1920E-16
     -3.055 -0.4683E-14 -0.2407E-15
     -3.007 -0.5205E-13 -0.2702E-14
     -2.960 -0.5174E-12 -0.2718E-13
     -2.913 -0.4604E-11 -0.2449E-12
     -2.865 -0.3666E-10 -0.1979E-11
     -2.818 -0.2613E-09 -0.1434E-10
     -2.771 -0.1667E-08 -0.9319E-10
     -2.724 -0.9523E-08 -0.5436E-09
     -2.676 -0.4867E-07 -0.2846E-08
     -2.629 -0.2226E-06 -0.1337E-07
     -2.582 -0.9097E-06 -0.5640E-07
     -2.534 -0.3320E-05 -0.2134E-06
     -2.487 -0.1080E-04 -0.7243E-06
     -2.440 -0.3123E-04 -0.2201E-05
     -2.392 -0.7990E-04 -0.5980E-05
     -2.345 -0.1796E-03 -0.1447E-04
     -2.298 -0.3503E-03 -0.3104E-04
     -2.251 -0.5797E-03 -0.5846E-04
     -2.203 -0.7732E-03 -0.9503E-04
     -2.156 -0.7083E-03 -0.1285E-03
     -2.109 -0.4198E-04 -0.1305E-03
     -2.061  0.1585E-02 -0.5556E-04
     -2.014  0.4372E-02  0.1512E-03
     -1.967  0.8236E-02  0.5407E-03
     -1.920  0.1285E-01  0.1149E-02
     -1.872  0.1787E-01  0.1994E-02
     -1.825  0.2302E-01  0.3082E-02
     -1.778  0.2808E-01  0.4410E-02
     -1.730  0.3260E-01  0.5952E-02
     -1.683  0.3600E-01  0.7655E-02
     -1.636  0.3804E-01  0.9454E-02
     -1.588  0.3927E-01  0.1131E-01
     -1.541  0.4089E-01  0.1324E-01
     -1.494  0.4386E-01  0.1532E-01
     -1.447  0.4810E-01  0.1759E-01
     -1.399  0.5251E-01  0.2008E-01
     -1.352  0.5592E-01  0.2272E-01
     -1.305  0.5790E-01  0.2546E-01
     -1.257  0.5874E-01  0.2824E-01
     -1.210  0.5890E-01  0.3102E-01
     -1.163  0.5868E-01  0.3380E-01
     -1.116  0.5863E-01  0.3657E-01
     -1.068  0.5984E-01  0.3940E-01
     -1.021  0.6345E-01  0.4240E-01
     -0.974  0.6962E-01  0.4570E-01
     -0.926  0.7697E-01  0.4934E-01
     -0.879  0.8323E-01  0.5327E-01
     -0.832  0.8631E-01  0.5736E-01
     -0.784  0.8524E-01  0.6139E-01
     -0.737  0.8055E-01  0.6520E-01
     -0.690  0.7438E-01  0.6871E-01
     -0.643  0.7008E-01  0.7203E-01
     -0.595  0.7087E-01  0.7538E-01
     -0.548  0.7801E-01  0.7907E-01
     -0.501  0.8967E-01  0.8331E-01
     -0.453  0.1018E+00  0.8812E-01
     -0.406  0.1102E+00  0.9334E-01
     -0.359  0.1129E+00  0.9868E-01
     -0.311  0.1100E+00  0.1039E+00
     -0.264  0.1035E+00  0.1088E+00
     -0.217  0.9668E-01  0.1133E+00
     -0.170  0.9295E-01  0.1177E+00
     -0.122  0.9465E-01  0.1222E+00
     -0.075  0.1016E+00  0.1270E+00
     -0.028  0.1108E+00  0.1323E+00
      0.020  0.1185E+00  0.1379E+00
      0.067  0.1222E+00  0.1436E+00
      0.114  0.1222E+00  0.1494E+00
      0.161  0.1215E+00  0.1552E+00
      0.209  0.1232E+00  0.1610E+00
      0.256  0.1287E+00  0.1671E+00
      0.303  0.1368E+00  0.1735E+00
      0.351  0.1441E+00  0.1804E+00
      0.398  0.1475E+00  0.1873E+00
      0.445  0.1460E+00  0.1942E+00
      0.493  0.1411E+00  0.2009E+00
      0.540  0.1358E+00  0.2073E+00
      0.587  0.1328E+00  0.2136E+00
      0.634  0.1339E+00  0.2200E+00
      0.682  0.1400E+00  0.2266E+00
      0.729  0.1513E+00  0.2337E+00
      0.776  0.1669E+00  0.2416E+00
      0.824  0.1841E+00  0.2503E+00
      0.871  0.1982E+00  0.2597E+00
      0.918  0.2040E+00  0.2694E+00
      0.965  0.1993E+00  0.2788E+00
      1.013  0.1868E+00  0.2876E+00
      1.060  0.1735E+00  0.2958E+00
      1.107  0.1668E+00  0.3037E+00
      1.155  0.1713E+00  0.3118E+00
      1.202  0.1872E+00  0.3207E+00
      1.249  0.2109E+00  0.3306E+00
      1.297  0.2368E+00  0.3418E+00
      1.344  0.2586E+00  0.3541E+00
      1.391  0.2706E+00  0.3669E+00
      1.438  0.2700E+00  0.3796E+00
      1.486  0.2591E+00  0.3919E+00
      1.533  0.2458E+00  0.4035E+00
      1.580  0.2410E+00  0.4149E+00
      1.628  0.2537E+00  0.4269E+00
      1.675  0.2860E+00  0.4405E+00
      1.722  0.3330E+00  0.4562E+00
      1.770  0.3878E+00  0.4745E+00
      1.817  0.4478E+00  0.4957E+00
      1.864  0.5172E+00  0.5202E+00
      1.911  0.6021E+00  0.5487E+00
      1.959  0.7035E+00  0.5819E+00
      2.006  0.8129E+00  0.6204E+00
      2.053  0.9147E+00  0.6636E+00
      2.101  0.9938E+00  0.7106E+00
      2.148  0.1043E+01  0.7600E+00
      2.195  0.1065E+01  0.8103E+00
      2.242  0.1069E+01  0.8609E+00
      2.290  0.1064E+01  0.9112E+00
      2.337  0.1057E+01  0.9612E+00
      2.384  0.1051E+01  0.1011E+01
      2.432  0.1052E+01  0.1061E+01
      2.479  0.1067E+01  0.1111E+01
      2.526  0.1099E+01  0.1163E+01
      2.574  0.1147E+01  0.1217E+01
      2.621  0.1201E+01  0.1274E+01
      2.668  0.1253E+01  0.1333E+01
      2.715  0.1302E+01  0.1395E+01
      2.763  0.1354E+01  0.1459E+01
      2.810  0.1417E+01  0.1526E+01
      2.857  0.1487E+01  0.1596E+01
      2.905  0.1555E+01  0.1670E+01
      2.952  0.1605E+01  0.1746E+01
      2.999  0.1637E+01  0.1823E+01
      3.046  0.1655E+01  0.1901E+01
      3.094  0.1667E+01  0.1980E+01
      3.141  0.1674E+01  0.2060E+01
      3.188  0.1667E+01  0.2138E+01
      3.236  0.1643E+01  0.2216E+01
      3.283  0.1608E+01  0.2292E+01
      3.330  0.1569E+01  0.2366E+01
      3.378  0.1532E+01  0.2439E+01
      3.425  0.1500E+01  0.2510E+01
      3.472  0.1475E+01  0.2580E+01
      3.519  0.1464E+01  0.2649E+01
      3.567  0.1470E+01  0.2718E+01
      3.614  0.1484E+01  0.2788E+01
      3.661  0.1490E+01  0.2859E+01
      3.709  0.1473E+01  0.2929E+01
      3.756  0.1431E+01  0.2996E+01
      3.803  0.1379E+01  0.3062E+01
      3.851  0.1332E+01  0.3125E+01
      3.898  0.1301E+01  0.3186E+01
      3.945  0.1286E+01  0.3247E+01
      3.992  0.1277E+01  0.3307E+01
      4.040  0.1268E+01  0.3367E+01
      4.087  0.1261E+01  0.3427E+01
      4.134  0.1266E+01  0.3487E+01
      4.182  0.1294E+01  0.3548E+01
      4.229  0.1352E+01  0.3612E+01
      4.276  0.1436E+01  0.3680E+01
      4.323  0.1535E+01  0.3752E+01
      4.371  0.1632E+01  0.3830E+01
      4.418  0.1708E+01  0.3910E+01
      4.465  0.1752E+01  0.3993E+01
      4.513  0.1762E+01  0.4077E+01
      4.560  0.1756E+01  0.4160E+01
      4.607  0.1754E+01  0.4243E+01
      4.655  0.1769E+01  0.4326E+01
      4.702  0.1801E+01  0.4411E+01
      4.749  0.1846E+01  0.4499E+01
      4.796  0.1898E+01  0.4589E+01
      4.844  0.1955E+01  0.4681E+01
      4.891  0.2019E+01  0.4776E+01
      4.938  0.2084E+01  0.4875E+01
      4.986  0.2142E+01  0.4976E+01
      5.033  0.2185E+01  0.5080E+01
      5.080  0.2210E+01  0.5184E+01
      5.128  0.2223E+01  0.5289E+01
      5.175  0.2240E+01  0.5395E+01
      5.222  0.2280E+01  0.5503E+01
      5.269  0.2351E+01  0.5614E+01
      5.317  0.2451E+01  0.5730E+01
      5.364  0.2559E+01  0.5851E+01
      5.411  0.2642E+01  0.5976E+01
      5.459  0.2663E+01  0.6102E+01
      5.506  0.2601E+01  0.6225E+01
      5.553  0.2462E+01  0.6342E+01
      5.600  0.2275E+01  0.6449E+01
      5.648  0.2083E+01  0.6548E+01
      5.695  0.1917E+01  0.6638E+01
      5.742  0.1789E+01  0.6723E+01
      5.790  0.1697E+01  0.6803E+01
      5.837  0.1630E+01  0.6880E+01
      5.884  0.1580E+01  0.6955E+01
      5.932  0.1537E+01  0.7028E+01
      5.979  0.1499E+01  0.7099E+01
      6.026  0.1470E+01  0.7168E+01
      6.073  0.1458E+01  0.7237E+01
      6.121  0.1474E+01  0.7307E+01
      6.168  0.1527E+01  0.7379E+01
      6.215  0.1613E+01  0.7455E+01
      6.263  0.1723E+01  0.7537E+01
      6.310  0.1836E+01  0.7624E+01
      6.357  0.1938E+01  0.7715E+01
      6.404  0.2022E+01  0.7811E+01
      6.452  0.2091E+01  0.7910E+01
      6.499  0.2145E+01  0.8011E+01
      6.546  0.2172E+01  0.8114E+01
      6.594  0.2160E+01  0.8216E+01
      6.641  0.2104E+01  0.8316E+01
      6.688  0.2022E+01  0.8411E+01
      6.736  0.1941E+01  0.8503E+01
      6.783  0.1884E+01  0.8592E+01
      6.830  0.1853E+01  0.8680E+01
      6.877  0.1831E+01  0.8767E+01
      6.925  0.1802E+01  0.8852E+01
      6.972  0.1763E+01  0.8935E+01
      7.019  0.1727E+01  0.9017E+01
      7.067  0.1711E+01  0.9098E+01
      7.114  0.1723E+01  0.9179E+01
      7.161  0.1755E+01  0.9262E+01
      7.209  0.1786E+01  0.9347E+01
      7.256  0.1805E+01  0.9432E+01
      7.303  0.1813E+01  0.9518E+01
      7.350  0.1826E+01  0.9604E+01
      7.398  0.1857E+01  0.9692E+01
      7.445  0.1908E+01  0.9782E+01
      7.492  0.1962E+01  0.9875E+01
      7.540  0.1985E+01  0.9969E+01
      7.587  0.1945E+01  0.1006E+02
      7.634  0.1816E+01  0.1015E+02
      7.681  0.1589E+01  0.1022E+02
      7.729  0.1278E+01  0.1028E+02
      7.776  0.9187E+00  0.1033E+02
      7.823  0.5671E+00  0.1035E+02
      7.871  0.2761E+00  0.1037E+02
      7.918  0.7765E-01  0.1037E+02
      7.965 -0.2706E-01  0.1037E+02
      8.013 -0.6089E-01  0.1037E+02
      8.060 -0.5522E-01  0.1036E+02
      8.107 -0.3597E-01  0.1036E+02
      8.154 -0.1791E-01  0.1036E+02
      8.202 -0.6127E-02  0.1036E+02
      8.249 -0.3521E-03  0.1036E+02
      8.296  0.1489E-02  0.1036E+02
      8.344  0.1403E-02  0.1036E+02
      8.391  0.7308E-03  0.1036E+02
      8.438  0.1473E-03  0.1036E+02
      8.485 -0.1517E-03  0.1036E+02
      8.533 -0.2184E-03  0.1036E+02
      8.580 -0.1720E-03  0.1036E+02
      8.627 -0.1026E-03  0.1036E+02
      8.675 -0.5027E-04  0.1036E+02
      8.722 -0.2090E-04  0.1036E+02
      8.769 -0.7498E-05  0.1036E+02
      8.817 -0.2344E-05  0.1036E+02
      8.864 -0.6422E-06  0.1036E+02
      8.911 -0.1549E-06  0.1036E+02
      8.958 -0.3300E-07  0.1036E+02
      9.006 -0.6222E-08  0.1036E+02
      9.053 -0.1040E-08  0.1036E+02
      9.100 -0.1542E-09  0.1036E+02
      9.148 -0.2033E-10  0.1036E+02
      9.195 -0.2383E-11  0.1036E+02
      9.242 -0.2485E-12  0.1036E+02
      9.290 -0.2308E-13  0.1036E+02
      9.337 -0.1911E-14  0.1036E+02
      9.384 -0.1397E-15  0.1036E+02
      9.431 -0.9014E-17  0.1036E+02
      9.479  0.0000E+00  0.1036E+02
      9.526  0.0000E+00  0.1036E+02
      9.573  0.0000E+00  0.1036E+02
      9.621  0.0000E+00  0.1036E+02
      9.668  0.0000E+00  0.1036E+02
      9.715  0.0000E+00  0.1036E+02
      9.762  0.0000E+00  0.1036E+02
      9.810  0.0000E+00  0.1036E+02
      9.857  0.0000E+00  0.1036E+02
      9.904  0.0000E+00  0.1036E+02
      9.952  0.0000E+00  0.1036E+02
      9.999  0.0000E+00  0.1036E+02
     10.046  0.0000E+00  0.1036E+02
     10.094  0.0000E+00  0.1036E+02
     10.141  0.0000E+00  0.1036E+02
     10.188  0.0000E+00  0.1036E+02
