  108  108  100    1
  0.1022088E+02  0.1033485E-08  0.1033485E-08  0.1033485E-08  0.5000000E-15
  1.000000000000000E-004
  CAR 
 Opt                                     
    864     10    518
 
  0.0000000E+00  0.0000000E+00  0.0000000E+00  0.8000000E-02
    1       -2.000535   1.000000
    2       -0.508860   1.000000
    3       -0.508860   1.000000
    4       -0.508860   1.000000
    5       -0.507786   1.000000
    6       -0.507786   1.000000
    7       -0.507786   1.000000
    8        0.782108   1.000000
    9        0.782108   1.000000
   10        0.782108   1.000000
   11        0.783105   1.000000
   12        0.783105   1.000000
   13        0.783105   1.000000
   14        0.783105   1.000000
   15        0.783105   1.000000
   16        0.783105   1.000000
   17        0.784101   1.000000
   18        0.784101   1.000000
   19        0.784101   1.000000
   20        1.421683   1.000000
   21        1.422346   1.000000
   22        1.422346   1.000000
   23        1.422346   1.000000
   24        1.423010   1.000000
   25        1.423010   1.000000
   26        1.423010   1.000000
   27        1.423674   1.000000
   28        1.866555   1.000000
   29        1.866555   1.000000
   30        1.866555   1.000000
   31        1.898911   1.000000
   32        1.898911   1.000000
   33        1.898911   1.000000
   34        1.899540   1.000000
   35        1.899540   1.000000
   36        1.899540   1.000000
   37        2.593902   1.000000
   38        2.593902   1.000000
   39        2.593902   1.000000
   40        2.593905   1.000000
   41        2.593905   1.000000
   42        2.593905   1.000000
   43        2.593907   1.000000
   44        2.593907   1.000000
   45        2.593907   1.000000
   46        2.593914   1.000000
   47        2.593914   1.000000
   48        2.593914   1.000000
   49        2.594076   1.000000
   50        2.594076   1.000000
   51        2.594076   1.000000
   52        2.594084   1.000000
   53        2.594084   1.000000
   54        2.594084   1.000000
   55        2.594085   1.000000
   56        2.594085   1.000000
   57        2.594085   1.000000
   58        2.594089   1.000000
   59        2.594089   1.000000
   60        2.594089   1.000000
   61        2.608528   1.000000
   62        2.608528   1.000000
   63        2.608528   1.000000
   64        2.668230   1.000000
   65        2.668230   1.000000
   66        2.668230   1.000000
   67        2.668230   1.000000
   68        2.668230   1.000000
   69        2.668230   1.000000
   70        2.669194   1.000000
   71        2.669194   1.000000
   72        2.669194   1.000000
   73        2.669195   1.000000
   74        2.669195   1.000000
   75        2.669195   1.000000
   76        2.882034   1.000000
   77        2.882034   1.000000
   78        2.882034   1.000000
   79        2.882034   1.000000
   80        2.882034   1.000000
   81        2.882034   1.000000
   82        2.882512   1.000000
   83        2.882512   1.000000
   84        2.882512   1.000000
   85        2.882512   1.000000
   86        2.882512   1.000000
   87        2.882512   1.000000
   88        2.882973   1.000000
   89        2.882973   1.000000
   90        2.882973   1.000000
   91        2.882973   1.000000
   92        2.882973   1.000000
   93        2.882973   1.000000
   94        2.883451   1.000000
   95        2.883451   1.000000
   96        2.883451   1.000000
   97        2.883452   1.000000
   98        2.883452   1.000000
   99        2.883452   1.000000
  100        3.186899   1.000000
  101        3.186900   1.000000
  102        3.186900   1.000000
  103        3.187933   1.000000
  104        3.187933   1.000000
  105        3.187933   1.000000
  106        3.314509   1.000000
  107        3.314509   1.000000
  108        3.314509   1.000000
  109        3.314631   1.000000
  110        3.314631   1.000000
  111        3.314631   1.000000
  112        3.314631   1.000000
  113        3.314631   1.000000
  114        3.314631   1.000000
  115        3.314746   1.000000
  116        3.314746   1.000000
  117        3.314747   1.000000
  118        3.324473   1.000000
  119        3.324473   1.000000
  120        3.324473   1.000000
  121        3.324474   1.000000
  122        3.324474   1.000000
  123        3.324474   1.000000
  124        3.325436   1.000000
  125        3.325436   1.000000
  126        3.325436   1.000000
  127        3.325436   1.000000
  128        3.325436   1.000000
  129        3.325436   1.000000
  130        3.571130   1.000000
  131        3.571130   1.000000
  132        3.571131   1.000000
  133        3.571142   1.000000
  134        3.571142   1.000000
  135        3.571142   1.000000
  136        3.571143   1.000000
  137        3.571143   1.000000
  138        3.571143   1.000000
  139        3.571161   1.000000
  140        3.571161   1.000000
  141        3.571161   1.000000
  142        3.693892   1.000000
  143        3.693892   1.000000
  144        3.693892   1.000000
  145        3.693892   1.000000
  146        3.693892   1.000000
  147        3.693892   1.000000
  148        3.694744   1.000000
  149        3.694744   1.000000
  150        3.694744   1.000000
  151        3.694745   1.000000
  152        3.694745   1.000000
  153        3.694745   1.000000
  154        3.694830   1.000000
  155        3.694830   1.000000
  156        3.694830   1.000000
  157        3.694830   1.000000
  158        3.694830   1.000000
  159        3.694830   1.000000
  160        3.695682   1.000000
  161        3.695682   1.000000
  162        3.695682   1.000000
  163        3.695682   1.000000
  164        3.695682   1.000000
  165        3.695682   1.000000
  166        4.300030   1.000000
  167        4.300030   1.000000
  168        4.300030   1.000000
  169        4.300819   1.000000
  170        4.300819   1.000000
  171        4.300819   1.000000
  172        4.300819   1.000000
  173        4.300819   1.000000
  174        4.300819   1.000000
  175        4.300888   1.000000
  176        4.300888   1.000000
  177        4.300888   1.000000
  178        4.301609   1.000000
  179        4.301609   1.000000
  180        4.301609   1.000000
  181        4.301678   1.000000
  182        4.301678   1.000000
  183        4.301678   1.000000
  184        4.301678   1.000000
  185        4.301678   1.000000
  186        4.301678   1.000000
  187        4.302467   1.000000
  188        4.302467   1.000000
  189        4.302467   1.000000
  190        4.351786   1.000000
  191        4.351786   1.000000
  192        4.351786   1.000000
  193        4.351961   1.000000
  194        4.351961   1.000000
  195        4.351961   1.000000
  196        4.351961   1.000000
  197        4.351961   1.000000
  198        4.351961   1.000000
  199        4.352136   1.000000
  200        4.352136   1.000000
  201        4.352136   1.000000
  202        4.465087   1.000000
  203        4.465087   1.000000
  204        4.465087   1.000000
  205        4.465726   1.000000
  206        4.465726   1.000000
  207        4.465726   1.000000
  208        4.642076   1.000000
  209        4.642076   1.000000
  210        4.642076   1.000000
  211        4.642076   1.000000
  212        4.642076   1.000000
  213        4.642076   1.000000
  214        4.642180   1.000000
  215        4.642180   1.000000
  216        4.642180   1.000000
  217        4.642181   1.000000
  218        4.642181   1.000000
  219        4.642181   1.000000
  220        4.642220   1.000000
  221        4.642220   1.000000
  222        4.642220   1.000000
  223        4.642220   1.000000
  224        4.642220   1.000000
  225        4.642220   1.000000
  226        4.642325   1.000000
  227        4.642325   1.000000
  228        4.642325   1.000000
  229        4.642325   1.000000
  230        4.642325   1.000000
  231        4.642325   1.000000
  232        4.875278   1.000000
  233        4.875278   1.000000
  234        4.875279   1.000000
  235        4.875717   1.000000
  236        4.875717   1.000000
  237        4.875717   1.000000
  238        4.875717   1.000000
  239        4.875717   1.000000
  240        4.875717   1.000000
  241        4.876157   1.000000
  242        4.876157   1.000000
  243        4.876157   1.000000
  244        5.040763   1.000000
  245        5.040781   1.000000
  246        5.040781   1.000000
  247        5.040781   1.000000
  248        5.040799   1.000000
  249        5.040799   1.000000
  250        5.040799   1.000000
  251        5.040819   1.000000
  252        5.178544   1.000000
  253        5.178544   1.000000
  254        5.178544   1.000000
  255        5.231164   1.000000
  256        5.231164   1.000000
  257        5.231164   1.000000
  258        5.231373   1.000000
  259        5.231373   1.000000
  260        5.231373   1.000000
  261        5.231373   1.000000
  262        5.231373   1.000000
  263        5.231373   1.000000
  264        5.231405   1.000000
  265        5.231405   1.000000
  266        5.231405   1.000000
  267        5.231583   1.000000
  268        5.231583   1.000000
  269        5.231583   1.000000
  270        5.231615   1.000000
  271        5.231615   1.000000
  272        5.231615   1.000000
  273        5.231615   1.000000
  274        5.231615   1.000000
  275        5.231615   1.000000
  276        5.231825   1.000000
  277        5.231825   1.000000
  278        5.231825   1.000000
  279        5.303475   1.000000
  280        5.303475   1.000000
  281        5.303487   1.000000
  282        5.303487   1.000000
  283        5.303487   1.000000
  284        5.303715   1.000000
  285        5.303715   1.000000
  286        5.303715   1.000000
  287        5.303915   1.000000
  288        5.303915   1.000000
  289        5.303915   1.000000
  290        5.304141   1.000000
  291        5.304141   1.000000
  292        5.304141   1.000000
  293        5.304152   1.000000
  294        5.304152   1.000000
  295        5.328222   1.000000
  296        5.328222   1.000000
  297        5.328222   1.000000
  298        5.328373   1.000000
  299        5.328373   1.000000
  300        5.328373   1.000000
  301        5.328373   1.000000
  302        5.328373   1.000000
  303        5.328373   1.000000
  304        5.328523   1.000000
  305        5.328523   1.000000
  306        5.328523   1.000000
  307        5.443016   1.000000
  308        5.443016   1.000000
  309        5.443016   1.000000
  310        5.443016   1.000000
  311        5.443016   1.000000
  312        5.443016   1.000000
  313        5.443140   1.000000
  314        5.443140   1.000000
  315        5.443140   1.000000
  316        5.443143   1.000000
  317        5.443143   1.000000
  318        5.443143   1.000000
  319        5.681478   1.000000
  320        5.681478   1.000000
  321        5.681478   1.000000
  322        5.681737   1.000000
  323        5.681737   1.000000
  324        5.681737   1.000000
  325        5.681938   1.000000
  326        5.681938   1.000000
  327        5.681938   1.000000
  328        5.681938   1.000000
  329        5.681938   1.000000
  330        5.681938   1.000000
  331        5.682198   1.000000
  332        5.682198   1.000000
  333        5.682198   1.000000
  334        5.682198   1.000000
  335        5.682198   1.000000
  336        5.682198   1.000000
  337        5.682399   1.000000
  338        5.682399   1.000000
  339        5.682399   1.000000
  340        5.682657   1.000000
  341        5.682657   1.000000
  342        5.682658   1.000000
  343        5.742214   1.000000
  344        5.742214   1.000000
  345        5.742214   1.000000
  346        5.742214   1.000000
  347        5.742214   1.000000
  348        5.742214   1.000000
  349        5.743147   1.000000
  350        5.743147   1.000000
  351        5.743147   1.000000
  352        5.743147   1.000000
  353        5.743147   1.000000
  354        5.743147   1.000000
  355        5.950554   1.000000
  356        5.950554   1.000000
  357        5.950554   1.000000
  358        5.950656   1.000000
  359        5.950656   1.000000
  360        5.950656   1.000000
  361        5.950656   1.000000
  362        5.950656   1.000000
  363        5.950656   1.000000
  364        5.950757   1.000000
  365        5.950757   1.000000
  366        5.950757   1.000000
  367        6.111457   1.000005
  368        6.111457   1.000005
  369        6.111457   1.000005
  370        6.111996   1.000005
  371        6.111996   1.000005
  372        6.111996   1.000005
  373        6.126388   1.000008
  374        6.126388   1.000008
  375        6.126388   1.000008
  376        6.127112   1.000008
  377        6.127112   1.000008
  378        6.127112   1.000008
  379        6.127112   1.000008
  380        6.127112   1.000008
  381        6.127112   1.000008
  382        6.127836   1.000008
  383        6.127836   1.000008
  384        6.127836   1.000008
  385        6.534560   1.032818
  386        6.534560   1.032818
  387        6.534560   1.032818
  388        6.535272   1.032932
  389        6.535272   1.032932
  390        6.535272   1.032932
  391        6.535275   1.032933
  392        6.535275   1.032933
  393        6.535275   1.032933
  394        6.535984   1.033045
  395        6.535984   1.033045
  396        6.535990   1.033046
  397        6.619799   1.018240
  398        6.619799   1.018240
  399        6.619799   1.018240
  400        6.619821   1.018225
  401        6.619825   1.018222
  402        6.619825   1.018222
  403        6.737823   0.779426
  404        6.737823   0.779426
  405        6.737823   0.779426
  406        6.737823   0.779426
  407        6.737823   0.779426
  408        6.737823   0.779426
  409        6.738500   0.777104
  410        6.738500   0.777104
  411        6.738500   0.777104
  412        6.738500   0.777104
  413        6.738500   0.777104
  414        6.738500   0.777104
  415        6.738513   0.777059
  416        6.738513   0.777059
  417        6.738513   0.777059
  418        6.738515   0.777052
  419        6.738515   0.777052
  420        6.738515   0.777052
  421        6.738572   0.776856
  422        6.738572   0.776856
  423        6.739191   0.774724
  424        6.739191   0.774724
  425        6.739191   0.774724
  426        6.739191   0.774722
  427        6.739191   0.774722
  428        6.739192   0.774722
  429        6.959371   0.022597
  430        6.959371   0.022597
  431        6.959371   0.022597
  432        6.959371   0.022596
  433        6.959371   0.022596
  434        6.959371   0.022596
  435        6.959994   0.021675
  436        6.959994   0.021675
  437        6.959994   0.021675
  438        6.959994   0.021674
  439        6.959994   0.021674
  440        6.959994   0.021674
  441        6.988575  -0.011446
  442        6.988575  -0.011446
  443        6.988575  -0.011446
  444        6.989516  -0.012251
  445        6.989516  -0.012251
  446        6.989516  -0.012251
  447        7.147711  -0.018724
  448        7.147711  -0.018724
  449        7.147711  -0.018724
  450        7.147712  -0.018723
  451        7.147712  -0.018723
  452        7.147712  -0.018723
  453        7.148306  -0.018594
  454        7.148306  -0.018594
  455        7.148306  -0.018594
  456        7.148306  -0.018594
  457        7.148306  -0.018594
  458        7.148306  -0.018594
  459        7.149575  -0.018318
  460        7.149575  -0.018318
  461        7.149575  -0.018318
  462        7.149575  -0.018318
  463        7.149575  -0.018318
  464        7.149575  -0.018318
  465        7.150040  -0.018217
  466        7.150040  -0.018217
  467        7.150040  -0.018217
  468        7.150041  -0.018217
  469        7.150042  -0.018217
  470        7.150042  -0.018217
  471        7.150223  -0.018177
  472        7.150223  -0.018177
  473        7.150223  -0.018177
  474        7.150223  -0.018177
  475        7.150223  -0.018177
  476        7.150223  -0.018177
  477        7.150690  -0.018077
  478        7.150690  -0.018077
  479        7.150690  -0.018077
  480        7.150690  -0.018077
  481        7.150690  -0.018077
  482        7.150690  -0.018077
  483        7.275698  -0.002335
  484        7.275698  -0.002335
  485        7.275712  -0.002335
  486        7.275712  -0.002335
  487        7.275712  -0.002335
  488        7.275946  -0.002324
  489        7.275946  -0.002324
  490        7.275947  -0.002324
  491        7.276151  -0.002314
  492        7.276152  -0.002314
  493        7.276152  -0.002314
  494        7.276386  -0.002303
  495        7.276386  -0.002303
  496        7.276386  -0.002303
  497        7.276400  -0.002302
  498        7.276400  -0.002302
  499        7.411207  -0.000087
  500        7.411331  -0.000086
  501        7.411855  -0.000085
  502        7.412644  -0.000083
  503        7.413211  -0.000082
  504        7.414132  -0.000080
  505        7.419296  -0.000069
  506        7.421852  -0.000064
  507        7.424759  -0.000059
  508        7.439580  -0.000038
  509        7.445275  -0.000032
  510        7.465421  -0.000017
  511        7.513977  -0.000004
  512        7.517197  -0.000003
  513        7.526112  -0.000002
  514        7.543597  -0.000001
  515        7.569184  -0.000001
  516        7.581696  -0.000000
  517        7.593628  -0.000000
  518        7.601243  -0.000000
 
  0.2000000E+00  0.0000000E+00  0.0000000E+00  0.4800000E-01
    1       -1.937035   1.000000
    2       -1.020684   1.000000
    3       -0.453140   1.000000
    4       -0.453140   1.000000
    5       -0.452068   1.000000
    6       -0.452068   1.000000
    7        0.070732   1.000000
    8        0.343336   1.000000
    9        0.343336   1.000000
   10        0.344362   1.000000
   11        0.344362   1.000000
   12        0.812553   1.000000
   13        0.813536   1.000000
   14        0.813536   1.000000
   15        0.814520   1.000000
   16        1.217384   1.000000
   17        1.218163   1.000000
   18        1.218163   1.000000
   19        1.218942   1.000000
   20        1.275262   1.000000
   21        1.275262   1.000000
   22        1.276221   1.000000
   23        1.276221   1.000000
   24        1.643495   1.000000
   25        1.644030   1.000000
   26        1.644030   1.000000
   27        1.644565   1.000000
   28        1.655693   1.000000
   29        1.882314   1.000000
   30        1.905978   1.000000
   31        1.905978   1.000000
   32        1.944856   1.000000
   33        1.944856   1.000000
   34        1.945482   1.000000
   35        1.945482   1.000000
   36        1.981610   1.000000
   37        2.354141   1.000000
   38        2.354273   1.000000
   39        2.354273   1.000000
   40        2.354406   1.000000
   41        2.427043   1.000000
   42        2.427043   1.000000
   43        2.541090   1.000000
   44        2.541090   1.000000
   45        2.541107   1.000000
   46        2.541107   1.000000
   47        2.541199   1.000000
   48        2.541199   1.000000
   49        2.541216   1.000000
   50        2.541216   1.000000
   51        2.570485   1.000000
   52        2.570485   1.000000
   53        2.571036   1.000000
   54        2.571036   1.000000
   55        2.633118   1.000000
   56        2.637232   1.000000
   57        2.637232   1.000000
   58        2.660437   1.000000
   59        2.660437   1.000000
   60        2.661332   1.000000
   61        2.661332   1.000000
   62        2.665314   1.000000
   63        2.665314   1.000000
   64        2.665388   1.000000
   65        2.665388   1.000000
   66        2.665562   1.000000
   67        2.665562   1.000000
   68        2.665636   1.000000
   69        2.665636   1.000000
   70        2.693016   1.000000
   71        2.693016   1.000000
   72        2.693981   1.000000
   73        2.693981   1.000000
   74        2.700541   1.000000
   75        2.700541   1.000000
   76        2.701490   1.000000
   77        2.701490   1.000000
   78        2.824792   1.000000
   79        2.824927   1.000000
   80        2.824927   1.000000
   81        2.825062   1.000000
   82        2.865034   1.000000
   83        2.865034   1.000000
   84        2.865489   1.000000
   85        2.865489   1.000000
   86        2.865838   1.000000
   87        2.865838   1.000000
   88        2.866293   1.000000
   89        2.866293   1.000000
   90        2.880981   1.000000
   91        2.880981   1.000000
   92        2.921298   1.000000
   93        2.921298   1.000000
   94        2.922268   1.000000
   95        2.922268   1.000000
   96        2.987732   1.000000
   97        3.066982   1.000000
   98        3.066982   1.000000
   99        3.120837   1.000000
  100        3.120837   1.000000
  101        3.121388   1.000000
  102        3.121388   1.000000
  103        3.188910   1.000000
  104        3.188910   1.000000
  105        3.189254   1.000000
  106        3.189254   1.000000
  107        3.208056   1.000000
  108        3.208056   1.000000
  109        3.209086   1.000000
  110        3.209086   1.000000
  111        3.292471   1.000000
  112        3.292548   1.000000
  113        3.292548   1.000000
  114        3.292619   1.000000
  115        3.333099   1.000000
  116        3.333099   1.000000
  117        3.334043   1.000000
  118        3.334043   1.000000
  119        3.340604   1.000000
  120        3.340604   1.000000
  121        3.341564   1.000000
  122        3.341564   1.000000
  123        3.418338   1.000000
  124        3.481743   1.000000
  125        3.481743   1.000000
  126        3.482228   1.000000
  127        3.482228   1.000000
  128        3.493709   1.000000
  129        3.493709   1.000000
  130        3.494290   1.000000
  131        3.494290   1.000000
  132        3.516114   1.000000
  133        3.516114   1.000000
  134        3.517089   1.000000
  135        3.517089   1.000000
  136        3.569660   1.000000
  137        3.569660   1.000000
  138        3.570557   1.000000
  139        3.570557   1.000000
  140        3.584936   1.000000
  141        3.585173   1.000000
  142        3.585173   1.000000
  143        3.585414   1.000000
  144        3.639534   1.000000
  145        3.639534   1.000000
  146        3.661348   1.000000
  147        3.661348   1.000000
  148        3.662080   1.000000
  149        3.662081   1.000000
  150        3.721811   1.000000
  151        3.721811   1.000000
  152        3.722460   1.000000
  153        3.722460   1.000000
  154        3.722747   1.000000
  155        3.722747   1.000000
  156        3.723396   1.000000
  157        3.723396   1.000000
  158        3.833649   1.000000
  159        3.833649   1.000000
  160        3.834437   1.000000
  161        3.834437   1.000000
  162        3.904249   1.000000
  163        3.904249   1.000000
  164        3.905134   1.000000
  165        3.905134   1.000000
  166        4.039618   1.000000
  167        4.040399   1.000000
  168        4.040399   1.000000
  169        4.041181   1.000000
  170        4.126695   1.000000
  171        4.126695   1.000000
  172        4.127300   1.000000
  173        4.127300   1.000000
  174        4.127588   1.000000
  175        4.127588   1.000000
  176        4.128194   1.000000
  177        4.128194   1.000000
  178        4.207269   1.000000
  179        4.249883   1.000000
  180        4.249883   1.000000
  181        4.250281   1.000000
  182        4.250281   1.000000
  183        4.316000   1.000000
  184        4.316000   1.000000
  185        4.316039   1.000000
  186        4.316039   1.000000
  187        4.380197   1.000000
  188        4.380361   1.000000
  189        4.380361   1.000000
  190        4.380525   1.000000
  191        4.420660   1.000000
  192        4.420660   1.000000
  193        4.420737   1.000000
  194        4.420737   1.000000
  195        4.432812   1.000000
  196        4.432812   1.000000
  197        4.433639   1.000000
  198        4.433639   1.000000
  199        4.433657   1.000000
  200        4.433657   1.000000
  201        4.434483   1.000000
  202        4.434483   1.000000
  203        4.466460   1.000000
  204        4.466460   1.000000
  205        4.467065   1.000000
  206        4.467065   1.000000
  207        4.578072   1.000000
  208        4.578841   1.000000
  209        4.578841   1.000000
  210        4.579611   1.000000
  211        4.639153   1.000000
  212        4.639153   1.000000
  213        4.639745   1.000000
  214        4.639745   1.000000
  215        4.656237   1.000000
  216        4.656237   1.000000
  217        4.656448   1.000000
  218        4.656448   1.000000
  219        4.676486   1.000000
  220        4.676486   1.000000
  221        4.676535   1.000000
  222        4.676535   1.000000
  223        4.676605   1.000000
  224        4.676605   1.000000
  225        4.676654   1.000000
  226        4.676654   1.000000
  227        4.700306   1.000000
  228        4.780913   1.000000
  229        4.780913   1.000000
  230        4.780922   1.000000
  231        4.780922   1.000000
  232        4.812969   1.000000
  233        4.812996   1.000000
  234        4.812996   1.000000
  235        4.813025   1.000000
  236        4.899431   1.000000
  237        4.899809   1.000000
  238        4.899809   1.000000
  239        4.900187   1.000000
  240        4.914280   1.000000
  241        4.914280   1.000000
  242        5.012142   1.000000
  243        5.012143   1.000000
  244        5.012337   1.000000
  245        5.012337   1.000000
  246        5.062813   1.000000
  247        5.062813   1.000000
  248        5.062955   1.000000
  249        5.062955   1.000000
  250        5.063077   1.000000
  251        5.063077   1.000000
  252        5.063220   1.000000
  253        5.063220   1.000000
  254        5.080762   1.000000
  255        5.080762   1.000000
  256        5.081033   1.000000
  257        5.081033   1.000000
  258        5.142689   1.000000
  259        5.142779   1.000000
  260        5.142779   1.000000
  261        5.142870   1.000000
  262        5.146148   1.000000
  263        5.194960   1.000000
  264        5.194960   1.000000
  265        5.195002   1.000000
  266        5.195002   1.000000
  267        5.198181   1.000000
  268        5.198657   1.000000
  269        5.198657   1.000000
  270        5.199136   1.000000
  271        5.201551   1.000000
  272        5.201551   1.000000
  273        5.257416   1.000000
  274        5.257622   1.000000
  275        5.257622   1.000000
  276        5.257828   1.000000
  277        5.287413   1.000000
  278        5.287770   1.000000
  279        5.287770   1.000000
  280        5.288124   1.000000
  281        5.305352   1.000000
  282        5.305635   1.000000
  283        5.305635   1.000000
  284        5.305919   1.000000
  285        5.331914   1.000000
  286        5.332057   1.000000
  287        5.332057   1.000000
  288        5.332200   1.000000
  289        5.338968   1.000000
  290        5.338976   1.000000
  291        5.338976   1.000000
  292        5.338986   1.000000
  293        5.366958   1.000000
  294        5.367269   1.000000
  295        5.367269   1.000000
  296        5.367577   1.000000
  297        5.383362   1.000000
  298        5.383362   1.000000
  299        5.383476   1.000000
  300        5.383476   1.000000
  301        5.388439   1.000000
  302        5.388439   1.000000
  303        5.388447   1.000000
  304        5.388447   1.000000
  305        5.388723   1.000000
  306        5.388723   1.000000
  307        5.388731   1.000000
  308        5.388731   1.000000
  309        5.414776   1.000000
  310        5.414776   1.000000
  311        5.415078   1.000000
  312        5.415078   1.000000
  313        5.421460   1.000000
  314        5.421460   1.000000
  315        5.421556   1.000000
  316        5.421559   1.000000
  317        5.520511   1.000000
  318        5.520941   1.000000
  319        5.520941   1.000000
  320        5.521371   1.000000
  321        5.543666   1.000000
  322        5.543666   1.000000
  323        5.574376   1.000000
  324        5.574376   1.000000
  325        5.574671   1.000000
  326        5.574671   1.000000
  327        5.574716   1.000000
  328        5.574716   1.000000
  329        5.575010   1.000000
  330        5.575010   1.000000
  331        5.687081   1.000000
  332        5.687081   1.000000
  333        5.687830   1.000000
  334        5.687830   1.000000
  335        5.743127   1.000000
  336        5.743127   1.000000
  337        5.744026   1.000000
  338        5.744026   1.000000
  339        5.804387   1.000000
  340        5.804557   1.000000
  341        5.804557   1.000000
  342        5.804725   1.000000
  343        5.839118   1.000000
  344        5.839118   1.000000
  345        5.839476   1.000000
  346        5.839476   1.000000
  347        5.845717   1.000000
  348        5.845717   1.000000
  349        5.845944   1.000000
  350        5.845944   1.000000
  351        5.846257   1.000000
  352        5.846257   1.000000
  353        5.846488   1.000000
  354        5.846488   1.000000
  355        5.872787   1.000000
  356        5.873284   1.000000
  357        5.873284   1.000000
  358        5.873780   1.000000
  359        5.933498   1.000000
  360        5.978271   1.000000
  361        5.978271   1.000000
  362        6.016486   1.000000
  363        6.016486   1.000000
  364        6.097066   1.000003
  365        6.108524   1.000004
  366        6.108524   1.000004
  367        6.109200   1.000004
  368        6.109200   1.000004
  369        6.115346   1.000005
  370        6.115346   1.000005
  371        6.115477   1.000005
  372        6.115477   1.000005
  373        6.167818   1.000029
  374        6.167818   1.000029
  375        6.168221   1.000029
  376        6.168221   1.000029
  377        6.205884   1.000087
  378        6.205884   1.000087
  379        6.206567   1.000088
  380        6.206567   1.000088
  381        6.295141   1.000854