       N       E                     dE             d eps       ncg     rms          rms(c)
DAV:   1     0.759656931121E+04    0.75966E+04   -0.28859E+05 10360   0.184E+03
DAV:   2    -0.232366708186E+02   -0.76198E+04   -0.74500E+04 10360   0.457E+02
DAV:   3    -0.850900113485E+03   -0.82766E+03   -0.70745E+03 10408   0.191E+02
DAV:   4    -0.102993835646E+04   -0.17904E+03   -0.16800E+03 18776   0.572E+01
DAV:   5    -0.104507993917E+04   -0.15142E+02   -0.14310E+02 16512   0.218E+01    0.934E+01
RMM:   6    -0.877417257875E+03    0.16766E+03   -0.13533E+03 10360   0.110E+02    0.903E+00
RMM:   7    -0.880259906238E+03   -0.28426E+01   -0.10976E+02 11274   0.237E+01    0.329E+00
RMM:   8    -0.879646035331E+03    0.61387E+00   -0.12994E+01 11069   0.989E+00    0.830E+00
RMM:   9    -0.879689453779E+03   -0.43418E-01   -0.44892E+00 13478   0.251E+00    0.243E+00
RMM:  10    -0.879538987004E+03    0.15047E+00   -0.10066E+00 14299   0.926E-01    0.422E-01
RMM:  11    -0.879552194213E+03   -0.13207E-01   -0.99264E-02 14859   0.293E-01    0.509E-01
RMM:  12    -0.879547651335E+03    0.45429E-02   -0.21618E-02 11337   0.400E-01    0.974E-02
RMM:  13    -0.879548164307E+03   -0.51297E-03   -0.98757E-03 14379   0.904E-02    0.659E-02
RMM:  14    -0.879548136009E+03    0.28298E-04   -0.34339E-04 11579   0.726E-02    0.756E-03
RMM:  15    -0.879548127797E+03    0.82123E-05   -0.12343E-04 14618   0.179E-02    0.266E-03
RMM:  16    -0.879548101539E+03    0.26258E-04    0.26265E-04 10225   0.479E-03    0.144E-03
RMM:  17    -0.879548078760E+03    0.22779E-04    0.20438E-04  7527   0.231E-03    0.324E-04
RMM:  18    -0.879548052871E+03    0.25889E-04    0.23595E-04  6993   0.184E-03    0.108E-03
RMM:  19    -0.879548034785E+03    0.18086E-04    0.15959E-04  6766   0.225E-03    0.447E-04
RMM:  20    -0.879548021582E+03    0.13203E-04    0.12267E-04  6056   0.965E-04    0.112E-04
RMM:  21    -0.879548010104E+03    0.11478E-04    0.11104E-04  5831   0.109E-03    0.508E-04
RMM:  22    -0.879548000054E+03    0.10049E-04    0.97235E-05  6063   0.871E-04    0.292E-05
RMM:  23    -0.879547990751E+03    0.93032E-05    0.89335E-05  4492   0.635E-04    0.252E-04
RMM:  24    -0.879547982079E+03    0.86716E-05    0.81975E-05  4325   0.625E-04    0.285E-05
RMM:  25    -0.879547974052E+03    0.80272E-05    0.76057E-05  3729   0.507E-04    0.208E-04
RMM:  26    -0.879547967023E+03    0.70288E-05    0.67692E-05  3610   0.501E-04    0.720E-05
RMM:  27    -0.879547959984E+03    0.70394E-05    0.68115E-05  3155   0.424E-04    0.179E-04
RMM:  28    -0.879547952541E+03    0.74430E-05    0.71718E-05  2976   0.418E-04    0.738E-05
RMM:  29    -0.879547946322E+03    0.62188E-05    0.58673E-05  2659   0.356E-04    0.145E-04
RMM:  30    -0.879547940912E+03    0.54105E-05    0.51786E-05  2563   0.361E-04    0.807E-05
RMM:  31    -0.879547936550E+03    0.43619E-05    0.42053E-05  2332   0.324E-04    0.140E-04
RMM:  32    -0.879547931978E+03    0.45721E-05    0.44344E-05  2297   0.330E-04    0.998E-05
RMM:  33    -0.879547927629E+03    0.43484E-05    0.39956E-05  2154   0.298E-04    0.132E-04
RMM:  34    -0.879547922504E+03    0.51250E-05    0.49188E-05  2118   0.300E-04    0.103E-04
RMM:  35    -0.879547919298E+03    0.32062E-05    0.30204E-05  2002   0.280E-04    0.129E-04
RMM:  36    -0.879547916641E+03    0.26571E-05    0.25880E-05  1994   0.280E-04    0.105E-04
RMM:  37    -0.879547914314E+03    0.23273E-05    0.22731E-05  1883   0.265E-04    0.123E-04
RMM:  38    -0.879547912208E+03    0.21061E-05    0.20697E-05  1872   0.266E-04    0.110E-04
RMM:  39    -0.879547910073E+03    0.21344E-05    0.20996E-05  1789   0.253E-04    0.118E-04
RMM:  40    -0.879547908307E+03    0.17666E-05    0.17271E-05  1754   0.254E-04    0.112E-04
RMM:  41    -0.879547906708E+03    0.15982E-05    0.15720E-05  1693   0.244E-04    0.109E-04
RMM:  42    -0.879547905249E+03    0.14598E-05    0.14358E-05  1668   0.243E-04    0.100E-04
RMM:  43    -0.879547903915E+03    0.13336E-05    0.13141E-05  1605   0.237E-04    0.989E-05
RMM:  44    -0.879547902484E+03    0.14305E-05    0.14109E-05  1573   0.237E-04    0.990E-05
RMM:  45    -0.879547901361E+03    0.11237E-05    0.10968E-05  1573   0.237E-04    0.858E-05
RMM:  46    -0.879547900346E+03    0.10144E-05    0.99852E-06  1560   0.246E-04    0.715E-05
RMM:  47    -0.879547899425E+03    0.92172E-06    0.90685E-06  1555   0.256E-04
   1 F= -.87954790E+03 E0= -.87956284E+03  d E =-.879548E+03
