 vasp.5.4.4.18Apr17-6-g9f103f2a35 (build Aug 17 2017 06:00:38) complex          
  
 executed on             LinuxIFC date 2019.07.13  00:34:48
 running on    8 total cores
 distrk:  each k-point on    8 cores,    1 groups
 distr:  one band on NCORES_PER_BAND=   4 cores,    2 groups


--------------------------------------------------------------------------------------------------------


 INCAR:
 POTCAR:   PAW_PBE Fe 06Sep2000                   
 POTCAR:   PAW_PBE Fe 06Sep2000                   
   VRHFIN =Fe:  d7 s1                                                           
   LEXCH  = PE                                                                  
   EATOM  =   594.4687 eV,   43.6922 Ry                                         
                                                                                
   TITEL  = PAW_PBE Fe 06Sep2000                                                
   LULTRA =        F    use ultrasoft PP ?                                      
   IUNSCR =        1    unscreen: 0-lin 1-nonlin 2-no                           
   RPACOR =    2.000    partial core radius                                     
   POMASS =   55.847; ZVAL   =    8.000    mass and valenz                      
   RCORE  =    2.300    outmost cutoff radius                                   
   RWIGS  =    2.460; RWIGS  =    1.302    wigner-seitz radius (au A)           
   ENMAX  =  267.883; ENMIN  =  200.912 eV                                      
   RCLOC  =    1.701    cutoff for local pot                                    
   LCOR   =        T    correct aug charges                                     
   LPAW   =        T    paw PP                                                  
   EAUG   =  511.368                                                            
   DEXC   =    -.022                                                            
   RMAX   =    2.817    core radius for proj-oper                               
   RAUG   =    1.300    factor for augmentation sphere                          
   RDEP   =    2.442    radius for radial grids                                 
   QCUT   =   -4.437; QGAM   =    8.874    optimization parameters              
                                                                                
   Description                                                                  
     l     E      TYP  RCUT    TYP  RCUT                                        
     2   .000     23  2.300                                                     
     2   .000     23  2.300                                                     
     0   .000     23  2.300                                                     
     0   .000     23  2.300                                                     
     1  -.200     23  2.300                                                     
     1   .000     23  2.300                                                     
     3   .000      7   .000                                                     
  local pseudopotential read in
  partial core-charges read in
  atomic valenz-charges read in
  non local Contribution for L=           2  read in
    real space projection operators read in
  non local Contribution for L=           2  read in
    real space projection operators read in
  non local Contribution for L=           0  read in
    real space projection operators read in
  non local Contribution for L=           0  read in
    real space projection operators read in
  non local Contribution for L=           1  read in
    real space projection operators read in
  non local Contribution for L=           1  read in
    real space projection operators read in
    PAW grid and wavefunctions read in
 
   number of l-projection  operators is LMAX  =           6
   number of lm-projection operators is LMMAX =          18
 
 Optimization of the real space projectors (new method)

 maximal supplied QI-value         = 16.25
 optimisation between [QCUT,QGAM] = [ 10.24, 20.48] = [ 29.35,117.42] Ry 
 Optimized for a Real-space Cutoff    1.51 Angstroem

   l    n(q)    QCUT    max X(q) W(low)/X(q) W(high)/X(q)  e(spline) 
   2      8    10.239     4.378    0.29E-04    0.57E-04    0.52E-07
   2      8    10.239    23.237    0.44E-03    0.68E-03    0.20E-06
   0      9    10.239    17.641    0.18E-04    0.41E-06    0.72E-08
   0      9    10.239    50.908    0.75E-04    0.38E-04    0.65E-07
   1      9    10.239     6.148    0.18E-04    0.27E-04    0.19E-07
   1      9    10.239     8.345    0.39E-04    0.13E-03    0.98E-07
 PAW_PBE Fe 06Sep2000                   :
 energy of atom  1       EATOM= -594.4687
 kinetic energy error for atom=    0.0088 (will be added to EATOM!!)
 
 
 POSCAR: fcc_Fe_CON_333                          
  positions in direct lattice
  velocities in cartesian coordinates
 exchange correlation table for  LEXCH =        8
   RHO(1)=    0.500       N(1)  =     2000
   RHO(2)=  100.500       N(2)  =     4000
 


--------------------------------------------------------------------------------------------------------


 ion  position               nearest neighbor table
   1  0.000  0.000  0.000-   2 2.44   3 2.44   4 2.44  11 2.44  12 2.44  26 2.44  28 2.44  74 2.44
                            75 2.44  36 2.44  83 2.44  98 2.44
   2  0.000  0.167  0.167-  49 2.44  37 2.44  13 2.44  40 2.44  15 2.44  48 2.44  23 2.44   3 2.44
                             4 2.44   1 2.44  12 2.44  11 2.44
   3  0.167  0.000  0.167-  41 2.44  37 2.44   5 2.44  40 2.44   6 2.44  30 2.44  64 2.44   2 2.44
                             4 2.44   1 2.44  28 2.44  26 2.44
   4  0.167  0.167  0.000-  17 2.44  13 2.44   5 2.44  15 2.44   6 2.44  78 2.44  87 2.44   2 2.44
                             3 2.44   1 2.44  74 2.44  75 2.44
   5  0.333  0.000  0.000-   3 2.44   4 2.44  28 2.44  75 2.44   6 2.44   7 2.44   8 2.44  30 2.44
                            78 2.44  32 2.44  79 2.44 102 2.44
   6  0.333  0.167  0.167-  15 2.44  40 2.44  53 2.44  17 2.44  19 2.44   4 2.44  41 2.44  44 2.44
                             3 2.44   7 2.44   8 2.44   5 2.44
   7  0.500  0.000  0.167-  41 2.44  44 2.44  45 2.44  68 2.44   6 2.44   5 2.44   8 2.44  10 2.44
                            30 2.44   9 2.44  32 2.44  34 2.44
   8  0.500  0.167  0.000-  17 2.44  19 2.44  21 2.44  91 2.44   6 2.44   5 2.44   7 2.44  78 2.44
                            10 2.44  79 2.44   9 2.44  82 2.44
   9  0.667  0.000  0.000-  11 2.44  12 2.44  36 2.44  83 2.44  10 2.44  82 2.44  34 2.44   8 2.44
                             7 2.44 106 2.44  79 2.44  32 2.44
  10  0.667  0.167  0.167-  23 2.44  48 2.44  57 2.44  12 2.44  11 2.44  21 2.44  45 2.44  44 2.44
                            19 2.44   9 2.44   7 2.44   8 2.44
  11  0.833  0.000  0.167-  45 2.44   9 2.44  10 2.44  34 2.44  48 2.44  37 2.44  72 2.44  12 2.44
                             2 2.44  36 2.44   1 2.44  26 2.44
  12  0.833  0.167  0.000-  21 2.44   9 2.44  10 2.44  82 2.44  23 2.44  13 2.44  95 2.44  11 2.44
                             1 2.44  83 2.44   2 2.44  74 2.44
  13  0.000  0.333  0.000-   2 2.44   4 2.44  12 2.44  74 2.44  15 2.44  16 2.44  14 2.44  23 2.44
                            87 2.44  86 2.44  24 2.44  95 2.44
  14  0.000  0.500  0.167-  49 2.44  52 2.44  60 2.44  61 2.44  15 2.44  13 2.44  16 2.44  23 2.44
                            27 2.44  25 2.44  24 2.44  35 2.44
  15  0.167  0.333  0.167-   6 2.44  40 2.44  53 2.44  17 2.44  18 2.44   4 2.44  49 2.44  52 2.44
                             2 2.44  13 2.44  14 2.44  16 2.44
  16  0.167  0.500  0.000-  17 2.44  18 2.44  29 2.44  90 2.44  15 2.44  14 2.44  13 2.44  87 2.44
                            27 2.44  25 2.44  86 2.44  99 2.44
  17  0.333  0.333  0.000-   4 2.44   8 2.44  16 2.44  15 2.44   6 2.44  78 2.44  87 2.44  20 2.44
                            18 2.44  19 2.44  90 2.44  91 2.44
  18  0.333  0.500  0.167-  52 2.44  16 2.44  56 2.44  53 2.44  15 2.44  27 2.44  65 2.44  20 2.44
                            17 2.44  19 2.44  29 2.44  31 2.44
  19  0.500  0.333  0.167-  44 2.44   8 2.44  56 2.44  53 2.44   6 2.44  10 2.44  57 2.44  18 2.44
                            20 2.44  17 2.44  21 2.44  22 2.44
  20  0.500  0.500  0.000-  17 2.44  18 2.44  19 2.44  21 2.44  22 2.44  29 2.44  31 2.44  90 2.44
                            91 2.44  33 2.44  94 2.44 103 2.44
  21  0.667  0.333  0.000-  12 2.44  24 2.44  23 2.44  95 2.44  10 2.44   8 2.44  82 2.44  22 2.44
                            20 2.44  94 2.44  19 2.44  91 2.44
  22  0.667  0.500  0.167-  60 2.44  24 2.44  23 2.44  35 2.44  57 2.44  56 2.44  69 2.44  21 2.44
                            33 2.44  20 2.44  19 2.44  31 2.44
  23  0.833  0.333  0.167-  10 2.44  57 2.44  48 2.44  21 2.44  22 2.44  12 2.44  60 2.44   2 2.44
                            49 2.44  24 2.44  14 2.44  13 2.44
  24  0.833  0.500  0.000-  21 2.44  22 2.44  33 2.44  94 2.44  23 2.44  35 2.44  95 2.44  14 2.44
                            13 2.44 107 2.44  86 2.44  25 2.44
  25  0.000  0.667  0.000-  26 2.44  28 2.44  36 2.44  98 2.44  27 2.44  35 2.44  99 2.44  16 2.44
                            14 2.44 107 2.44  86 2.44  24 2.44
  26  0.000  0.833  0.167-  61 2.44  25 2.44  27 2.44  35 2.44  64 2.44  37 2.44  72 2.44  28 2.44
                             3 2.44  36 2.44   1 2.44  11 2.44
  27  0.167  0.667  0.167-  30 2.44  64 2.44  65 2.44  28 2.44  26 2.44  29 2.44  61 2.44  52 2.44
                            18 2.44  25 2.44  14 2.44  16 2.44
  28  0.167  0.833  0.000-  29 2.44  25 2.44  27 2.44  99 2.44  30 2.44   5 2.44 102 2.44  26 2.44
                            98 2.44   1 2.44   3 2.44  75 2.44
  29  0.333  0.667  0.000-  28 2.44  32 2.44  30 2.44 102 2.44  27 2.44  16 2.44  99 2.44  31 2.44
                            20 2.44  18 2.44 103 2.44  90 2.44
  30  0.333  0.833  0.167-  27 2.44  65 2.44  64 2.44  29 2.44  31 2.44  28 2.44  68 2.44  41 2.44
                             3 2.44  32 2.44   7 2.44   5 2.44
  31  0.500  0.667  0.167-  68 2.44  32 2.44  30 2.44  34 2.44  65 2.44  56 2.44  69 2.44  29 2.44
                            33 2.44  20 2.44  18 2.44  22 2.44
  32  0.500  0.833  0.000-  29 2.44  31 2.44  33 2.44 103 2.44  30 2.44 102 2.44  34 2.44   7 2.44
                             5 2.44 106 2.44  79 2.44   9 2.44
  33  0.667  0.667  0.000-  36 2.44  35 2.44  34 2.44  32 2.44  24 2.44 106 2.44 107 2.44  22 2.44
                            31 2.44 103 2.44  20 2.44  94 2.44
  34  0.667  0.833  0.167-  35 2.44  69 2.44  72 2.44  33 2.44  36 2.44  31 2.44  11 2.44  45 2.44
                            68 2.44  32 2.44   9 2.44   7 2.44
  35  0.833  0.667  0.167-  34 2.44  69 2.44  72 2.44  33 2.44  36 2.44  26 2.44  22 2.44  60 2.44
                            61 2.44  24 2.44  25 2.44  14 2.44
  36  0.833  0.833  0.000-  33 2.44  34 2.44  35 2.44  25 2.44   9 2.44 106 2.44 107 2.44  26 2.44
                            11 2.44  98 2.44   1 2.44  83 2.44
  37  0.000  0.000  0.333-   2 2.44   3 2.44  11 2.44  26 2.44  40 2.44  39 2.44  38 2.44  48 2.44
                            64 2.44  62 2.44  47 2.44  72 2.44
  38  0.000  0.167  0.500-  49 2.44  51 2.44  59 2.44  85 2.44  40 2.44  39 2.44  37 2.44  76 2.44
                            48 2.44  47 2.44  73 2.44  84 2.44
  39  0.167  0.000  0.500-  41 2.44  42 2.44  66 2.44  77 2.44  40 2.44  38 2.44  37 2.44  76 2.44
                            64 2.44  62 2.44  73 2.44 100 2.44
  40  0.167  0.167  0.333-   6 2.44  15 2.44  53 2.44   3 2.44  41 2.44  42 2.44  49 2.44  51 2.44
                             2 2.44  39 2.44  37 2.44  38 2.44
  41  0.333  0.000  0.333-   3 2.44   7 2.44  39 2.44   6 2.44  40 2.44  30 2.44  64 2.44  43 2.44
                            44 2.44  42 2.44  66 2.44  68 2.44
  42  0.333  0.167  0.500-  51 2.44  39 2.44  55 2.44  53 2.44  40 2.44  76 2.44  89 2.44  44 2.44
                            41 2.44  43 2.44  80 2.44  77 2.44
  43  0.500  0.000  0.500-  41 2.44  42 2.44  44 2.44  45 2.44  46 2.44  66 2.44  68 2.44  77 2.44
                            80 2.44  70 2.44  81 2.44 104 2.44
  44  0.500  0.167  0.333-  19 2.44   7 2.44  55 2.44  53 2.44   6 2.44  10 2.44  57 2.44  41 2.44
                            42 2.44  43 2.44  46 2.44  45 2.44
  45  0.667  0.000  0.333-  11 2.44  47 2.44  48 2.44  72 2.44  10 2.44   7 2.44  34 2.44  46 2.44
                            43 2.44  70 2.44  44 2.44  68 2.44
  46  0.667  0.167  0.500-  59 2.44  47 2.44  48 2.44  84 2.44  57 2.44  55 2.44  93 2.44  45 2.44
                            81 2.44  43 2.44  44 2.44  80 2.44
  47  0.833  0.000  0.500-  45 2.44  46 2.44  70 2.44  81 2.44  48 2.44  72 2.44  84 2.44  38 2.44
                            37 2.44 108 2.44  73 2.44  62 2.44
  48  0.833  0.167  0.333-  10 2.44  57 2.44  23 2.44  46 2.44  45 2.44  11 2.44  59 2.44   2 2.44
                            49 2.44  47 2.44  37 2.44  38 2.44
  49  0.000  0.333  0.333-   2 2.44  14 2.44  38 2.44  15 2.44  40 2.44  23 2.44  48 2.44  50 2.44
                            51 2.44  52 2.44  59 2.44  60 2.44
  50  0.000  0.500  0.500-  49 2.44  51 2.44  52 2.44  59 2.44  60 2.44  61 2.44  63 2.44  85 2.44
                            88 2.44  71 2.44  96 2.44  97 2.44
  51  0.167  0.333  0.500-  42 2.44  38 2.44  54 2.44  53 2.44  40 2.44  76 2.44  89 2.44  50 2.44
                            52 2.44  49 2.44  88 2.44  85 2.44
  52  0.167  0.500  0.333-  18 2.44  14 2.44  54 2.44  53 2.44  15 2.44  27 2.44  65 2.44  49 2.44
                            50 2.44  51 2.44  63 2.44  61 2.44
  53  0.333  0.333  0.333-   6 2.44  15 2.44  40 2.44  19 2.44  18 2.44  42 2.44  44 2.44  51 2.44
                            52 2.44  54 2.44  55 2.44  56 2.44
  54  0.333  0.500  0.500-  51 2.44  52 2.44  63 2.44  88 2.44  53 2.44  55 2.44  56 2.44  65 2.44
                            89 2.44  67 2.44  92 2.44 101 2.44
  55  0.500  0.333  0.500-  42 2.44  44 2.44  46 2.44  80 2.44  53 2.44  56 2.44  54 2.44  57 2.44
                            89 2.44  58 2.44  92 2.44  93 2.44
  56  0.500  0.500  0.333-  18 2.44  19 2.44  22 2.44  31 2.44  53 2.44  54 2.44  55 2.44  57 2.44
                            65 2.44  58 2.44  67 2.44  69 2.44
  57  0.667  0.333  0.333-  23 2.44  48 2.44  10 2.44  59 2.44  60 2.44  46 2.44  22 2.44  19 2.44
                            44 2.44  58 2.44  56 2.44  55 2.44
  58  0.667  0.500  0.500-  59 2.44  60 2.44  71 2.44  96 2.44  57 2.44  93 2.44  69 2.44  56 2.44
                            55 2.44 105 2.44  92 2.44  67 2.44
  59  0.833  0.333  0.500-  46 2.44  58 2.44  57 2.44  93 2.44  48 2.44  38 2.44  84 2.44  60 2.44
                            50 2.44  49 2.44  96 2.44  85 2.44
  60  0.833  0.500  0.333-  22 2.44  58 2.44  57 2.44  69 2.44  23 2.44  14 2.44  35 2.44  59 2.44
                            49 2.44  50 2.44  71 2.44  61 2.44
  61  0.000  0.667  0.333-  26 2.44  62 2.44  64 2.44  72 2.44  27 2.44  14 2.44  35 2.44  63 2.44
                            50 2.44  71 2.44  52 2.44  60 2.44
  62  0.000  0.833  0.500-  61 2.44  63 2.44  71 2.44  97 2.44  64 2.44  72 2.44 100 2.44  39 2.44
                            37 2.44 108 2.44  73 2.44  47 2.44
  63  0.167  0.667  0.500-  66 2.44  62 2.44  64 2.44 100 2.44  65 2.44  54 2.44 101 2.44  61 2.44
                            97 2.44  50 2.44  52 2.44  88 2.44
  64  0.167  0.833  0.333-  27 2.44  65 2.44  30 2.44  63 2.44  61 2.44  26 2.44  66 2.44   3 2.44
                            41 2.44  62 2.44  37 2.44  39 2.44
  65  0.333  0.667  0.333-  30 2.44  64 2.44  27 2.44  66 2.44  68 2.44  63 2.44  31 2.44  18 2.44
                            52 2.44  67 2.44  56 2.44  54 2.44
  66  0.333  0.833  0.500-  63 2.44  67 2.44  65 2.44 101 2.44  64 2.44  39 2.44 100 2.44  68 2.44
                            43 2.44  41 2.44 104 2.44  77 2.44
  67  0.500  0.667  0.500-  66 2.44  68 2.44  70 2.44 104 2.44  65 2.44 101 2.44  69 2.44  56 2.44
                            54 2.44 105 2.44  92 2.44  58 2.44
  68  0.500  0.833  0.333-  31 2.44  67 2.44  65 2.44  69 2.44  30 2.44   7 2.44  34 2.44  66 2.44
                            41 2.44  43 2.44  70 2.44  45 2.44
  69  0.667  0.667  0.333-  72 2.44  35 2.44  34 2.44  71 2.44  70 2.44  68 2.44  60 2.44  31 2.44
                            22 2.44  58 2.44  67 2.44  56 2.44
  70  0.667  0.833  0.500-  71 2.44  69 2.44  72 2.44  67 2.44  47 2.44 105 2.44 108 2.44  68 2.44
                            45 2.44 104 2.44  43 2.44  81 2.44
  71  0.833  0.667  0.500-  70 2.44  69 2.44  72 2.44  62 2.44  58 2.44 105 2.44 108 2.44  60 2.44
                            61 2.44  97 2.44  50 2.44  96 2.44
  72  0.833  0.833  0.333-  69 2.44  35 2.44  34 2.44  70 2.44  71 2.44  61 2.44  45 2.44  26 2.44
                            11 2.44  62 2.44  47 2.44  37 2.44
  73  0.000  0.000  0.667-  74 2.44  75 2.44  83 2.44  98 2.44  76 2.44  84 2.44 100 2.44  39 2.44
                            38 2.44 108 2.44  47 2.44  62 2.44
  74  0.000  0.167  0.833-  85 2.44  73 2.44  76 2.44  84 2.44  87 2.44  13 2.44  95 2.44  75 2.44
                             4 2.44  83 2.44   1 2.44  12 2.44
  75  0.167  0.000  0.833-  77 2.44  73 2.44  76 2.44 100 2.44  78 2.44   5 2.44 102 2.44  74 2.44
                            98 2.44   1 2.44   4 2.44  28 2.44
  76  0.167  0.167  0.667-  78 2.44  87 2.44  89 2.44  75 2.44  74 2.44  77 2.44  85 2.44  51 2.44
                            42 2.44  73 2.44  38 2.44  39 2.44
  77  0.333  0.000  0.667-  75 2.44  79 2.44  78 2.44 102 2.44  76 2.44  39 2.44 100 2.44  80 2.44
                            43 2.44  42 2.44 104 2.44  66 2.44
  78  0.333  0.167  0.833-  76 2.44  89 2.44  87 2.44  77 2.44  80 2.44  75 2.44  91 2.44  17 2.44
                             4 2.44  79 2.44   8 2.44   5 2.44
  79  0.500  0.000  0.833-  77 2.44  80 2.44  81 2.44 104 2.44  78 2.44 102 2.44  82 2.44   8 2.44
                             5 2.44 106 2.44   9 2.44  32 2.44
  80  0.500  0.167  0.667-  91 2.44  79 2.44  78 2.44  82 2.44  89 2.44  55 2.44  93 2.44  77 2.44
                            43 2.44  81 2.44  42 2.44  46 2.44
  81  0.667  0.000  0.667-  83 2.44  82 2.44  84 2.44  79 2.44  47 2.44 106 2.44 108 2.44  80 2.44
                            46 2.44 104 2.44  70 2.44  43 2.44
  82  0.667  0.167  0.833-  84 2.44  93 2.44  95 2.44  83 2.44  81 2.44  80 2.44  12 2.44  21 2.44
                            91 2.44  79 2.44   9 2.44   8 2.44
  83  0.833  0.000  0.833-  81 2.44  82 2.44  84 2.44  73 2.44   9 2.44 106 2.44 108 2.44  74 2.44
                            12 2.44  98 2.44  36 2.44   1 2.44
  84  0.833  0.167  0.667-  82 2.44  93 2.44  95 2.44  81 2.44  83 2.44  74 2.44  46 2.44  59 2.44
                            85 2.44  73 2.44  47 2.44  38 2.44
  85  0.000  0.333  0.667-  74 2.44  86 2.44  87 2.44  95 2.44  76 2.44  38 2.44  84 2.44  88 2.44
                            51 2.44  50 2.44  96 2.44  59 2.44
  86  0.000  0.500  0.833-  85 2.44  88 2.44  96 2.44  97 2.44  87 2.44  95 2.44  99 2.44  16 2.44
                            13 2.44 107 2.44  24 2.44  25 2.44
  87  0.167  0.333  0.833-  76 2.44  89 2.44  78 2.44  88 2.44  85 2.44  74 2.44  90 2.44  17 2.44
                             4 2.44  86 2.44  16 2.44  13 2.44
  88  0.167  0.500  0.667-  90 2.44  86 2.44  87 2.44  99 2.44  89 2.44  54 2.44 101 2.44  85 2.44
                            97 2.44  50 2.44  51 2.44  63 2.44
  89  0.333  0.333  0.667-  78 2.44  87 2.44  76 2.44  90 2.44  91 2.44  80 2.44  88 2.44  51 2.44
                            42 2.44  92 2.44  54 2.44  55 2.44
  90  0.333  0.500  0.833-  88 2.44  92 2.44  89 2.44 101 2.44  87 2.44  16 2.44  99 2.44  91 2.44
                            20 2.44  17 2.44 103 2.44  29 2.44
  91  0.500  0.333  0.833-  80 2.44  92 2.44  89 2.44  93 2.44  78 2.44   8 2.44  82 2.44  90 2.44
                            20 2.44  17 2.44  94 2.44  21 2.44
  92  0.500  0.500  0.667-  90 2.44  91 2.44  94 2.44 103 2.44  89 2.44 101 2.44  93 2.44  55 2.44
                            54 2.44 105 2.44  58 2.44  67 2.44
  93  0.667  0.333  0.667-  95 2.44  84 2.44  82 2.44  94 2.44  96 2.44  91 2.44  59 2.44  46 2.44
                            80 2.44  92 2.44  58 2.44  55 2.44
  94  0.667  0.500  0.833-  96 2.44  95 2.44  93 2.44  92 2.44  24 2.44 105 2.44 107 2.44  21 2.44
                            91 2.44 103 2.44  33 2.44  20 2.44
  95  0.833  0.333  0.833-  93 2.44  84 2.44  82 2.44  94 2.44  96 2.44  85 2.44  21 2.44  12 2.44
                            74 2.44  86 2.44  24 2.44  13 2.44
  96  0.833  0.500  0.667-  94 2.44  93 2.44  95 2.44  86 2.44  58 2.44 105 2.44 107 2.44  59 2.44
                            85 2.44  97 2.44  71 2.44  50 2.44
  97  0.000  0.667  0.667-  98 2.44  99 2.44 100 2.44  86 2.44  62 2.44 107 2.44 108 2.44  88 2.44
                            63 2.44  96 2.44  50 2.44  71 2.44
  98  0.000  0.833  0.833-  97 2.44  99 2.44 100 2.44  73 2.44  25 2.44 107 2.44 108 2.44  75 2.44
                            28 2.44  83 2.44   1 2.44  36 2.44
  99  0.167  0.667  0.833- 100 2.44 101 2.44 102 2.44  98 2.44  97 2.44  88 2.44  28 2.44  90 2.44
                            29 2.44  86 2.44  25 2.44  16 2.44
 100  0.167  0.833  0.667-  99 2.44 101 2.44 102 2.44  98 2.44  97 2.44  75 2.44  63 2.44  77 2.44
                            66 2.44  73 2.44  62 2.44  39 2.44
 101  0.333  0.667  0.667- 102 2.44 100 2.44  99 2.44 103 2.44 104 2.44  90 2.44  66 2.44  63 2.44
                            88 2.44  92 2.44  67 2.44  54 2.44
 102  0.333  0.833  0.833- 101 2.44 100 2.44  99 2.44 103 2.44 104 2.44  77 2.44  29 2.44  28 2.44
                            75 2.44  79 2.44  32 2.44   5 2.44
 103  0.500  0.667  0.833- 104 2.44 102 2.44 101 2.44  92 2.44  32 2.44 105 2.44 106 2.44  29 2.44
                            90 2.44  94 2.44  20 2.44  33 2.44
 104  0.500  0.833  0.667- 103 2.44 102 2.44 101 2.44  79 2.44  67 2.44 105 2.44 106 2.44  66 2.44
                            77 2.44  81 2.44  43 2.44  70 2.44
 105  0.667  0.667  0.667- 106 2.44 107 2.44 108 2.44  96 2.44 103 2.44 104 2.44  70 2.44  71 2.44
                            94 2.44  67 2.44  92 2.44  58 2.44
 106  0.667  0.833  0.833- 105 2.44 107 2.44 108 2.44  83 2.44 103 2.44 104 2.44  33 2.44  36 2.44
                            81 2.44  32 2.44  79 2.44   9 2.44
 107  0.833  0.667  0.833- 105 2.44 106 2.44 108 2.44  96 2.44  97 2.44  98 2.44  33 2.44  36 2.44
                            94 2.44  25 2.44  86 2.44  24 2.44
 108  0.833  0.833  0.667- 105 2.44 106 2.44 107 2.44  83 2.44  97 2.44  98 2.44  70 2.44  71 2.44
                            81 2.44  62 2.44  73 2.44  47 2.44
 
  LATTYP: Found a simple cubic cell.
 ALAT       =    10.3348470474
  
  Lattice vectors:
  
 A1 = (  10.3348470474,   0.0000000000,   0.0000000000)
 A2 = (   0.0000000000,  10.3348470474,   0.0000000000)
 A3 = (   0.0000000000,   0.0000000000,  10.3348470474)


Analysis of symmetry for initial positions (statically):
=====================================================================
 Subroutine PRICEL returns following result:
 
  LATTYP: Found a simple cubic cell.
 ALAT       =     3.4449252899
  
  Lattice vectors:
  
 A1 = (   3.4449252899,   0.0000000000,   0.0000000000)
 A2 = (   0.0000000000,   3.4449252899,   0.0000000000)
 A3 = (   0.0000000000,   0.0000000000,   3.4449252443)
 
  27 primitive cells build up your supercell.
 

 Routine SETGRP: Setting up the symmetry group for a 
 simple cubic supercell.


 Subroutine GETGRP returns: Found 48 space group operations
 (whereof 48 operations were pure point group operations)
 out of a pool of 48 trial point group operations.


The static configuration has the point symmetry O_h .


Analysis of symmetry for dynamics (positions and initial velocities):
=====================================================================
 Subroutine PRICEL returns following result:
 
  LATTYP: Found a simple cubic cell.
 ALAT       =     3.4449252899
  
  Lattice vectors:
  
 A1 = (   3.4449252899,   0.0000000000,   0.0000000000)
 A2 = (   0.0000000000,   3.4449252899,   0.0000000000)
 A3 = (   0.0000000000,   0.0000000000,   3.4449252443)
 
  27 primitive cells build up your supercell.
 

 Routine SETGRP: Setting up the symmetry group for a 
 simple cubic supercell.


 Subroutine GETGRP returns: Found 48 space group operations
 (whereof 48 operations were pure point group operations)
 out of a pool of 48 trial point group operations.


The dynamic configuration has the point symmetry O_h .


 Subroutine INISYM returns: Found 48 space group operations
 (whereof 48 operations are pure point group operations),
 and found    27 'primitive' translations

 
 
 KPOINTS: pymatgen generated KPOINTS with grid den

Automatic generation of k-mesh.
Space group operators:
 irot       det(A)        alpha          n_x          n_y          n_z        tau_x        tau_y        tau_z
    1     1.000000     0.000000     1.000000     0.000000     0.000000     0.000000     0.000000     0.000000
    2    -1.000000     0.000000     1.000000     0.000000     0.000000     0.000000     0.000000     0.000000
    3     1.000000   120.000000    -0.577350    -0.577350    -0.577350     0.000000     0.000000     0.000000
    4    -1.000000   120.000000    -0.577350    -0.577350    -0.577350     0.000000     0.000000     0.000000
    5     1.000000   120.000000     0.577350     0.577350     0.577350     0.000000     0.000000     0.000000
    6    -1.000000   120.000000     0.577350     0.577350     0.577350     0.000000     0.000000     0.000000
    7     1.000000    90.000000     0.000000     0.000000    -1.000000     0.000000     0.000000     0.000000
    8    -1.000000    90.000000     0.000000     0.000000    -1.000000     0.000000     0.000000     0.000000
    9     1.000000   180.000000     0.000000     0.707107     0.707107     0.000000     0.000000     0.000000
   10    -1.000000   180.000000     0.000000     0.707107     0.707107     0.000000     0.000000     0.000000
   11     1.000000    90.000000     0.000000     1.000000     0.000000     0.000000     0.000000     0.000000
   12    -1.000000    90.000000     0.000000     1.000000     0.000000     0.000000     0.000000     0.000000
   13     1.000000   180.000000     0.000000     0.000000     1.000000     0.000000     0.000000     0.000000
   14    -1.000000   180.000000     0.000000     0.000000     1.000000     0.000000     0.000000     0.000000
   15     1.000000   120.000000    -0.577350     0.577350     0.577350     0.000000     0.000000     0.000000
   16    -1.000000   120.000000    -0.577350     0.577350     0.577350     0.000000     0.000000     0.000000
   17     1.000000   120.000000    -0.577350     0.577350    -0.577350     0.000000     0.000000     0.000000
   18    -1.000000   120.000000    -0.577350     0.577350    -0.577350     0.000000     0.000000     0.000000
   19     1.000000    90.000000     0.000000     0.000000     1.000000     0.000000     0.000000     0.000000
   20    -1.000000    90.000000     0.000000     0.000000     1.000000     0.000000     0.000000     0.000000
   21     1.000000    90.000000    -1.000000     0.000000     0.000000     0.000000     0.000000     0.000000
   22    -1.000000    90.000000    -1.000000     0.000000     0.000000     0.000000     0.000000     0.000000
   23     1.000000   180.000000     0.707107     0.000000     0.707107     0.000000     0.000000     0.000000
   24    -1.000000   180.000000     0.707107     0.000000     0.707107     0.000000     0.000000     0.000000
   25     1.000000   120.000000     0.577350    -0.577350     0.577350     0.000000     0.000000     0.000000
   26    -1.000000   120.000000     0.577350    -0.577350     0.577350     0.000000     0.000000     0.000000
   27     1.000000   120.000000    -0.577350    -0.577350     0.577350     0.000000     0.000000     0.000000
   28    -1.000000   120.000000    -0.577350    -0.577350     0.577350     0.000000     0.000000     0.000000
   29     1.000000   180.000000     1.000000     0.000000     0.000000     0.000000     0.000000     0.000000
   30    -1.000000   180.000000     1.000000     0.000000     0.000000     0.000000     0.000000     0.000000
   31     1.000000    90.000000     0.000000    -1.000000     0.000000     0.000000     0.000000     0.000000
   32    -1.000000    90.000000     0.000000    -1.000000     0.000000     0.000000     0.000000     0.000000
   33     1.000000   180.000000     0.707107     0.707107     0.000000     0.000000     0.000000     0.000000
   34    -1.000000   180.000000     0.707107     0.707107     0.000000     0.000000     0.000000     0.000000
   35     1.000000    90.000000     1.000000     0.000000     0.000000     0.000000     0.000000     0.000000
   36    -1.000000    90.000000     1.000000     0.000000     0.000000     0.000000     0.000000     0.000000
   37     1.000000   120.000000     0.577350    -0.577350    -0.577350     0.000000     0.000000     0.000000
   38    -1.000000   120.000000     0.577350    -0.577350    -0.577350     0.000000     0.000000     0.000000
   39     1.000000   180.000000     0.000000     1.000000     0.000000     0.000000     0.000000     0.000000
   40    -1.000000   180.000000     0.000000     1.000000     0.000000     0.000000     0.000000     0.000000
   41     1.000000   120.000000     0.577350     0.577350    -0.577350     0.000000     0.000000     0.000000
   42    -1.000000   120.000000     0.577350     0.577350    -0.577350     0.000000     0.000000     0.000000
   43     1.000000   180.000000     0.000000    -0.707107     0.707107     0.000000     0.000000     0.000000
   44    -1.000000   180.000000     0.000000    -0.707107     0.707107     0.000000     0.000000     0.000000
   45     1.000000   180.000000     0.707107    -0.707107     0.000000     0.000000     0.000000     0.000000
   46    -1.000000   180.000000     0.707107    -0.707107     0.000000     0.000000     0.000000     0.000000
   47     1.000000   180.000000     0.707107     0.000000    -0.707107     0.000000     0.000000     0.000000
   48    -1.000000   180.000000     0.707107     0.000000    -0.707107     0.000000     0.000000     0.000000
 
 Subroutine IBZKPT returns following result:
 ===========================================
 
 Found     10 irreducible k-points:
 
 Following reciprocal coordinates:
            Coordinates               Weight
  0.000000  0.000000  0.000000      1.000000
  0.200000  0.000000  0.000000      6.000000
  0.400000  0.000000  0.000000      6.000000
  0.200000  0.200000  0.000000     12.000000
  0.400000  0.200000  0.000000     24.000000
  0.400000  0.400000  0.000000     12.000000
  0.200000  0.200000  0.200000      8.000000
  0.400000  0.200000  0.200000     24.000000
  0.400000  0.400000  0.200000     24.000000
  0.400000  0.400000  0.400000      8.000000
 
 Following cartesian coordinates:
            Coordinates               Weight
  0.000000  0.000000  0.000000      1.000000
  0.019352  0.000000  0.000000      6.000000
  0.038704  0.000000  0.000000      6.000000
  0.019352  0.019352  0.000000     12.000000
  0.038704  0.019352  0.000000     24.000000
  0.038704  0.038704  0.000000     12.000000
  0.019352  0.019352  0.019352      8.000000
  0.038704  0.019352  0.019352     24.000000
  0.038704  0.038704  0.019352     24.000000
  0.038704  0.038704  0.038704      8.000000
 


--------------------------------------------------------------------------------------------------------




 Dimension of arrays:
   k-points           NKPTS =     10   k-points in BZ     NKDIM =     10   number of bands    NBANDS=    518
   number of dos      NEDOS =    301   number of ions     NIONS =    108
   non local maximal  LDIM  =      6   non local SUM 2l+1 LMDIM =     18
   total plane-waves  NPLWV = 373248
   max r-space proj   IRMAX =   4912   max aug-charges    IRDMAX=  12243
   dimension x,y,z NGX =    72 NGY =   72 NGZ =   72
   dimension x,y,z NGXF=   144 NGYF=  144 NGZF=  144
   support grid    NGXF=   144 NGYF=  144 NGZF=  144
   ions per type =             108
   NGX,Y,Z   is equivalent  to a cutoff of  11.58, 11.58, 11.58 a.u.
   NGXF,Y,Z  is equivalent  to a cutoff of  23.16, 23.16, 23.16 a.u.

 Based on PREC, I would recommend the following setting:
   dimension x,y,z NGX =    54 NGY =   54 NGZ =   54

 SYSTEM =  Opt                                     
 POSCAR =  fcc_Fe_CON_333                          

 Startparameter for this run:
   NWRITE =      2    write-flag & timer
   PREC   = normal    normal or accurate (medium, high low for compatibility)
   ISTART =      0    job   : 0-new  1-cont  2-samecut
   ICHARG =      2    charge: 1-file 2-atom 10-const
   ISPIN  =      1    spin polarized calculation?
   LNONCOLLINEAR =      F non collinear calculations
   LSORBIT =      F    spin-orbit coupling
   INIWAV =      1    electr: 0-lowe 1-rand  2-diag
   LASPH  =      F    aspherical Exc in radial PAW
   METAGGA=      F    non-selfconsistent MetaGGA calc.

 Electronic Relaxation 1
   ENCUT  =  400.0 eV  29.40 Ry    5.42 a.u.  16.85 16.85 16.85*2*pi/ulx,y,z
   ENINI  =  400.0     initial cutoff
   ENAUG  =  511.4 eV  augmentation charge cutoff
   NELM   =    400;   NELMIN=  2; NELMDL= -5     # of ELM steps 
   EDIFF  = 0.1E-05   stopping-criterion for ELM
   LREAL  =      T    real-space projection
   NLSPLINE    = F    spline interpolate recip. space projectors
   LCOMPAT=      F    compatible to vasp.4.4
   GGA_COMPAT  = T    GGA compatible to vasp.4.4-vasp.4.6
   LMAXPAW     = -100 max onsite density
   LMAXMIX     =    2 max onsite mixed and CHGCAR
   VOSKOWN=      0    Vosko Wilk Nusair interpolation
   ROPT   =   -0.00050
 Ionic relaxation
   EDIFFG = -.1E-01   stopping-criterion for IOM
   NSW    =    100    number of steps for IOM
   NBLOCK =      1;   KBLOCK =    100    inner block; outer block 
   IBRION =      2    ionic relax: 0-MD 1-quasi-New 2-CG
   NFREE  =      1    steps in history (QN), initial steepest desc. (CG)
   ISIF   =      3    stress and relaxation
   IWAVPR =     11    prediction:  0-non 1-charg 2-wave 3-comb
   ISYM   =      2    0-nonsym 1-usesym 2-fastsym
   LCORR  =      T    Harris-Foulkes like correction to forces

   POTIM  = 0.5000    time-step for ionic-motion
   TEIN   =    0.0    initial temperature
   TEBEG  =    0.0;   TEEND  =   0.0 temperature during run
   SMASS  =  -3.00    Nose mass-parameter (am)
   estimated Nose-frequenzy (Omega)   =  0.10E-29 period in steps =****** mass=  -0.244E-26a.u.
   SCALEE = 1.0000    scale energy and forces
   NPACO  =    256;   APACO  = 16.0  distance and # of slots for P.C.
   PSTRESS=    0.0 pullay stress

  Mass of Ions in am
   POMASS =  55.85
  Ionic Valenz
   ZVAL   =   8.00
  Atomic Wigner-Seitz radii
   RWIGS  =  -1.00
  virtual crystal weights 
   VCA    =   1.00
   NELECT =     864.0000    total number of electrons
   NUPDOWN=      -1.0000    fix difference up-down

 DOS related values:
   EMIN   =  10.00;   EMAX   =-10.00  energy-range for DOS
   EFERMI =   0.00
   ISMEAR =     1;   SIGMA  =   0.20  broadening in eV -4-tet -1-fermi 0-gaus

 Electronic relaxation 2 (details)
   IALGO  =     68    algorithm
   LDIAG  =      T    sub-space diagonalisation (order eigenvalues)
   LSUBROT=      F    optimize rotation matrix (better conditioning)
   TURBO    =      0    0=normal 1=particle mesh
   IRESTART =      0    0=no restart 2=restart with 2 vectors
   NREBOOT  =      0    no. of reboots
   NMIN     =      0    reboot dimension
   EREF     =   0.00    reference energy to select bands
   IMIX   =      4    mixing-type and parameters
     AMIX     =   0.40;   BMIX     =  1.00
     AMIX_MAG =   1.60;   BMIX_MAG =  1.00
     AMIN     =   0.10
     WC   =   100.;   INIMIX=   1;  MIXPRE=   1;  MAXMIX= -45

 Intra band minimization:
   WEIMIN = 0.0010     energy-eigenvalue tresh-hold
   EBREAK =  0.48E-09  absolut break condition
   DEPER  =   0.30     relativ break condition  

   TIME   =   0.40     timestep for ELM

  volume/ion in A,a.u.               =      10.22        68.97
  Fermi-wavevector in a.u.,A,eV,Ry     =   1.508720  2.851068 30.970078  2.276236
  Thomas-Fermi vector in A             =   2.619137
 
 Write flags
   LWAVE        =      F    write WAVECAR
   LDOWNSAMPLE  =      F    k-point downsampling of WAVECAR
   LCHARG       =      F    write CHGCAR
   LVTOT        =      F    write LOCPOT, total local potential
   LVHAR        =      F    write LOCPOT, Hartree potential only
   LELF         =      F    write electronic localiz. function (ELF)
   LORBIT       =      0    0 simple, 1 ext, 2 COOP (PROOUT), +10 PAW based schemes


 Dipole corrections
   LMONO  =      F    monopole corrections only (constant potential shift)
   LDIPOL =      F    correct potential (dipole corrections)
   IDIPOL =      0    1-x, 2-y, 3-z, 4-all directions 
   EPSILON=  1.0000000 bulk dielectric constant

 Exchange correlation treatment:
   GGA     =    --    GGA type
   LEXCH   =     8    internal setting for exchange type
   VOSKOWN=      0    Vosko Wilk Nusair interpolation
   LHFCALC =     F    Hartree Fock is set to
   LHFONE  =     F    Hartree Fock one center treatment
   AEXX    =    0.0000 exact exchange contribution

 Linear response parameters
   LEPSILON=     F    determine dielectric tensor
   LRPA    =     F    only Hartree local field effects (RPA)
   LNABLA  =     F    use nabla operator in PAW spheres
   LVEL    =     F    velocity operator in full k-point grid
   LINTERFAST=   F  fast interpolation
   KINTER  =     0    interpolate to denser k-point grid
   CSHIFT  =0.1000    complex shift for real part using Kramers Kronig
   OMEGAMAX=  -1.0    maximum frequency
   DEG_THRESHOLD= 0.2000000E-02 threshold for treating states as degnerate
   RTIME   =   -0.100 relaxation time in fs
  (WPLASMAI=    0.000 imaginary part of plasma frequency in eV, 0.658/RTIME)
   DFIELD  = 0.0000000 0.0000000 0.0000000 field for delta impulse in time
 
 Orbital magnetization related:
   ORBITALMAG=     F  switch on orbital magnetization
   LCHIMAG   =     F  perturbation theory with respect to B field
   DQ        =  0.001000  dq finite difference perturbation B field
   LLRAUG    =     F  two centre corrections for induced B field



--------------------------------------------------------------------------------------------------------


 conjugate gradient relaxation of ions
 charge density and potential will be updated during run
 non-spin polarized calculation
 RMM-DIIS sequential band-by-band and
  variant of blocked Davidson during initial phase
 perform sub-space diagonalisation
    before iterative eigenvector-optimisation
 modified Broyden-mixing scheme, WC =      100.0
 initial mixing is a Kerker type mixing with AMIX =  0.4000 and BMIX =      1.0000
 Hartree-type preconditioning will be used
 using additional bands           86
 real space projection scheme for non local part
 use partial core corrections
 calculate Harris-corrections to forces 
   (improved forces if not selfconsistent)
 use gradient corrections 
 use of overlap-Matrix (Vanderbilt PP)
 Methfessel and Paxton  Order N= 1 SIGMA  =   0.20


--------------------------------------------------------------------------------------------------------


  energy-cutoff  :      400.00
  volume of cell :     1103.86
      direct lattice vectors                 reciprocal lattice vectors
    10.334847047  0.000000000  0.000000000     0.096760019  0.000000000  0.000000000
     0.000000000 10.334847047  0.000000000     0.000000000  0.096760019  0.000000000
     0.000000000  0.000000000 10.334847047     0.000000000  0.000000000  0.096760019

  length of vectors
    10.334847047 10.334847047 10.334847047     0.096760019  0.096760019  0.096760019


 
 k-points in units of 2pi/SCALE and weight: pymatgen generated KPOINTS with grid den
   0.00000000  0.00000000  0.00000000       0.008
   0.01935200  0.00000000  0.00000000       0.048
   0.03870401  0.00000000  0.00000000       0.048
   0.01935200  0.01935200  0.00000000       0.096
   0.03870401  0.01935200  0.00000000       0.192
   0.03870401  0.03870401  0.00000000       0.096
   0.01935200  0.01935200  0.01935200       0.064
   0.03870401  0.01935200  0.01935200       0.192
   0.03870401  0.03870401  0.01935200       0.192
   0.03870401  0.03870401  0.03870401       0.064
 
 k-points in reciprocal lattice and weights: pymatgen generated KPOINTS with grid den
   0.00000000  0.00000000  0.00000000       0.008
   0.20000000  0.00000000  0.00000000       0.048
   0.40000000  0.00000000  0.00000000       0.048
   0.20000000  0.20000000  0.00000000       0.096
   0.40000000  0.20000000  0.00000000       0.192
   0.40000000  0.40000000  0.00000000       0.096
   0.20000000  0.20000000  0.20000000       0.064
   0.40000000  0.20000000  0.20000000       0.192
   0.40000000  0.40000000  0.20000000       0.192
   0.40000000  0.40000000  0.40000000       0.064
 
 position of ions in fractional coordinates (direct lattice) 
   0.00000000  0.00000000  0.00000000
   0.00000000  0.16666893  0.16666893
   0.16666893  0.00000000  0.16666893
   0.16666893  0.16666893  0.00000000
   0.33333106  0.00000000  0.00000000
   0.33333107  0.16666893  0.16666893
   0.50000000  0.00000000  0.16666894
   0.50000000  0.16666894  0.00000000
   0.66666897  0.00000000  0.00000000
   0.66666896  0.16666893  0.16666893
   0.83333104  0.00000000  0.16666893
   0.83333104  0.16666893  0.00000000
   0.00000000  0.33333106  0.00000000
   0.00000000  0.50000000  0.16666894
   0.16666893  0.33333107  0.16666893
   0.16666894  0.50000000  0.00000000
   0.33333107  0.33333107  0.00000000
   0.33333107  0.50000000  0.16666893
   0.50000000  0.33333107  0.16666893
   0.50000000  0.50000000  0.00000000
   0.66666896  0.33333107  0.00000000
   0.66666896  0.50000000  0.16666893
   0.83333104  0.33333107  0.16666893
   0.83333103  0.50000000  0.00000000
   0.00000000  0.66666897  0.00000000
   0.00000000  0.83333104  0.16666893
   0.16666893  0.66666896  0.16666893
   0.16666893  0.83333104  0.00000000
   0.33333107  0.66666896  0.00000000
   0.33333107  0.83333104  0.16666893
   0.50000000  0.66666896  0.16666893
   0.50000000  0.83333103  0.00000000
   0.66666896  0.66666896  0.00000000
   0.66666896  0.83333104  0.16666893
   0.83333104  0.66666896  0.16666893
   0.83333104  0.83333104  0.00000000
   0.00000000  0.00000000  0.33333106
   0.00000000  0.16666894  0.50000000
   0.16666894  0.00000000  0.50000000
   0.16666893  0.16666893  0.33333107
   0.33333107  0.00000000  0.33333107
   0.33333107  0.16666893  0.50000000
   0.50000000  0.00000000  0.50000000
   0.50000000  0.16666893  0.33333107
   0.66666896  0.00000000  0.33333107
   0.66666896  0.16666893  0.50000000
   0.83333103  0.00000000  0.50000000
   0.83333104  0.16666893  0.33333107
   0.00000000  0.33333107  0.33333107
   0.00000000  0.50000000  0.50000000
   0.16666893  0.33333107  0.50000000
   0.16666893  0.50000000  0.33333107
   0.33333107  0.33333107  0.33333107
   0.33333106  0.50000000  0.50000000
   0.50000000  0.33333106  0.50000000
   0.50000000  0.50000000  0.33333106
   0.66666896  0.33333107  0.33333107
   0.66666897  0.50000000  0.50000000
   0.83333104  0.33333107  0.50000000
   0.83333104  0.50000000  0.33333107
   0.00000000  0.66666896  0.33333107
   0.00000000  0.83333103  0.50000000
   0.16666893  0.66666896  0.50000000
   0.16666893  0.83333104  0.33333107
   0.33333107  0.66666896  0.33333107
   0.33333107  0.83333104  0.50000000
   0.50000000  0.66666897  0.50000000
   0.50000000  0.83333104  0.33333107
   0.66666896  0.66666896  0.33333107
   0.66666896  0.83333104  0.50000000
   0.83333104  0.66666896  0.50000000
   0.83333104  0.83333104  0.33333107
   0.00000000  0.00000000  0.66666897
   0.00000000  0.16666893  0.83333104
   0.16666893  0.00000000  0.83333104
   0.16666893  0.16666893  0.66666896
   0.33333107  0.00000000  0.66666896
   0.33333107  0.16666893  0.83333104
   0.50000000  0.00000000  0.83333103
   0.50000000  0.16666893  0.66666896
   0.66666896  0.00000000  0.66666896
   0.66666896  0.16666893  0.83333104
   0.83333104  0.00000000  0.83333104
   0.83333104  0.16666893  0.66666896
   0.00000000  0.33333107  0.66666896
   0.00000000  0.50000000  0.83333103
   0.16666893  0.33333107  0.83333104
   0.16666893  0.50000000  0.66666896
   0.33333107  0.33333107  0.66666896
   0.33333107  0.50000000  0.83333104
   0.50000000  0.33333107  0.83333104
   0.50000000  0.50000000  0.66666897
   0.66666896  0.33333107  0.66666896
   0.66666896  0.50000000  0.83333104
   0.83333104  0.33333107  0.83333104
   0.83333104  0.50000000  0.66666896
   0.00000000  0.66666896  0.66666896
   0.00000000  0.83333104  0.83333104
   0.16666893  0.66666896  0.83333104
   0.16666893  0.83333104  0.66666896
   0.33333107  0.66666896  0.66666896
   0.33333107  0.83333104  0.83333104
   0.50000000  0.66666896  0.83333104
   0.50000000  0.83333104  0.66666896
   0.66666896  0.66666896  0.66666896
   0.66666896  0.83333104  0.83333104
   0.83333104  0.66666896  0.83333104
   0.83333104  0.83333104  0.66666896
 
 position of ions in cartesian coordinates  (Angst):
   0.00000000  0.00000000  0.00000000
   0.00000000  1.72249793  1.72249793
   1.72249793  0.00000000  1.72249793
   1.72249793  1.72249793  0.00000000
   3.44492554  0.00000000  0.00000000
   3.44492559  1.72249794  1.72249794
   5.16742352  0.00000000  1.72249798
   5.16742352  1.72249798  0.00000000
   6.88992180  0.00000000  0.00000000
   6.88992176  1.72249794  1.72249794
   8.61234881  0.00000000  1.72249793
   8.61234881  1.72249793  0.00000000
   0.00000000  3.44492554  0.00000000
   0.00000000  5.16742352  1.72249798
   1.72249794  3.44492559  1.72249794
   1.72249798  5.16742352  0.00000000
   3.44492559  3.44492559  0.00000000
   3.44492559  5.16742352  1.72249793
   5.16742352  3.44492559  1.72249793
   5.16742352  5.16742352  0.00000000
   6.88992176  3.44492559  0.00000000
   6.88992176  5.16742352  1.72249793
   8.61234881  3.44492559  1.72249794
   8.61234877  5.16742352  0.00000000
   0.00000000  6.88992180  0.00000000
   0.00000000  8.61234881  1.72249793
   1.72249794  6.88992176  1.72249794
   1.72249793  8.61234881  0.00000000
   3.44492559  6.88992176  0.00000000
   3.44492559  8.61234881  1.72249794
   5.16742352  6.88992176  1.72249793
   5.16742352  8.61234877  0.00000000
   6.88992176  6.88992176  0.00000000
   6.88992176  8.61234881  1.72249794
   8.61234881  6.88992176  1.72249794
   8.61234881  8.61234881  0.00000000
   0.00000000  0.00000000  3.44492554
   0.00000000  1.72249798  5.16742352
   1.72249798  0.00000000  5.16742352
   1.72249794  1.72249794  3.44492559
   3.44492559  0.00000000  3.44492559
   3.44492559  1.72249793  5.16742352
   5.16742352  0.00000000  5.16742352
   5.16742352  1.72249793  3.44492559
   6.88992176  0.00000000  3.44492559
   6.88992176  1.72249793  5.16742352
   8.61234877  0.00000000  5.16742352
   8.61234881  1.72249794  3.44492559
   0.00000000  3.44492559  3.44492559
   0.00000000  5.16742352  5.16742352
   1.72249793  3.44492559  5.16742352
   1.72249793  5.16742352  3.44492559
   3.44492559  3.44492559  3.44492559
   3.44492554  5.16742352  5.16742352
   5.16742352  3.44492554  5.16742352
   5.16742352  5.16742352  3.44492554
   6.88992176  3.44492559  3.44492559
   6.88992180  5.16742352  5.16742352
   8.61234881  3.44492559  5.16742352
   8.61234881  5.16742352  3.44492559
   0.00000000  6.88992176  3.44492559
   0.00000000  8.61234877  5.16742352
   1.72249793  6.88992176  5.16742352
   1.72249794  8.61234881  3.44492559
   3.44492559  6.88992176  3.44492559
   3.44492559  8.61234881  5.16742352
   5.16742352  6.88992180  5.16742352
   5.16742352  8.61234881  3.44492559
   6.88992176  6.88992176  3.44492559
   6.88992176  8.61234881  5.16742352
   8.61234881  6.88992176  5.16742352
   8.61234881  8.61234881  3.44492559
   0.00000000  0.00000000  6.88992180
   0.00000000  1.72249793  8.61234881
   1.72249793  0.00000000  8.61234881
   1.72249794  1.72249794  6.88992176
   3.44492559  0.00000000  6.88992176
   3.44492559  1.72249794  8.61234881
   5.16742352  0.00000000  8.61234877
   5.16742352  1.72249793  6.88992176
   6.88992176  0.00000000  6.88992176
   6.88992176  1.72249794  8.61234881
   8.61234881  0.00000000  8.61234881
   8.61234881  1.72249794  6.88992176
   0.00000000  3.44492559  6.88992176
   0.00000000  5.16742352  8.61234877
   1.72249794  3.44492559  8.61234881
   1.72249793  5.16742352  6.88992176
   3.44492559  3.44492559  6.88992176
   3.44492559  5.16742352  8.61234881
   5.16742352  3.44492559  8.61234881
   5.16742352  5.16742352  6.88992180
   6.88992176  3.44492559  6.88992176
   6.88992176  5.16742352  8.61234881
   8.61234881  3.44492559  8.61234881
   8.61234881  5.16742352  6.88992176
   0.00000000  6.88992176  6.88992176
   0.00000000  8.61234881  8.61234881
   1.72249794  6.88992176  8.61234881
   1.72249794  8.61234881  6.88992176
   3.44492559  6.88992176  6.88992176
   3.44492559  8.61234881  8.61234881
   5.16742352  6.88992176  8.61234881
   5.16742352  8.61234881  6.88992176
   6.88992176  6.88992176  6.88992176
   6.88992176  8.61234881  8.61234881
   8.61234881  6.88992176  8.61234881
   8.61234881  8.61234881  6.88992176
 


--------------------------------------------------------------------------------------------------------


 k-point  1 :   0.0000 0.0000 0.0000  plane waves:   20005
 k-point  2 :   0.2000 0.0000 0.0000  plane waves:   20058
 k-point  3 :   0.4000 0.0000 0.0000  plane waves:   20078
 k-point  4 :   0.2000 0.2000 0.0000  plane waves:   20052
 k-point  5 :   0.4000 0.2000 0.0000  plane waves:   20028
 k-point  6 :   0.4000 0.4000 0.0000  plane waves:   20062
 k-point  7 :   0.2000 0.2000 0.2000  plane waves:   20044
 k-point  8 :   0.4000 0.2000 0.2000  plane waves:   20082
 k-point  9 :   0.4000 0.4000 0.2000  plane waves:   20084
 k-point 10 :   0.4000 0.4000 0.4000  plane waves:   20075

 maximum and minimum number of plane-waves per node :      5046     4983

 maximum number of plane-waves:     20084
 maximum index in each direction: 
   IXMAX=   16   IYMAX=   16   IZMAX=   16
   IXMIN=  -17   IYMIN=  -17   IZMIN=  -17


 real space projection operators:
  total allocation   :      71821.69 KBytes
  max/ min on nodes  :      18240.19      17708.62


 parallel 3D FFT for wavefunctions:
    minimum data exchange during FFTs selected (reduces bandwidth)
 parallel 3D FFT for charge:
    minimum data exchange during FFTs selected (reduces bandwidth)


 total amount of memory used by VASP MPI-rank0   327338. kBytes
=======================================================================

   base      :      30000. kBytes
   nonlr-proj:      31400. kBytes
   fftplans  :      15433. kBytes
   grid      :      21835. kBytes
   one-center:        419. kBytes
   wavefun   :     228251. kBytes
 
     INWAV:  cpu time    0.0000: real time    0.0001
 Broyden mixing: mesh for mixing (old mesh)
   NGX = 33   NGY = 33   NGZ = 33
  (NGX  =144   NGY  =144   NGZ  =144)
  gives a total of  35937 points

 initial charge density was supplied:
 charge density of overlapping atoms calculated
 number of electron     864.0000000 magnetization 
 keeping initial charge density in first step


--------------------------------------------------------------------------------------------------------


 Maximum index for non-local projection operator         1201
 Maximum index for augmentation-charges         1463 (set IRDMAX)


--------------------------------------------------------------------------------------------------------


 First call to EWALD:  gamma=   0.172
 Maximum number of real-space cells 3x 3x 3
 Maximum number of reciprocal cells 3x 3x 3

    FEWALD:  cpu time    0.0104: real time    0.0108


--------------------------------------- Iteration      1(   1)  ---------------------------------------


    POTLOK:  cpu time    0.3081: real time    0.3091
    SETDIJ:  cpu time    0.0534: real time    0.0534
     EDDAV:  cpu time  103.6533: real time  103.7126
       DOS:  cpu time    0.0099: real time    0.0099
    --------------------------------------------
      LOOP:  cpu time  104.0249: real time  104.0851

 eigenvalue-minimisations  : 10360
 total energy-change (2. order) : 0.7596569E+04  (-0.2885943E+05)
 number of electron     864.0000000 magnetization 
 augmentation part      864.0000000 magnetization 

 Free energy of the ion-electron system (eV)
  ---------------------------------------------------
  alpha Z        PSCENC =      7300.31925852
  Ewald energy   TEWEN  =    -66232.83996889
  -Hartree energ DENC   =    -11197.02572337
  -exchange      EXHF   =         0.00000000
  -V(xc)+E(xc)   XCENC  =       446.63038354
  PAW double counting   =     51723.88885462   -52548.28121372
  entropy T*S    EENTRO =        -0.00582033
  eigenvalues    EBANDS =     13902.21266026
  atomic energy  EATOM  =     64201.67088057
  Solvation  Ediel_sol  =         0.00000000
  ---------------------------------------------------
  free energy    TOTEN  =      7596.56931121 eV

  energy without entropy =     7596.57513154  energy(sigma->0) =     7596.57125132


--------------------------------------------------------------------------------------------------------




--------------------------------------- Iteration      1(   2)  ---------------------------------------


     EDDAV:  cpu time  103.2337: real time  103.2735
       DOS:  cpu time    0.0147: real time    0.0147
    --------------------------------------------
      LOOP:  cpu time  103.2485: real time  103.2882

 eigenvalue-minimisations  : 10360
 total energy-change (2. order) :-0.7619806E+04  (-0.7450038E+04)
 number of electron     864.0000000 magnetization 
 augmentation part      864.0000000 magnetization 

 Free energy of the ion-electron system (eV)
  ---------------------------------------------------
  alpha Z        PSCENC =      7300.31925852
  Ewald energy   TEWEN  =    -66232.83996889
  -Hartree energ DENC   =    -11197.02572337
  -exchange      EXHF   =         0.00000000
  -V(xc)+E(xc)   XCENC  =       446.63038354
  PAW double counting   =     51723.88885462   -52548.28121372
  entropy T*S    EENTRO =         0.00457181
  eigenvalues    EBANDS =      6282.39628609
  atomic energy  EATOM  =     64201.67088057
  Solvation  Ediel_sol  =         0.00000000
  ---------------------------------------------------
  free energy    TOTEN  =       -23.23667082 eV

  energy without entropy =      -23.24124263  energy(sigma->0) =      -23.23819475


--------------------------------------------------------------------------------------------------------




--------------------------------------- Iteration      1(   3)  ---------------------------------------


     EDDAV:  cpu time  105.8186: real time  105.8586
       DOS:  cpu time    0.0174: real time    0.0174
    --------------------------------------------
      LOOP:  cpu time  105.8360: real time  105.8760

 eigenvalue-minimisations  : 10408
 total energy-change (2. order) :-0.8276634E+03  (-0.7074480E+03)
 number of electron     864.0000000 magnetization 
 augmentation part      864.0000000 magnetization 

 Free energy of the ion-electron system (eV)
  ---------------------------------------------------
  alpha Z        PSCENC =      7300.31925852
  Ewald energy   TEWEN  =    -66232.83996889
  -Hartree energ DENC   =    -11197.02572337
  -exchange      EXHF   =         0.00000000
  -V(xc)+E(xc)   XCENC  =       446.63038354
  PAW double counting   =     51723.88885462   -52548.28121372
  entropy T*S    EENTRO =         0.01540386
  eigenvalues    EBANDS =      5454.72201137
  atomic energy  EATOM  =     64201.67088057
  Solvation  Ediel_sol  =         0.00000000
  ---------------------------------------------------
  free energy    TOTEN  =      -850.90011349 eV

  energy without entropy =     -850.91551735  energy(sigma->0) =     -850.90524811


--------------------------------------------------------------------------------------------------------




--------------------------------------- Iteration      1(   4)  ---------------------------------------


     EDDAV:  cpu time  176.0104: real time  176.0511
       DOS:  cpu time    0.0175: real time    0.0175
    --------------------------------------------
      LOOP:  cpu time  176.0279: real time  176.0686

 eigenvalue-minimisations  : 18776
 total energy-change (2. order) :-0.1790382E+03  (-0.1679972E+03)
 number of electron     864.0000000 magnetization 
 augmentation part      864.0000000 magnetization 

 Free energy of the ion-electron system (eV)
  ---------------------------------------------------
  alpha Z        PSCENC =      7300.31925852
  Ewald energy   TEWEN  =    -66232.83996889
  -Hartree energ DENC   =    -11197.02572337
  -exchange      EXHF   =         0.00000000
  -V(xc)+E(xc)   XCENC  =       446.63038354
  PAW double counting   =     51723.88885462   -52548.28121372
  entropy T*S    EENTRO =         0.05324787
  eigenvalues    EBANDS =      5275.64592439
  atomic energy  EATOM  =     64201.67088057
  Solvation  Ediel_sol  =         0.00000000
  ---------------------------------------------------
  free energy    TOTEN  =     -1029.93835646 eV

  energy without entropy =    -1029.99160433  energy(sigma->0) =    -1029.95610575


--------------------------------------------------------------------------------------------------------




--------------------------------------- Iteration      1(   5)  ---------------------------------------


     EDDAV:  cpu time  157.5268: real time  157.5966
       DOS:  cpu time    0.0178: real time    0.0178
    CHARGE:  cpu time    5.2377: real time    5.2392
    MIXING:  cpu time    0.0078: real time    0.0078
    --------------------------------------------
      LOOP:  cpu time  162.7901: real time  162.8615

 eigenvalue-minimisations  : 16512
 total energy-change (2. order) :-0.1514158E+02  (-0.1430983E+02)
 number of electron     864.0000693 magnetization 
 augmentation part      382.8063085 magnetization 

 Broyden mixing:
  rms(total) = 0.93423E+01    rms(broyden)= 0.93417E+01
  rms(prec ) = 0.11648E+02
  weight for this iteration     100.00

 Free energy of the ion-electron system (eV)
  ---------------------------------------------------
  alpha Z        PSCENC =      7300.31925852
  Ewald energy   TEWEN  =    -66232.83996889
  -Hartree energ DENC   =    -11197.02572337
  -exchange      EXHF   =         0.00000000
  -V(xc)+E(xc)   XCENC  =       446.63038354
  PAW double counting   =     51723.88885462   -52548.28121372
  entropy T*S    EENTRO =         0.09058805
  eigenvalues    EBANDS =      5260.46700150
  atomic energy  EATOM  =     64201.67088057
  Solvation  Ediel_sol  =         0.00000000
  ---------------------------------------------------
  free energy    TOTEN  =     -1045.07993917 eV

  energy without entropy =    -1045.17052722  energy(sigma->0) =    -1045.11013519


--------------------------------------------------------------------------------------------------------




--------------------------------------- Iteration      1(   6)  ---------------------------------------


    POTLOK:  cpu time    0.3160: real time    0.3163
    SETDIJ:  cpu time    0.0545: real time    0.0545
    EDDIAG:  cpu time   13.3139: real time   13.3340
  RMM-DIIS:  cpu time   63.6294: real time   63.6544
    ORTHCH:  cpu time    2.6056: real time    2.6074
       DOS:  cpu time    0.0195: real time    0.0195
    CHARGE:  cpu time    5.2002: real time    5.2007
    MIXING:  cpu time    0.0081: real time    0.0081
    --------------------------------------------
      LOOP:  cpu time   85.1473: real time   85.1948

 eigenvalue-minimisations  : 10360
 total energy-change (2. order) : 0.1676627E+03  (-0.1353342E+03)
 number of electron     864.0000780 magnetization 
 augmentation part      447.9341603 magnetization 

 Broyden mixing:
  rms(total) = 0.90263E+00    rms(broyden)= 0.90158E+00
  rms(prec ) = 0.97619E+00
  weight for this iteration     100.00

 eigenvalues of (default mixing * dielectric matrix)
  average eigenvalue GAMMA=   0.9473
  0.9473

 Free energy of the ion-electron system (eV)
  ---------------------------------------------------
  alpha Z        PSCENC =      7300.31925852
  Ewald energy   TEWEN  =    -66232.83996889
  -Hartree energ DENC   =     -9342.63428219
  -exchange      EXHF   =         0.00000000
  -V(xc)+E(xc)   XCENC  =       355.86537633
  PAW double counting   =     52446.04312636   -53026.92869967
  entropy T*S    EENTRO =        -0.06152869
  eigenvalues    EBANDS =      3421.14857979
  atomic energy  EATOM  =     64201.67088057
  Solvation  Ediel_sol  =         0.00000000
  ---------------------------------------------------
  free energy    TOTEN  =      -877.41725787 eV

  energy without entropy =     -877.35572918  energy(sigma->0) =     -877.39674831


--------------------------------------------------------------------------------------------------------




--------------------------------------- Iteration      1(   7)  ---------------------------------------


    POTLOK:  cpu time    0.3164: real time    0.3166
    SETDIJ:  cpu time    0.0552: real time    0.0552
    EDDIAG:  cpu time   12.8500: real time   12.8532
  RMM-DIIS:  cpu time   68.9811: real time   69.0045
    ORTHCH:  cpu time    2.4524: real time    2.4526
       DOS:  cpu time    0.0194: real time    0.0194
    CHARGE:  cpu time    4.8042: real time    4.8045
    MIXING:  cpu time    0.0080: real time    0.0080
    --------------------------------------------
      LOOP:  cpu time   89.4867: real time   89.5141

 eigenvalue-minimisations  : 11274
 total energy-change (2. order) :-0.2842648E+01  (-0.1097603E+02)
 number of electron     864.0000752 magnetization 
 augmentation part      446.6928870 magnetization 

 Broyden mixing:
  rms(total) = 0.32852E+00    rms(broyden)= 0.32721E+00
  rms(prec ) = 0.36692E+00
  weight for this iteration     100.00

 eigenvalues of (default mixing * dielectric matrix)
  average eigenvalue GAMMA=   1.0966
  1.0966  1.0966

 Free energy of the ion-electron system (eV)
  ---------------------------------------------------
  alpha Z        PSCENC =      7300.31925852
  Ewald energy   TEWEN  =    -66232.83996889
  -Hartree energ DENC   =     -9386.15255026
  -exchange      EXHF   =         0.00000000
  -V(xc)+E(xc)   XCENC  =       360.49310324
  PAW double counting   =     54331.59097867   -55108.96428114
  entropy T*S    EENTRO =         0.04420531
  eigenvalues    EBANDS =      3653.57846772
  atomic energy  EATOM  =     64201.67088057
  Solvation  Ediel_sol  =         0.00000000
  ---------------------------------------------------
  free energy    TOTEN  =      -880.25990624 eV

  energy without entropy =     -880.30411155  energy(sigma->0) =     -880.27464134


--------------------------------------------------------------------------------------------------------




--------------------------------------- Iteration      1(   8)  ---------------------------------------


    POTLOK:  cpu time    0.3017: real time    0.3024
    SETDIJ:  cpu time    0.0540: real time    0.0540
    EDDIAG:  cpu time   13.4658: real time   13.4691
  RMM-DIIS:  cpu time   66.7521: real time   66.7589
    ORTHCH:  cpu time    2.5771: real time    2.5773
       DOS:  cpu time    0.0190: real time    0.0190
    CHARGE:  cpu time    5.1229: real time    5.1233
    MIXING:  cpu time    0.0092: real time    0.0092
    --------------------------------------------
      LOOP:  cpu time   88.3018: real time   88.3132

 eigenvalue-minimisations  : 11069
 total energy-change (2. order) : 0.6138709E+00  (-0.1299436E+01)
 number of electron     864.0000749 magnetization 
 augmentation part      443.3128533 magnetization 

 Broyden mixing:
  rms(total) = 0.82970E+00    rms(broyden)= 0.82947E+00
  rms(prec ) = 0.11501E+01
  weight for this iteration     100.00

 eigenvalues of (default mixing * dielectric matrix)
  average eigenvalue GAMMA=   0.7907
  1.0189  1.2153  0.1381

 Free energy of the ion-electron system (eV)
  ---------------------------------------------------
  alpha Z        PSCENC =      7300.31925852
  Ewald energy   TEWEN  =    -66232.83996889
  -Hartree energ DENC   =     -9413.08358172
  -exchange      EXHF   =         0.00000000
  -V(xc)+E(xc)   XCENC  =       362.92988082
  PAW double counting   =     56110.47340390   -56994.95908633
  entropy T*S    EENTRO =         0.01747543
  eigenvalues    EBANDS =      3785.82570237
  atomic energy  EATOM  =     64201.67088057
  Solvation  Ediel_sol  =         0.00000000
  ---------------------------------------------------
  free energy    TOTEN  =      -879.64603533 eV

  energy without entropy =     -879.66351076  energy(sigma->0) =     -879.65186047


--------------------------------------------------------------------------------------------------------




--------------------------------------- Iteration      1(   9)  ---------------------------------------


    POTLOK:  cpu time    0.3152: real time    0.3167
    SETDIJ:  cpu time    0.0559: real time    0.0559
    EDDIAG:  cpu time   12.8020: real time   12.8031
  RMM-DIIS:  cpu time   80.0939: real time   80.1023
    ORTHCH:  cpu time    2.4975: real time    2.4977
       DOS:  cpu time    0.0190: real time    0.0190
    CHARGE:  cpu time    4.8671: real time    4.8678
    MIXING:  cpu time    0.0077: real time    0.0077
    --------------------------------------------
      LOOP:  cpu time  100.6582: real time  100.6701

 eigenvalue-minimisations  : 13478
 total energy-change (2. order) :-0.4341845E-01  (-0.4489243E+00)
 number of electron     864.0000751 magnetization 
 augmentation part      443.8419658 magnetization 

 Broyden mixing:
  rms(total) = 0.24291E+00    rms(broyden)= 0.24222E+00
  rms(prec ) = 0.29979E+00
  weight for this iteration     100.00

 eigenvalues of (default mixing * dielectric matrix)
  average eigenvalue GAMMA=   1.1288
  2.3260  1.0392  1.0392  0.1107

 Free energy of the ion-electron system (eV)
  ---------------------------------------------------
  alpha Z        PSCENC =      7300.31925852
  Ewald energy   TEWEN  =    -66232.83996889
  -Hartree energ DENC   =     -9408.24750790
  -exchange      EXHF   =         0.00000000
  -V(xc)+E(xc)   XCENC  =       362.77673542
  PAW double counting   =     56281.03627829   -57173.14345201
  entropy T*S    EENTRO =         0.03394435
  eigenvalues    EBANDS =      3788.70437787
  atomic energy  EATOM  =     64201.67088057
  Solvation  Ediel_sol  =         0.00000000
  ---------------------------------------------------
  free energy    TOTEN  =      -879.68945378 eV

  energy without entropy =     -879.72339813  energy(sigma->0) =     -879.70076856


--------------------------------------------------------------------------------------------------------




--------------------------------------- Iteration      1(  10)  ---------------------------------------


    POTLOK:  cpu time    0.2894: real time    0.2898
    SETDIJ:  cpu time    0.0538: real time    0.0538
    EDDIAG:  cpu time   13.1376: real time   13.1403
  RMM-DIIS:  cpu time   84.0417: real time   84.0515
    ORTHCH:  cpu time    2.4935: real time    2.4953
       DOS:  cpu time    0.0194: real time    0.0194
    CHARGE:  cpu time    4.8479: real time    4.8483
    MIXING:  cpu time    0.0084: real time    0.0084
    --------------------------------------------
      LOOP:  cpu time  104.8918: real time  104.9068

 eigenvalue-minimisations  : 14299
 total energy-change (2. order) : 0.1504668E+00  (-0.1006613E+00)
 number of electron     864.0000753 magnetization 
 augmentation part      444.7071829 magnetization 

 Broyden mixing:
  rms(total) = 0.42239E-01    rms(broyden)= 0.42228E-01
  rms(prec ) = 0.50236E-01
  weight for this iteration     100.00

 eigenvalues of (default mixing * dielectric matrix)
  average eigenvalue GAMMA=   1.1804
  2.5918  1.2964  0.9514  0.9514  0.1110

 Free energy of the ion-electron system (eV)
  ---------------------------------------------------
  alpha Z        PSCENC =      7300.31925852
  Ewald energy   TEWEN  =    -66232.83996889
  -Hartree energ DENC   =     -9340.11972069
  -exchange      EXHF   =         0.00000000
  -V(xc)+E(xc)   XCENC  =       360.12702543
  PAW double counting   =     57765.58548726   -58704.46170630
  entropy T*S    EENTRO =         0.03769410
  eigenvalues    EBANDS =      3770.14206299
  atomic energy  EATOM  =     64201.67088057
  Solvation  Ediel_sol  =         0.00000000
  ---------------------------------------------------
  free energy    TOTEN  =      -879.53898700 eV

  energy without entropy =     -879.57668111  energy(sigma->0) =     -879.55155171


--------------------------------------------------------------------------------------------------------




--------------------------------------- Iteration      1(  11)  ---------------------------------------


    POTLOK:  cpu time    0.3077: real time    0.3084
    SETDIJ:  cpu time    0.0539: real time    0.0539
    EDDIAG:  cpu time   13.1334: real time   13.1355
  RMM-DIIS:  cpu time   86.7139: real time   86.7285
    ORTHCH:  cpu time    2.5546: real time    2.5548
       DOS:  cpu time    0.0194: real time    0.0194
    CHARGE:  cpu time    4.8674: real time    4.8678
    MIXING:  cpu time    0.0093: real time    0.0093
    --------------------------------------------
      LOOP:  cpu time  107.6597: real time  107.6776

 eigenvalue-minimisations  : 14859
 total energy-change (2. order) :-0.1320721E-01  (-0.9926402E-02)
 number of electron     864.0000753 magnetization 
 augmentation part      444.9080112 magnetization 

 Broyden mixing:
  rms(total) = 0.50867E-01    rms(broyden)= 0.50867E-01
  rms(prec ) = 0.64097E-01
  weight for this iteration     100.00

 eigenvalues of (default mixing * dielectric matrix)
  average eigenvalue GAMMA=   1.2640
  2.6369  1.9884  0.9842  0.9842  0.8796  0.1110

 Free energy of the ion-electron system (eV)
  ---------------------------------------------------
  alpha Z        PSCENC =      7300.31925852
  Ewald energy   TEWEN  =    -66232.83996889
  -Hartree energ DENC   =     -9337.41017777
  -exchange      EXHF   =         0.00000000
  -V(xc)+E(xc)   XCENC  =       360.03874469
  PAW double counting   =     58006.41317782   -58947.17373734
  entropy T*S    EENTRO =         0.03950599
  eigenvalues    EBANDS =      3769.39012220
  atomic energy  EATOM  =     64201.67088057
  Solvation  Ediel_sol  =         0.00000000
  ---------------------------------------------------
  free energy    TOTEN  =      -879.55219421 eV

  energy without entropy =     -879.59170021  energy(sigma->0) =     -879.56536288


--------------------------------------------------------------------------------------------------------




--------------------------------------- Iteration      1(  12)  ---------------------------------------


    POTLOK:  cpu time    0.3037: real time    0.3040
    SETDIJ:  cpu time    0.0552: real time    0.0552
    EDDIAG:  cpu time   13.0360: real time   13.0370
  RMM-DIIS:  cpu time   65.1513: real time   65.1921
    ORTHCH:  cpu time    2.3436: real time    2.3442
       DOS:  cpu time    0.0190: real time    0.0190
    CHARGE:  cpu time    4.4339: real time    4.4363
    MIXING:  cpu time    0.0088: real time    0.0088
    --------------------------------------------
      LOOP:  cpu time   85.3515: real time   85.3967

 eigenvalue-minimisations  : 11337
 total energy-change (2. order) : 0.4542878E-02  (-0.2161793E-02)
 number of electron     864.0000753 magnetization 
 augmentation part      444.6733035 magnetization 

 Broyden mixing:
  rms(total) = 0.97449E-02    rms(broyden)= 0.97399E-02
  rms(prec ) = 0.12598E-01
  weight for this iteration     100.00

 eigenvalues of (default mixing * dielectric matrix)
  average eigenvalue GAMMA=   1.3233
  2.5165  2.5165  1.2560  0.9904  0.9904  0.8826  0.1110

 Free energy of the ion-electron system (eV)
  ---------------------------------------------------
  alpha Z        PSCENC =      7300.31925852
  Ewald energy   TEWEN  =    -66232.83996889
  -Hartree energ DENC   =     -9348.45643353
  -exchange      EXHF   =         0.00000000
  -V(xc)+E(xc)   XCENC  =       360.52865509
  PAW double counting   =     58034.67355246   -58972.19522464
  entropy T*S    EENTRO =         0.04038070
  eigenvalues    EBANDS =      3776.71124837
  atomic energy  EATOM  =     64201.67088057
  Solvation  Ediel_sol  =         0.00000000
  ---------------------------------------------------
  free energy    TOTEN  =      -879.54765134 eV

  energy without entropy =     -879.58803203  energy(sigma->0) =     -879.56111157


--------------------------------------------------------------------------------------------------------




--------------------------------------- Iteration      1(  13)  ---------------------------------------


    POTLOK:  cpu time    0.2620: real time    0.2623
    SETDIJ:  cpu time    0.0533: real time    0.0533
    EDDIAG:  cpu time   10.7886: real time   10.7927
  RMM-DIIS:  cpu time   74.3386: real time   74.3442
    ORTHCH:  cpu time    2.4240: real time    2.4242
       DOS:  cpu time    0.0193: real time    0.0193
    CHARGE:  cpu time    4.3262: real time    4.3266
    MIXING:  cpu time    0.0088: real time    0.0088
    --------------------------------------------
      LOOP:  cpu time   92.2208: real time   92.2315

 eigenvalue-minimisations  : 14379
 total energy-change (2. order) :-0.5129717E-03  (-0.9875739E-03)
 number of electron     864.0000753 magnetization 
 augmentation part      444.5762134 magnetization 

 Broyden mixing:
  rms(total) = 0.65852E-02    rms(broyden)= 0.65839E-02
  rms(prec ) = 0.83262E-02
  weight for this iteration     100.00

 eigenvalues of (default mixing * dielectric matrix)
  average eigenvalue GAMMA=   1.3731
  2.5776  2.2291  2.2291  0.1110  1.0033  1.0033  0.9155  0.9155

 Free energy of the ion-electron system (eV)
  ---------------------------------------------------
  alpha Z        PSCENC =      7300.31925852
  Ewald energy   TEWEN  =    -66232.83996889
  -Hartree energ DENC   =     -9351.31529112
  -exchange      EXHF   =         0.00000000
  -V(xc)+E(xc)   XCENC  =       360.64905643
  PAW double counting   =     58026.07093138   -58962.08102189
  entropy T*S    EENTRO =         0.04104788
  eigenvalues    EBANDS =      3777.93694280
  atomic energy  EATOM  =     64201.67088057
  Solvation  Ediel_sol  =         0.00000000
  ---------------------------------------------------
  free energy    TOTEN  =      -879.54816431 eV

  energy without entropy =     -879.58921218  energy(sigma->0) =     -879.56184693


--------------------------------------------------------------------------------------------------------




--------------------------------------- Iteration      1(  14)  ---------------------------------------


    POTLOK:  cpu time    0.2387: real time    0.2391
    SETDIJ:  cpu time    0.0515: real time    0.0515
    EDDIAG:  cpu time   10.0438: real time   10.0446
  RMM-DIIS:  cpu time   55.4287: real time   55.4329
    ORTHCH:  cpu time    2.3669: real time    2.3671
       DOS:  cpu time    0.0195: real time    0.0195
    CHARGE:  cpu time    4.3140: real time    4.3145
    MIXING:  cpu time    0.0097: real time    0.0097
    --------------------------------------------
      LOOP:  cpu time   72.4730: real time   72.4789

 eigenvalue-minimisations  : 11579
 total energy-change (2. order) : 0.2829765E-04  (-0.3433877E-04)
 number of electron     864.0000753 magnetization 
 augmentation part      444.6183116 magnetization 

 Broyden mixing:
  rms(total) = 0.75629E-03    rms(broyden)= 0.75574E-03
  rms(prec ) = 0.89005E-03
  weight for this iteration     100.00

 eigenvalues of (default mixing * dielectric matrix)
  average eigenvalue GAMMA=   1.3567
  2.6379  2.4873  1.8793  0.1110  1.0414  1.0414  1.1175  0.9975  0.8970

 Free energy of the ion-electron system (eV)
  ---------------------------------------------------
  alpha Z        PSCENC =      7300.31925852
  Ewald energy   TEWEN  =    -66232.83996889
  -Hartree energ DENC   =     -9349.58334075
  -exchange      EXHF   =         0.00000000
  -V(xc)+E(xc)   XCENC  =       360.57399055
  PAW double counting   =     58022.74567751   -58959.05081953
  entropy T*S    EENTRO =         0.04161500
  eigenvalues    EBANDS =      3776.57457101
  atomic energy  EATOM  =     64201.67088057
  Solvation  Ediel_sol  =         0.00000000
  ---------------------------------------------------
  free energy    TOTEN  =      -879.54813601 eV

  energy without entropy =     -879.58975101  energy(sigma->0) =     -879.56200767


--------------------------------------------------------------------------------------------------------




--------------------------------------- Iteration      1(  15)  ---------------------------------------


    POTLOK:  cpu time    0.2471: real time    0.2484
    SETDIJ:  cpu time    0.0520: real time    0.0520
    EDDIAG:  cpu time   10.8282: real time   10.8291
  RMM-DIIS:  cpu time   71.6149: real time   71.6214
    ORTHCH:  cpu time    2.4055: real time    2.4057
       DOS:  cpu time    0.0196: real time    0.0196
    CHARGE:  cpu time    4.3658: real time    4.3661
    MIXING:  cpu time    0.0100: real time    0.0100
    --------------------------------------------
      LOOP:  cpu time   89.5431: real time   89.5523

 eigenvalue-minimisations  : 14618
 total energy-change (2. order) : 0.8212337E-05  (-0.1234339E-04)
 number of electron     864.0000753 magnetization 
 augmentation part      444.6158189 magnetization 

 Broyden mixing:
  rms(total) = 0.26587E-03    rms(broyden)= 0.26412E-03
  rms(prec ) = 0.32884E-03
  weight for this iteration     100.00

 eigenvalues of (default mixing * dielectric matrix)
  average eigenvalue GAMMA=   1.3742
  2.8981  2.4758  2.2588  0.1110  1.0234  1.0234  0.8793  0.8793  1.1289  1.0638

 Free energy of the ion-electron system (eV)
  ---------------------------------------------------
  alpha Z        PSCENC =      7300.31925852
  Ewald energy   TEWEN  =    -66232.83996889
  -Hartree energ DENC   =     -9349.86888621
  -exchange      EXHF   =         0.00000000
  -V(xc)+E(xc)   XCENC  =       360.58852250
  PAW double counting   =     58022.48723150   -58958.73879180
  entropy T*S    EENTRO =         0.04202176
  eigenvalues    EBANDS =      3776.79160426
  atomic energy  EATOM  =     64201.67088057
  Solvation  Ediel_sol  =         0.00000000
  ---------------------------------------------------
  free energy    TOTEN  =      -879.54812780 eV

  energy without entropy =     -879.59014955  energy(sigma->0) =     -879.56213505


--------------------------------------------------------------------------------------------------------




--------------------------------------- Iteration      1(  16)  ---------------------------------------


    POTLOK:  cpu time    0.2506: real time    0.2520
    SETDIJ:  cpu time    0.0514: real time    0.0514
    EDDIAG:  cpu time   10.9456: real time   10.9464
  RMM-DIIS:  cpu time   51.5906: real time   51.6060
    ORTHCH:  cpu time    2.4200: real time    2.4202
       DOS:  cpu time    0.0197: real time    0.0196
    CHARGE:  cpu time    4.4277: real time    4.4280
    MIXING:  cpu time    0.0098: real time    0.0098
    --------------------------------------------
      LOOP:  cpu time   69.7154: real time   69.7335

 eigenvalue-minimisations  : 10225
 total energy-change (2. order) : 0.2625767E-04  ( 0.2626538E-04)
 number of electron     864.0000753 magnetization 
 augmentation part      444.6182596 magnetization 

 Broyden mixing:
  rms(total) = 0.14415E-03    rms(broyden)= 0.14406E-03
  rms(prec ) = 0.18156E-03
  weight for this iteration     100.00

 eigenvalues of (default mixing * dielectric matrix)
  average eigenvalue GAMMA=   1.4189
  2.8325  2.4443  2.4443  0.1110  1.6510  1.2993  1.0241  1.0241  1.0219  0.8778
  0.8778

 Free energy of the ion-electron system (eV)
[...]
   0.105E-01 -.143E-04 -.103E-01   -.205E-01 0.277E-04 0.202E-01   -.168E-20 0.847E-21 -.131E-19   0.460E-07 -.161E-06 0.115E-06
   0.105E-01 0.103E-01 0.143E-04   -.205E-01 -.202E-01 -.277E-04   0.638E-21 -.723E-20 -.424E-20   0.460E-07 -.115E-06 0.161E-06
   -.105E-01 -.143E-04 0.143E-04   0.205E-01 0.277E-04 -.277E-04   0.000E+00 -.466E-20 -.635E-20   -.457E-07 -.161E-06 0.161E-06
   -.105E-01 0.104E-01 -.104E-01   0.205E-01 -.202E-01 0.202E-01   0.000E+00 0.181E-19 -.203E-19   -.457E-07 -.116E-06 0.115E-06
   -.143E-04 -.103E-01 -.103E-01   0.277E-04 0.202E-01 0.202E-01   -.127E-20 -.339E-20 -.508E-20   -.161E-06 0.115E-06 0.115E-06
   -.143E-04 0.143E-04 0.143E-04   0.277E-04 -.277E-04 -.277E-04   0.000E+00 0.123E-19 0.720E-20   -.161E-06 0.161E-06 0.161E-06
   0.103E-01 -.103E-01 0.143E-04   -.202E-01 0.202E-01 -.277E-04   0.121E-21 -.212E-20 0.847E-20   -.115E-06 0.115E-06 0.161E-06
   0.103E-01 0.143E-04 -.103E-01   -.202E-01 -.277E-04 0.202E-01   0.993E-21 -.123E-19 0.508E-20   -.115E-06 0.161E-06 0.115E-06
   -.104E-01 -.104E-01 -.104E-01   0.202E-01 0.202E-01 0.202E-01   0.000E+00 -.508E-20 0.508E-20   0.115E-06 0.115E-06 0.115E-06
   -.104E-01 0.143E-04 0.143E-04   0.203E-01 -.277E-04 -.277E-04   0.000E+00 0.720E-20 0.102E-19   0.115E-06 0.161E-06 0.161E-06
   0.143E-04 -.104E-01 0.143E-04   -.277E-04 0.203E-01 -.277E-04   0.847E-21 0.169E-19 -.466E-20   0.161E-06 0.115E-06 0.161E-06
   0.143E-04 0.143E-04 -.104E-01   -.277E-04 -.277E-04 0.203E-01   -.847E-21 0.847E-20 0.296E-20   0.161E-06 0.161E-06 0.115E-06
   0.105E-01 -.104E-01 -.104E-01   -.205E-01 0.202E-01 0.202E-01   -.103E-20 0.847E-21 0.593E-20   0.459E-07 0.115E-06 0.115E-06
   0.105E-01 0.143E-04 0.143E-04   -.205E-01 -.277E-04 -.277E-04   0.251E-20 0.000E+00 0.720E-20   0.458E-07 0.161E-06 0.161E-06
   -.105E-01 -.103E-01 0.143E-04   0.205E-01 0.202E-01 -.277E-04   0.000E+00 -.212E-20 0.889E-20   -.458E-07 0.115E-06 0.161E-06
   -.105E-01 0.143E-04 -.103E-01   0.205E-01 -.277E-04 0.202E-01   0.000E+00 -.551E-20 -.123E-19   -.458E-07 0.161E-06 0.115E-06
   -.143E-04 0.105E-01 -.103E-01   0.277E-04 -.205E-01 0.202E-01   -.847E-21 0.478E-20 -.165E-19   -.161E-06 0.460E-07 0.115E-06
   -.143E-04 -.105E-01 0.143E-04   0.277E-04 0.205E-01 -.277E-04   -.424E-21 -.131E-19 -.169E-19   -.161E-06 -.457E-07 0.161E-06
   0.103E-01 0.105E-01 0.143E-04   -.202E-01 -.205E-01 -.277E-04   -.164E-20 -.121E-21 0.199E-19   -.115E-06 0.460E-07 0.161E-06
   0.104E-01 -.105E-01 -.104E-01   -.202E-01 0.205E-01 0.202E-01   -.794E-22 -.127E-20 0.127E-20   -.116E-06 -.457E-07 0.115E-06
   -.104E-01 0.105E-01 -.104E-01   0.202E-01 -.205E-01 0.202E-01   0.000E+00 0.132E-19 -.220E-19   0.115E-06 0.459E-07 0.115E-06
   -.103E-01 -.105E-01 0.143E-04   0.202E-01 0.205E-01 -.277E-04   0.000E+00 -.339E-20 0.144E-19   0.115E-06 -.458E-07 0.161E-06
   0.143E-04 0.105E-01 0.143E-04   -.277E-04 -.205E-01 -.277E-04   0.000E+00 -.319E-19 -.974E-20   0.161E-06 0.458E-07 0.161E-06
   0.143E-04 -.105E-01 -.103E-01   -.277E-04 0.205E-01 0.202E-01   0.424E-21 0.847E-21 0.136E-19   0.161E-06 -.458E-07 0.115E-06
   0.105E-01 0.105E-01 -.104E-01   -.205E-01 -.205E-01 0.202E-01   0.569E-21 0.647E-20 -.385E-19   0.459E-07 0.459E-07 0.115E-06
   0.105E-01 -.105E-01 0.143E-04   -.205E-01 0.205E-01 -.277E-04   0.570E-21 0.720E-20 0.237E-19   0.460E-07 -.458E-07 0.161E-06
   -.105E-01 0.105E-01 0.143E-04   0.205E-01 -.205E-01 -.277E-04   0.000E+00 0.157E-20 0.102E-19   -.458E-07 0.460E-07 0.161E-06
   -.105E-01 -.105E-01 -.104E-01   0.205E-01 0.205E-01 0.202E-01   0.000E+00 0.889E-20 -.720E-20   -.457E-07 -.457E-07 0.115E-06
   -.143E-04 -.143E-04 0.105E-01   0.277E-04 0.277E-04 -.205E-01   -.127E-20 0.720E-20 -.105E-19   -.161E-06 -.161E-06 0.459E-07
   -.143E-04 0.103E-01 -.105E-01   0.277E-04 -.202E-01 0.205E-01   -.847E-21 0.840E-20 -.102E-19   -.161E-06 -.115E-06 -.458E-07
   0.103E-01 -.143E-04 -.105E-01   -.202E-01 0.277E-04 0.205E-01   0.103E-20 0.381E-20 -.889E-20   -.115E-06 -.161E-06 -.458E-07
   0.104E-01 0.104E-01 0.105E-01   -.202E-01 -.202E-01 -.205E-01   -.936E-21 -.337E-20 0.231E-19   -.116E-06 -.116E-06 0.459E-07
   -.103E-01 -.143E-04 0.105E-01   0.202E-01 0.277E-04 -.205E-01   0.000E+00 0.127E-19 0.139E-20   0.115E-06 -.161E-06 0.460E-07
   -.104E-01 0.104E-01 -.105E-01   0.202E-01 -.202E-01 0.205E-01   0.000E+00 -.124E-19 0.102E-19   0.115E-06 -.116E-06 -.457E-07
   0.143E-04 -.143E-04 -.105E-01   -.277E-04 0.277E-04 0.205E-01   0.424E-21 -.224E-19 0.148E-19   0.161E-06 -.161E-06 -.457E-07
   0.143E-04 0.103E-01 0.105E-01   -.277E-04 -.202E-01 -.205E-01   0.127E-20 0.157E-19 0.294E-19   0.161E-06 -.115E-06 0.460E-07
   0.105E-01 -.143E-04 0.105E-01   -.205E-01 0.277E-04 -.205E-01   0.904E-21 0.296E-20 0.817E-20   0.460E-07 -.161E-06 0.460E-07
   0.105E-01 0.104E-01 -.105E-01   -.205E-01 -.202E-01 0.205E-01   0.496E-21 -.157E-19 0.254E-20   0.459E-07 -.116E-06 -.457E-07
   -.105E-01 -.143E-04 -.105E-01   0.205E-01 0.277E-04 0.205E-01   0.000E+00 -.169E-20 0.254E-19   -.458E-07 -.161E-06 -.458E-07
   -.105E-01 0.104E-01 0.105E-01   0.205E-01 -.202E-01 -.205E-01   0.000E+00 -.126E-20 0.400E-19   -.457E-07 -.116E-06 0.459E-07
   -.143E-04 -.103E-01 0.105E-01   0.277E-04 0.202E-01 -.205E-01   -.212E-20 -.203E-19 -.156E-20   -.161E-06 0.115E-06 0.460E-07
   -.143E-04 0.143E-04 -.105E-01   0.277E-04 -.277E-04 0.205E-01   0.127E-20 0.932E-20 -.110E-19   -.161E-06 0.161E-06 -.457E-07
   0.104E-01 -.104E-01 -.105E-01   -.202E-01 0.202E-01 0.205E-01   -.122E-20 -.102E-19 -.381E-20   -.116E-06 0.115E-06 -.457E-07
   0.103E-01 0.143E-04 0.105E-01   -.202E-01 -.277E-04 -.205E-01   0.526E-21 -.254E-20 0.528E-20   -.115E-06 0.161E-06 0.460E-07
   -.104E-01 -.104E-01 0.105E-01   0.202E-01 0.202E-01 -.205E-01   0.000E+00 -.932E-20 -.130E-19   0.115E-06 0.115E-06 0.459E-07
   -.103E-01 0.143E-04 -.105E-01   0.202E-01 -.277E-04 0.205E-01   0.000E+00 -.466E-20 -.381E-20   0.115E-06 0.161E-06 -.458E-07
   0.143E-04 -.103E-01 -.105E-01   -.277E-04 0.202E-01 0.205E-01   0.424E-21 0.123E-19 0.720E-20   0.161E-06 0.115E-06 -.458E-07
   0.143E-04 0.143E-04 0.105E-01   -.277E-04 -.277E-04 -.205E-01   -.424E-21 -.123E-19 -.256E-19   0.161E-06 0.161E-06 0.458E-07
   0.105E-01 -.104E-01 0.105E-01   -.205E-01 0.202E-01 -.205E-01   -.156E-21 -.119E-19 -.151E-19   0.459E-07 0.115E-06 0.459E-07
   0.105E-01 0.143E-04 -.105E-01   -.205E-01 -.277E-04 0.205E-01   -.314E-21 0.424E-21 -.140E-19   0.460E-07 0.161E-06 -.458E-07
   -.105E-01 -.104E-01 -.105E-01   0.205E-01 0.202E-01 0.205E-01   0.000E+00 0.127E-20 -.678E-20   -.457E-07 0.115E-06 -.457E-07
   -.105E-01 0.143E-04 0.105E-01   0.205E-01 -.277E-04 -.205E-01   0.000E+00 -.424E-21 -.167E-19   -.458E-07 0.161E-06 0.460E-07
   -.143E-04 0.105E-01 0.105E-01   0.277E-04 -.205E-01 -.205E-01   -.847E-21 0.319E-20 -.242E-20   -.161E-06 0.460E-07 0.460E-07
   -.143E-04 -.105E-01 -.105E-01   0.277E-04 0.205E-01 0.205E-01   0.847E-21 -.161E-19 -.932E-20   -.161E-06 -.458E-07 -.458E-07
   0.104E-01 0.105E-01 -.105E-01   -.202E-01 -.205E-01 0.205E-01   0.313E-21 0.168E-19 -.720E-20   -.116E-06 0.459E-07 -.457E-07
   0.104E-01 -.105E-01 0.105E-01   -.202E-01 0.205E-01 -.205E-01   0.112E-20 -.678E-20 -.269E-19   -.116E-06 -.457E-07 0.459E-07
   -.104E-01 0.105E-01 0.105E-01   0.202E-01 -.205E-01 -.205E-01   0.000E+00 0.104E-19 0.467E-19   0.115E-06 0.459E-07 0.459E-07
   -.104E-01 -.105E-01 -.105E-01   0.202E-01 0.205E-01 0.205E-01   0.000E+00 0.805E-20 0.847E-21   0.115E-06 -.457E-07 -.457E-07
   0.143E-04 0.105E-01 -.105E-01   -.277E-04 -.205E-01 0.205E-01   0.424E-21 -.163E-19 -.169E-20   0.161E-06 0.460E-07 -.458E-07
   0.143E-04 -.105E-01 0.105E-01   -.277E-04 0.205E-01 -.205E-01   0.127E-20 -.123E-19 -.269E-19   0.161E-06 -.458E-07 0.460E-07
   0.105E-01 0.105E-01 0.105E-01   -.205E-01 -.205E-01 -.205E-01   0.450E-21 -.105E-20 0.268E-19   0.459E-07 0.459E-07 0.459E-07
   0.105E-01 -.105E-01 -.105E-01   -.205E-01 0.205E-01 0.205E-01   0.847E-21 0.131E-19 -.254E-20   0.459E-07 -.457E-07 -.457E-07
   -.105E-01 0.105E-01 -.105E-01   0.205E-01 -.205E-01 0.205E-01   0.000E+00 -.230E-20 -.208E-19   -.457E-07 0.459E-07 -.457E-07
   -.105E-01 -.105E-01 0.105E-01   0.205E-01 0.205E-01 -.205E-01   0.000E+00 -.805E-20 0.235E-19   -.457E-07 -.457E-07 0.459E-07
 -----------------------------------------------------------------------------------------------
   0.238E-10 0.588E-10 -.284E-10   0.199E-12 0.130E-14 -.809E-13   0.566E-20 0.442E-19 0.763E-19   0.216E-11 0.258E-10 0.270E-10
 
 
 POSITION                                       TOTAL-FORCE (eV/Angst)
 -----------------------------------------------------------------------------------
      0.00000      0.00000      0.00000         0.000000     -0.000000     -0.000000
      0.00000      1.72250      1.72250        -0.000000     -0.000000     -0.000000
      1.72250      0.00000      1.72250        -0.000000      0.000000     -0.000000
      1.72250      1.72250      0.00000         0.000000      0.000000     -0.000000
      3.44493      0.00000      0.00000        -0.000000     -0.000000      0.000000
      3.44493      1.72250      1.72250        -0.000000     -0.000000     -0.000000
      5.16742      0.00000      1.72250         0.000000     -0.000000      0.000000
      5.16742      1.72250      0.00000         0.000000     -0.000000      0.000000
      6.88992      0.00000      0.00000        -0.000000     -0.000000      0.000000
      6.88992      1.72250      1.72250         0.000000      0.000000     -0.000000
      8.61235      0.00000      1.72250         0.000000     -0.000000      0.000000
      8.61235      1.72250      0.00000        -0.000000      0.000000     -0.000000
      0.00000      3.44493      0.00000         0.000000     -0.000000     -0.000000
      0.00000      5.16742      1.72250        -0.000000      0.000000      0.000000
      1.72250      3.44493      1.72250         0.000000     -0.000000     -0.000000
      1.72250      5.16742      0.00000         0.000000      0.000000     -0.000000
      3.44493      3.44493      0.00000         0.000000     -0.000000      0.000000
      3.44493      5.16742      1.72250         0.000000     -0.000000      0.000000
      5.16742      3.44493      1.72250         0.000000      0.000000      0.000000
      5.16742      5.16742      0.00000         0.000000      0.000000      0.000000
      6.88992      3.44493      0.00000        -0.000000      0.000000     -0.000000
      6.88992      5.16742      1.72250         0.000000      0.000000      0.000000
      8.61235      3.44493      1.72250        -0.000000      0.000000      0.000000
      8.61235      5.16742      0.00000         0.000000      0.000000     -0.000000
      0.00000      6.88992      0.00000        -0.000000     -0.000000     -0.000000
      0.00000      8.61235      1.72250         0.000000      0.000000      0.000000
      1.72250      6.88992      1.72250         0.000000      0.000000     -0.000000
      1.72250      8.61235      0.00000        -0.000000      0.000000     -0.000000
      3.44493      6.88992      0.00000        -0.000000      0.000000     -0.000000
      3.44493      8.61235      1.72250        -0.000000      0.000000     -0.000000
      5.16742      6.88992      1.72250         0.000000     -0.000000      0.000000
      5.16742      8.61235      0.00000        -0.000000     -0.000000      0.000000
      6.88992      6.88992      0.00000        -0.000000      0.000000     -0.000000
      6.88992      8.61235      1.72250        -0.000000      0.000000     -0.000000
      8.61235      6.88992      1.72250        -0.000000     -0.000000      0.000000
      8.61235      8.61235      0.00000         0.000000      0.000000      0.000000
      0.00000      0.00000      3.44493        -0.000000      0.000000      0.000000
      0.00000      1.72250      5.16742         0.000000     -0.000000     -0.000000
      1.72250      0.00000      5.16742        -0.000000      0.000000     -0.000000
      1.72250      1.72250      3.44493        -0.000000      0.000000      0.000000
      3.44493      0.00000      3.44493         0.000000     -0.000000     -0.000000
      3.44493      1.72250      5.16742         0.000000     -0.000000      0.000000
      5.16742      0.00000      5.16742         0.000000     -0.000000      0.000000
      5.16742      1.72250      3.44493         0.000000      0.000000     -0.000000
      6.88992      0.00000      3.44493        -0.000000      0.000000     -0.000000
      6.88992      1.72250      5.16742         0.000000     -0.000000     -0.000000
      8.61235      0.00000      5.16742        -0.000000     -0.000000      0.000000
      8.61235      1.72250      3.44493        -0.000000      0.000000     -0.000000
      0.00000      3.44493      3.44493         0.000000      0.000000     -0.000000
      0.00000      5.16742      5.16742        -0.000000     -0.000000      0.000000
      1.72250      3.44493      5.16742         0.000000      0.000000     -0.000000
      1.72250      5.16742      3.44493         0.000000      0.000000      0.000000
      3.44493      3.44493      3.44493         0.000000     -0.000000     -0.000000
      3.44493      5.16742      5.16742         0.000000     -0.000000      0.000000
      5.16742      3.44493      5.16742        -0.000000      0.000000     -0.000000
      5.16742      5.16742      3.44493        -0.000000     -0.000000     -0.000000
      6.88992      3.44493      3.44493        -0.000000     -0.000000      0.000000
      6.88992      5.16742      5.16742        -0.000000      0.000000      0.000000
      8.61235      3.44493      5.16742         0.000000     -0.000000     -0.000000
      8.61235      5.16742      3.44493        -0.000000     -0.000000      0.000000
      0.00000      6.88992      3.44493         0.000000     -0.000000      0.000000
      0.00000      8.61235      5.16742         0.000000      0.000000      0.000000
      1.72250      6.88992      5.16742        -0.000000      0.000000     -0.000000
      1.72250      8.61235      3.44493        -0.000000     -0.000000      0.000000
      3.44493      6.88992      3.44493        -0.000000     -0.000000      0.000000
      3.44493      8.61235      5.16742         0.000000      0.000000     -0.000000
      5.16742      6.88992      5.16742        -0.000000     -0.000000      0.000000
      5.16742      8.61235      3.44493        -0.000000     -0.000000     -0.000000
      6.88992      6.88992      3.44493         0.000000     -0.000000     -0.000000
      6.88992      8.61235      5.16742         0.000000      0.000000      0.000000
      8.61235      6.88992      5.16742        -0.000000     -0.000000     -0.000000
      8.61235      8.61235      3.44493         0.000000      0.000000      0.000000
      0.00000      0.00000      6.88992         0.000000      0.000000      0.000000
      0.00000      1.72250      8.61235         0.000000     -0.000000      0.000000
      1.72250      0.00000      8.61235        -0.000000      0.000000      0.000000
      1.72250      1.72250      6.88992         0.000000      0.000000      0.000000
      3.44493      0.00000      6.88992         0.000000     -0.000000     -0.000000
      3.44493      1.72250      8.61235        -0.000000     -0.000000      0.000000
      5.16742      0.00000      8.61235         0.000000     -0.000000     -0.000000
      5.16742      1.72250      6.88992         0.000000     -0.000000      0.000000
      6.88992      0.00000      6.88992         0.000000     -0.000000      0.000000
      6.88992      1.72250      8.61235        -0.000000      0.000000      0.000000
      8.61235      0.00000      8.61235         0.000000     -0.000000     -0.000000
      8.61235      1.72250      6.88992        -0.000000     -0.000000     -0.000000
      0.00000      3.44493      6.88992         0.000000     -0.000000     -0.000000
      0.00000      5.16742      8.61235         0.000000     -0.000000     -0.000000
      1.72250      3.44493      8.61235        -0.000000     -0.000000      0.000000
      1.72250      5.16742      6.88992        -0.000000      0.000000      0.000000
      3.44493      3.44493      6.88992        -0.000000     -0.000000      0.000000
      3.44493      5.16742      8.61235         0.000000      0.000000     -0.000000
      5.16742      3.44493      8.61235        -0.000000      0.000000      0.000000
      5.16742      5.16742      6.88992         0.000000     -0.000000      0.000000
      6.88992      3.44493      6.88992         0.000000     -0.000000      0.000000
      6.88992      5.16742      8.61235        -0.000000     -0.000000     -0.000000
      8.61235      3.44493      8.61235         0.000000      0.000000     -0.000000
      8.61235      5.16742      6.88992        -0.000000      0.000000      0.000000
      0.00000      6.88992      6.88992         0.000000      0.000000     -0.000000
      0.00000      8.61235      8.61235         0.000000      0.000000     -0.000000
      1.72250      6.88992      8.61235         0.000000      0.000000      0.000000
      1.72250      8.61235      6.88992         0.000000      0.000000     -0.000000
      3.44493      6.88992      6.88992         0.000000      0.000000     -0.000000
      3.44493      8.61235      8.61235         0.000000     -0.000000      0.000000
      5.16742      6.88992      8.61235         0.000000     -0.000000      0.000000
      5.16742      8.61235      6.88992        -0.000000     -0.000000      0.000000
      6.88992      6.88992      6.88992        -0.000000     -0.000000     -0.000000
      6.88992      8.61235      8.61235         0.000000     -0.000000     -0.000000
      8.61235      6.88992      8.61235        -0.000000     -0.000000     -0.000000
      8.61235      8.61235      6.88992         0.000000      0.000000      0.000000
 -----------------------------------------------------------------------------------
    total drift:                                0.000000      0.000000     -0.000000


--------------------------------------------------------------------------------------------------------



  FREE ENERGIE OF THE ION-ELECTRON SYSTEM (eV)
  ---------------------------------------------------
  free  energy   TOTEN  =      -879.54789942 eV

  energy  without entropy=     -879.59272896  energy(sigma->0) =     -879.56284260
 


--------------------------------------------------------------------------------------------------------


    POTLOK:  cpu time    0.2750: real time    0.2750


--------------------------------------------------------------------------------------------------------




--------------------------------------------------------------------------------------------------------


  
 reached required accuracy - stopping structural energy minimisation
     LOOP+:  cpu time 3186.7981: real time 3187.7543
    4ORBIT:  cpu time    0.0000: real time    0.0000

 total amount of memory used by VASP MPI-rank0   327338. kBytes
=======================================================================

   base      :      30000. kBytes
   nonlr-proj:      31400. kBytes
   fftplans  :      15433. kBytes
   grid      :      21835. kBytes
   one-center:        419. kBytes
   wavefun   :     228251. kBytes
 
  
  
 General timing and accounting informations for this job:
 ========================================================
  
                  Total CPU time used (sec):     3206.873
                            User time (sec):     3203.056
                          System time (sec):        3.817
                         Elapsed time (sec):     3207.836
  
                   Maximum memory used (kb):      399452.
                   Average memory used (kb):           0.
  
                          Minor page faults:       599365
                          Major page faults:            1
                 Voluntary context switches:          735
