<?xml version="1.0" encoding="ISO-8859-1"?>
<modeling>
 <generator>
  <i name="program" type="string">vasp </i>
  <i name="version" type="string">5.4.4.18Apr17-6-g9f103f2a35  </i>
  <i name="subversion" type="string">(build Aug 17 2017 06:00:38) complex            parallel </i>
  <i name="platform" type="string">LinuxIFC </i>
  <i name="date" type="string">2019 07 13 </i>
  <i name="time" type="string">00:34:48 </i>
 </generator>
 <incar>
  <i type="string" name="SYSTEM">Opt</i>
  <i type="int" name="ISTART">     0</i>
  <i type="string" name="PREC">normal</i>
  <i type="string" name="ALGO"> Fast</i>
  <i type="int" name="ISPIN">     1</i>
  <i type="int" name="ICHARG">     2</i>
  <i type="int" name="NELM">   400</i>
  <i type="int" name="IBRION">     2</i>
  <i name="EDIFF">      0.00000100</i>
  <i name="EDIFFG">     -0.01000000</i>
  <i type="int" name="NSW">   100</i>
  <i type="int" name="ISIF">     3</i>
  <i name="ENCUT">    400.00000000</i>
  <i type="int" name="NGX">    72</i>
  <i type="int" name="NGY">    72</i>
  <i type="int" name="NGZ">    72</i>
  <i name="POTIM">      0.50000000</i>
  <i type="string" name="LREAL">Auto</i>
  <i type="logical" name="LWAVE"> F  </i>
  <i type="logical" name="LCHARG"> F  </i>
  <v type="int" name="KPOINT_BSE">    -1     0     0     0</v>
  <i type="int" name="NELM">   400</i>
 </incar>
 <structure name="primitive_cell" >
  <crystal>
   <varray name="basis" >
    <v>       3.44492529       0.00000000       0.00000000 </v>
    <v>       0.00000000       3.44492529       0.00000000 </v>
    <v>       0.00000000       0.00000000       3.44492524 </v>
   </varray>
   <i name="volume">     40.88268566 </i>
   <varray name="rec_basis" >
    <v>       0.29028206       0.00000000       0.00000000 </v>
    <v>       0.00000000       0.29028206       0.00000000 </v>
    <v>       0.00000000       0.00000000       0.29028206 </v>
   </varray>
  </crystal>
  <varray name="positions" >
   <v>       0.00000000       0.00000000       0.00000000 </v>
   <v>       0.00000000      -0.49998976      -0.49998975 </v>
   <v>      -0.49998976       0.00000000      -0.49998975 </v>
   <v>      -0.49998976      -0.49998976       0.00000000 </v>
  </varray>
 </structure>
 <varray name="primitive_index" >
  <v type="int" >        1 </v>
  <v type="int" >        2 </v>
  <v type="int" >        3 </v>
  <v type="int" >        4 </v>
 </varray>
 <kpoints>
  <generation param="Monkhorst-Pack">
   <v type="int" name="divisions">       5        5        5 </v>
   <v name="usershift">      0.00000000       0.00000000       0.00000000 </v>
   <v name="genvec1">      0.20000000       0.00000000       0.00000000 </v>
   <v name="genvec2">      0.00000000       0.20000000       0.00000000 </v>
   <v name="genvec3">      0.00000000       0.00000000       0.20000000 </v>
   <v name="shift">      0.00000000       0.00000000       0.00000000 </v>
  </generation>
  <varray name="kpointlist" >
   <v>       0.00000000       0.00000000       0.00000000 </v>
   <v>       0.20000000       0.00000000       0.00000000 </v>
   <v>       0.40000000       0.00000000       0.00000000 </v>
   <v>       0.20000000       0.20000000       0.00000000 </v>
   <v>       0.40000000       0.20000000       0.00000000 </v>
   <v>       0.40000000       0.40000000       0.00000000 </v>
   <v>       0.20000000       0.20000000       0.20000000 </v>
   <v>       0.40000000       0.20000000       0.20000000 </v>
   <v>       0.40000000       0.40000000       0.20000000 </v>
   <v>       0.40000000       0.40000000       0.40000000 </v>
  </varray>
  <varray name="weights" >
   <v>       0.00800000 </v>
   <v>       0.04800000 </v>
   <v>       0.04800000 </v>
   <v>       0.09600000 </v>
   <v>       0.19200000 </v>
   <v>       0.09600000 </v>
   <v>       0.06400000 </v>
   <v>       0.19200000 </v>
   <v>       0.19200000 </v>
   <v>       0.06400000 </v>
  </varray>
 </kpoints>
 <parameters>
  <separator name="general" >
   <i type="string" name="SYSTEM">Opt</i>
   <i type="logical" name="LCOMPAT"> F  </i>
  </separator>
  <separator name="electronic" >
   <i type="string" name="PREC">normal</i>
   <i name="ENMAX">    400.00000000</i>
   <i name="ENAUG">    511.36800000</i>
   <i name="EDIFF">      0.00000100</i>
   <i type="int" name="IALGO">    68</i>
   <i type="int" name="IWAVPR">    11</i>
   <i type="int" name="NBANDS">   518</i>
   <i name="NELECT">    864.00000000</i>
   <i type="int" name="TURBO">     0</i>
   <i type="int" name="IRESTART">     0</i>
   <i type="int" name="NREBOOT">     0</i>
   <i type="int" name="NMIN">     0</i>
   <i name="EREF">      0.00000000</i>
   <separator name="electronic smearing" >
    <i type="int" name="ISMEAR">     1</i>
    <i name="SIGMA">      0.20000000</i>
    <i name="KSPACING">      0.50000000</i>
    <i type="logical" name="KGAMMA"> T  </i>
   </separator>
   <separator name="electronic projectors" >
    <i type="logical" name="LREAL"> T  </i>
    <v name="ROPT">     -0.00050000</v>
    <i type="int" name="LMAXPAW">  -100</i>
    <i type="int" name="LMAXMIX">     2</i>
    <i type="logical" name="NLSPLINE"> F  </i>
   </separator>
   <separator name="electronic startup" >
    <i type="int" name="ISTART">     0</i>
    <i type="int" name="ICHARG">     2</i>
    <i type="int" name="INIWAV">     1</i>
   </separator>
   <separator name="electronic spin" >
    <i type="int" name="ISPIN">     1</i>
    <i type="logical" name="LNONCOLLINEAR"> F  </i>
    <v name="MAGMOM">      1.00000000      1.00000000      1.00000000      1.00000000      1.00000000      1.00000000      1.00000000      1.00000000      1.00000000      1.00000000      1.00000000      1.00000000      1.00000000      1.00000000      1.00000000      1.00000000      1.00000000      1.00000000      1.00000000      1.00000000
      1.00000000      1.00000000      1.00000000      1.00000000      1.00000000      1.00000000      1.00000000      1.00000000      1.00000000      1.00000000      1.00000000      1.00000000      1.00000000      1.00000000      1.00000000      1.00000000      1.00000000      1.00000000      1.00000000      1.00000000
      1.00000000      1.00000000      1.00000000      1.00000000      1.00000000      1.00000000      1.00000000      1.00000000      1.00000000      1.00000000      1.00000000      1.00000000      1.00000000      1.00000000      1.00000000      1.00000000      1.00000000      1.00000000      1.00000000      1.00000000
      1.00000000      1.00000000      1.00000000      1.00000000      1.00000000      1.00000000      1.00000000      1.00000000      1.00000000      1.00000000      1.00000000      1.00000000      1.00000000      1.00000000      1.00000000      1.00000000      1.00000000      1.00000000      1.00000000      1.00000000
      1.00000000      1.00000000      1.00000000      1.00000000      1.00000000      1.00000000      1.00000000      1.00000000      1.00000000      1.00000000      1.00000000      1.00000000      1.00000000      1.00000000      1.00000000      1.00000000      1.00000000      1.00000000      1.00000000      1.00000000
      1.00000000      1.00000000      1.00000000      1.00000000      1.00000000      1.00000000      1.00000000      1.00000000</v>
    <i name="NUPDOWN">     -1.00000000</i>
    <i type="logical" name="LSORBIT"> F  </i>
    <v name="SAXIS">      0.00000000      0.00000000      1.00000000</v>
    <i type="logical" name="LSPIRAL"> F  </i>
    <v name="QSPIRAL">      0.00000000      0.00000000      0.00000000</v>
    <i type="logical" name="LZEROZ"> F  </i>
   </separator>
   <separator name="electronic exchange-correlation" >
    <i type="logical" name="LASPH"> F  </i>
    <i type="logical" name="LMETAGGA"> F  </i>
   </separator>
   <separator name="electronic convergence" >
    <i type="int" name="NELM">   400</i>
    <i type="int" name="NELMDL">    -5</i>
    <i type="int" name="NELMIN">     2</i>
    <i name="ENINI">    400.00000000</i>
    <separator name="electronic convergence detail" >
     <i type="logical" name="LDIAG"> T  </i>
     <i type="logical" name="LSUBROT"> F  </i>
     <i name="WEIMIN">      0.00100000</i>
     <i name="EBREAK">      0.00000000</i>
     <i name="DEPER">      0.30000000</i>
     <i type="int" name="NRMM">     4</i>
     <i name="TIME">      0.40000000</i>
    </separator>
   </separator>
   <separator name="electronic mixer" >
    <i name="AMIX">      0.40000000</i>
    <i name="BMIX">      1.00000000</i>
    <i name="AMIN">      0.10000000</i>
    <i name="AMIX_MAG">      1.60000000</i>
    <i name="BMIX_MAG">      1.00000000</i>
    <separator name="electronic mixer details" >
     <i type="int" name="IMIX">     4</i>
     <i type="logical" name="MIXFIRST"> F  </i>
     <i type="int" name="MAXMIX">   -45</i>
     <i name="WC">    100.00000000</i>
     <i type="int" name="INIMIX">     1</i>
     <i type="int" name="MIXPRE">     1</i>
     <i type="int" name="MREMOVE">     5</i>
    </separator>
   </separator>
   <separator name="electronic dipolcorrection" >
    <i type="logical" name="LDIPOL"> F  </i>
    <i type="logical" name="LMONO"> F  </i>
    <i type="int" name="IDIPOL">     0</i>
    <i name="EPSILON">      1.00000000</i>
    <v name="DIPOL">   -100.00000000   -100.00000000   -100.00000000</v>
    <i name="EFIELD">      0.00000000</i>
   </separator>
  </separator>
  <separator name="grids" >
   <i type="int" name="NGX">    72</i>
   <i type="int" name="NGY">    72</i>
   <i type="int" name="NGZ">    72</i>
   <i type="int" name="NGXF">   144</i>
   <i type="int" name="NGYF">   144</i>
   <i type="int" name="NGZF">   144</i>
   <i type="logical" name="ADDGRID"> F  </i>
  </separator>
  <separator name="ionic" >
   <i type="int" name="NSW">   100</i>
   <i type="int" name="IBRION">     2</i>
   <i type="int" name="MDALGO">     0</i>
   <i type="int" name="ISIF">     3</i>
   <i name="PSTRESS">      0.00000000</i>
   <i name="EDIFFG">     -0.01000000</i>
   <i type="int" name="NFREE">     1</i>
   <i name="POTIM">      0.50000000</i>
   <i name="SMASS">     -3.00000000</i>
   <i name="SCALEE">      1.00000000</i>
  </separator>
  <separator name="ionic md" >
   <i name="TEBEG">      0.00010000</i>
   <i name="TEEND">      0.00010000</i>
   <i type="int" name="NBLOCK">     1</i>
   <i type="int" name="KBLOCK">   100</i>
   <i type="int" name="NPACO">   256</i>
   <i name="APACO">     16.00000000</i>
  </separator>
  <separator name="symmetry" >
   <i type="int" name="ISYM">     2</i>
   <i name="SYMPREC">      0.00001000</i>
  </separator>
  <separator name="dos" >
   <i type="int" name="LORBIT">     0</i>
   <v name="RWIGS">     -1.00000000</v>
   <i type="int" name="NEDOS">   301</i>
   <i name="EMIN">     10.00000000</i>
   <i name="EMAX">    -10.00000000</i>
   <i name="EFERMI">      0.00000000</i>
  </separator>
  <separator name="writing" >
   <i type="int" name="NWRITE">     2</i>
   <i type="logical" name="LWAVE"> F  </i>
   <i type="logical" name="LDOWNSAMPLE"> F  </i>
   <i type="logical" name="LCHARG"> F  </i>
   <i type="logical" name="LPARD"> F  </i>
   <i type="logical" name="LVTOT"> F  </i>
   <i type="logical" name="LVHAR"> F  </i>
   <i type="logical" name="LELF"> F  </i>
   <i type="logical" name="LOPTICS"> F  </i>
   <v name="STM">      0.00000000      0.00000000      0.00000000      0.00000000      0.00000000      0.00000000      0.00000000</v>
  </separator>
  <separator name="performance" >
   <i type="int" name="NPAR">     2</i>
   <i type="int" name="NSIM">     4</i>
   <i type="int" name="NBLK">    -1</i>
   <i type="logical" name="LPLANE"> T  </i>
   <i type="logical" name="LSCALAPACK"> T  </i>
   <i type="logical" name="LSCAAWARE"> F  </i>
   <i type="logical" name="LSCALU"> F  </i>
   <i type="logical" name="LASYNC"> F  </i>
   <i type="logical" name="LORBITALREAL"> F  </i>
  </separator>
  <separator name="miscellaneous" >
   <i type="int" name="IDIOT">     3</i>
   <i type="int" name="ISPECIAL">     0</i>
   <i type="logical" name="LMUSIC"> F  </i>
   <v name="POMASS">     55.84700000</v>
   <v name="DARWINR">      0.00000000</v>
   <v name="DARWINV">      1.00000000</v>
   <i type="logical" name="LCORR"> T  </i>
  </separator>
  <i type="logical" name="GGA_COMPAT"> T  </i>
  <i type="logical" name="LBERRY"> F  </i>
  <i type="int" name="ICORELEVEL">     0</i>
  <i type="logical" name="LDAU"> F  </i>
  <i type="int" name="I_CONSTRAINED_M">     0</i>
  <separator name="electronic exchange-correlation" >
   <i type="string" name="GGA">--</i>
   <i type="int" name="VOSKOWN">     0</i>
   <i type="logical" name="LHFCALC"> F  </i>
   <i type="string" name="PRECFOCK"></i>
   <i type="logical" name="LSYMGRAD"> F  </i>
   <i type="logical" name="LHFONE"> F  </i>
   <i type="logical" name="LRHFCALC"> F  </i>
   <i type="logical" name="LTHOMAS"> F  </i>
   <i type="logical" name="LMODELHF"> F  </i>
   <i name="ENCUT4O">     -1.00000000</i>
   <i type="int" name="EXXOEP">     0</i>
   <i type="int" name="FOURORBIT">     0</i>
   <i name="AEXX">      0.00000000</i>
   <i name="HFALPHA">      0.00000000</i>
   <i name="MCALPHA">      0.00000000</i>
   <i name="ALDAX">      1.00000000</i>
   <i name="AGGAX">      1.00000000</i>
   <i name="ALDAC">      1.00000000</i>
   <i name="AGGAC">      1.00000000</i>
   <i type="int" name="NKREDX">     1</i>
   <i type="int" name="NKREDY">     1</i>
   <i type="int" name="NKREDZ">     1</i>
   <i type="logical" name="SHIFTRED"> F  </i>
   <i type="logical" name="ODDONLY"> F  </i>
   <i type="logical" name="EVENONLY"> F  </i>
   <i type="int" name="LMAXFOCK">     0</i>
   <i type="int" name="NMAXFOCKAE">     0</i>
   <i type="logical" name="LFOCKAEDFT"> F  </i>
   <i name="HFSCREEN">      0.00000000</i>
   <i name="HFSCREENC">      0.00000000</i>
   <i type="int" name="NBANDSGWLOW">     0</i>
  </separator>
  <separator name="vdW DFT" >
   <i type="logical" name="LUSE_VDW"> F  </i>
   <i name="Zab_VDW">     -0.84910000</i>
   <i name="PARAM1">      0.12340000</i>
   <i name="PARAM2">      1.00000000</i>
   <i name="PARAM3">      0.00000000</i>
  </separator>
  <separator name="model GW" >
   <i type="int" name="MODEL_GW">     0</i>
   <i name="MODEL_EPS0">      6.13252964</i>
   <i name="MODEL_ALPHA">      1.00000000</i>
  </separator>
  <separator name="linear response parameters" >
   <i type="logical" name="LEPSILON"> F  </i>
   <i type="logical" name="LRPA"> F  </i>
   <i type="logical" name="LNABLA"> F  </i>
   <i type="logical" name="LVEL"> F  </i>
   <i type="int" name="KINTER">     0</i>
   <i name="CSHIFT">      0.10000000</i>
   <i name="OMEGAMAX">     -1.00000000</i>
   <i name="DEG_THRESHOLD">      0.00200000</i>
   <i name="RTIME">     -0.10000000</i>
   <i name="WPLASMAI">      0.00000000</i>
   <v name="DFIELD">      0.00000000      0.00000000      0.00000000</v>
   <v name="WPLASMA">      0.00000000      0.00000000      0.00000000      0.00000000      0.00000000      0.00000000      0.00000000      0.00000000      0.00000000</v>
  </separator>
  <separator name="orbital magnetization" >
   <i type="logical" name="NUCIND"> F  </i>
   <v name="MAGPOS">      0.00000000      0.00000000      0.00000000</v>
   <i type="logical" name="LNICSALL"> T  </i>
   <i type="logical" name="ORBITALMAG"> F  </i>
   <i type="logical" name="LMAGBLOCH"> F  </i>
   <i type="logical" name="LCHIMAG"> F  </i>
   <i type="logical" name="LGAUGE"> T  </i>
   <i type="int" name="MAGATOM">     0</i>
   <v name="MAGDIPOL">      0.00000000      0.00000000      0.00000000</v>
   <v name="AVECCONST">      0.00000000      0.00000000      0.00000000</v>
  </separator>
  <separator name="response functions" >
   <i type="logical" name="LADDER"> F  </i>
   <i type="logical" name="LRPAFORCE"> F  </i>
   <i type="logical" name="LFXC"> F  </i>
   <i type="logical" name="LHARTREE"> T  </i>
   <i type="int" name="IBSE">     0</i>
   <v type="int" name="KPOINT">    -1     0     0     0</v>
   <i type="logical" name="LTCTE"> F  </i>
   <i type="logical" name="LTETE"> F  </i>
   <i type="logical" name="LTRIPLET"> F  </i>
   <i type="logical" name="LFXCEPS"> F  </i>
   <i type="logical" name="LFXHEG"> F  </i>
   <i type="int" name="NATURALO">     2</i>
   <i type="logical" name="L2ORDER"> F  </i>
   <i type="logical" name="LMP2LT"> F  </i>
   <i type="logical" name="LUSEW"> F  </i>
   <i name="ENCUTGW">     -2.00000000</i>
   <i name="ENCUTGWSOFT">     -2.00000000</i>
   <i name="ENCUTLF">     -1.00000000</i>
   <i type="int" name="LMAXMP2">    -1</i>
   <i name="SCISSOR">      0.00000000</i>
   <i type="int" name="NOMEGA">     0</i>
   <i type="int" name="NOMEGAR">     0</i>
   <i type="int" name="NBANDSGW">    -1</i>
   <i type="int" name="NBANDSO">    -1</i>
   <i type="int" name="NBANDSV">    -1</i>
   <i type="int" name="NELM">   400</i>
   <i type="int" name="NELMHF">     1</i>
   <i type="int" name="DIM">     3</i>
   <i type="int" name="ANTIRES">     0</i>
   <i name="OMEGAMAX">    -30.00000000</i>
   <i name="OMEGAMIN">    -30.00000000</i>
   <i name="OMEGATL">   -200.00000000</i>
   <i type="int" name="OMEGAGRID">   140</i>
   <i name="CSHIFT">     -0.10000000</i>
   <i type="logical" name="SELFENERGY"> F  </i>
   <i type="logical" name="LSPECTRAL"> F  </i>
   <i type="logical" name="LSPECTRALGW"> F  </i>
   <i type="logical" name="LSINGLES"> F  </i>
   <i type="logical" name="LFERMIGW"> F  </i>
   <i type="logical" name="ODDONLYGW"> F  </i>
   <i type="logical" name="EVENONLYGW"> F  </i>
   <i type="int" name="NKREDLFX">     1</i>
   <i type="int" name="NKREDLFY">     1</i>
   <i type="int" name="NKREDLFZ">     1</i>
   <i type="int" name="MAXMEM">  2800</i>
   <i type="int" name="TELESCOPE">     0</i>
   <i type="int" name="TAUPAR">     1</i>
   <i type="int" name="OMEGAPAR">    -1</i>
   <i name="LAMBDA">      1.00000000</i>
  </separator>
  <separator name="External order field" >
   <i name="OFIELD_KAPPA">      0.00000000</i>
   <v name="OFIELD_K">      0.00000000      0.00000000      0.00000000</v>
   <i name="OFIELD_Q6_NEAR">      0.00000000</i>
   <i name="OFIELD_Q6_FAR">      0.00000000</i>
   <i name="OFIELD_A">      0.00000000</i>
  </separator>
 </parameters>
 <atominfo>
  <atoms>     108 </atoms>
  <types>       1 </types>
  <array name="atoms" >
   <dimension dim="1">ion</dimension>
   <field type="string">element</field>
   <field type="int">atomtype</field>
   <set>
    <rc><c>Fe</c><c>   1</c></rc>
    <rc><c>Fe</c><c>   1</c></rc>
    <rc><c>Fe</c><c>   1</c></rc>
    <rc><c>Fe</c><c>   1</c></rc>
    <rc><c>Fe</c><c>   1</c></rc>
    <rc><c>Fe</c><c>   1</c></rc>
    <rc><c>Fe</c><c>   1</c></rc>
    <rc><c>Fe</c><c>   1</c></rc>
    <rc><c>Fe</c><c>   1</c></rc>
    <rc><c>Fe</c><c>   1</c></rc>
    <rc><c>Fe</c><c>   1</c></rc>
    <rc><c>Fe</c><c>   1</c></rc>
    <rc><c>Fe</c><c>   1</c></rc>
    <rc><c>Fe</c><c>   1</c></rc>
    <rc><c>Fe</c><c>   1</c></rc>
    <rc><c>Fe</c><c>   1</c></rc>
    <rc><c>Fe</c><c>   1</c></rc>
    <rc><c>Fe</c><c>   1</c></rc>
    <rc><c>Fe</c><c>   1</c></rc>
    <rc><c>Fe</c><c>   1</c></rc>
    <rc><c>Fe</c><c>   1</c></rc>
    <rc><c>Fe</c><c>   1</c></rc>
    <rc><c>Fe</c><c>   1</c></rc>
    <rc><c>Fe</c><c>   1</c></rc>
    <rc><c>Fe</c><c>   1</c></rc>
    <rc><c>Fe</c><c>   1</c></rc>
    <rc><c>Fe</c><c>   1</c></rc>
    <rc><c>Fe</c><c>   1</c></rc>
    <rc><c>Fe</c><c>   1</c></rc>
    <rc><c>Fe</c><c>   1</c></rc>
    <rc><c>Fe</c><c>   1</c></rc>
    <rc><c>Fe</c><c>   1</c></rc>
    <rc><c>Fe</c><c>   1</c></rc>
    <rc><c>Fe</c><c>   1</c></rc>
    <rc><c>Fe</c><c>   1</c></rc>
    <rc><c>Fe</c><c>   1</c></rc>
    <rc><c>Fe</c><c>   1</c></rc>
    <rc><c>Fe</c><c>   1</c></rc>
    <rc><c>Fe</c><c>   1</c></rc>
    <rc><c>Fe</c><c>   1</c></rc>
    <rc><c>Fe</c><c>   1</c></rc>
    <rc><c>Fe</c><c>   1</c></rc>
    <rc><c>Fe</c><c>   1</c></rc>
    <rc><c>Fe</c><c>   1</c></rc>
    <rc><c>Fe</c><c>   1</c></rc>
    <rc><c>Fe</c><c>   1</c></rc>
    <rc><c>Fe</c><c>   1</c></rc>
    <rc><c>Fe</c><c>   1</c></rc>
    <rc><c>Fe</c><c>   1</c></rc>
    <rc><c>Fe</c><c>   1</c></rc>
    <rc><c>Fe</c><c>   1</c></rc>
    <rc><c>Fe</c><c>   1</c></rc>
    <rc><c>Fe</c><c>   1</c></rc>
    <rc><c>Fe</c><c>   1</c></rc>
    <rc><c>Fe</c><c>   1</c></rc>
    <rc><c>Fe</c><c>   1</c></rc>
    <rc><c>Fe</c><c>   1</c></rc>
    <rc><c>Fe</c><c>   1</c></rc>
    <rc><c>Fe</c><c>   1</c></rc>
    <rc><c>Fe</c><c>   1</c></rc>
    <rc><c>Fe</c><c>   1</c></rc>
    <rc><c>Fe</c><c>   1</c></rc>
    <rc><c>Fe</c><c>   1</c></rc>
    <rc><c>Fe</c><c>   1</c></rc>
    <rc><c>Fe</c><c>   1</c></rc>
    <rc><c>Fe</c><c>   1</c></rc>
    <rc><c>Fe</c><c>   1</c></rc>
    <rc><c>Fe</c><c>   1</c></rc>
    <rc><c>Fe</c><c>   1</c></rc>
    <rc><c>Fe</c><c>   1</c></rc>
    <rc><c>Fe</c><c>   1</c></rc>
    <rc><c>Fe</c><c>   1</c></rc>
    <rc><c>Fe</c><c>   1</c></rc>
    <rc><c>Fe</c><c>   1</c></rc>
    <rc><c>Fe</c><c>   1</c></rc>
    <rc><c>Fe</c><c>   1</c></rc>
    <rc><c>Fe</c><c>   1</c></rc>
    <rc><c>Fe</c><c>   1</c></rc>
    <rc><c>Fe</c><c>   1</c></rc>
    <rc><c>Fe</c><c>   1</c></rc>
    <rc><c>Fe</c><c>   1</c></rc>
    <rc><c>Fe</c><c>   1</c></rc>
    <rc><c>Fe</c><c>   1</c></rc>
    <rc><c>Fe</c><c>   1</c></rc>
    <rc><c>Fe</c><c>   1</c></rc>
    <rc><c>Fe</c><c>   1</c></rc>
    <rc><c>Fe</c><c>   1</c></rc>
    <rc><c>Fe</c><c>   1</c></rc>
    <rc><c>Fe</c><c>   1</c></rc>
    <rc><c>Fe</c><c>   1</c></rc>
    <rc><c>Fe</c><c>   1</c></rc>
    <rc><c>Fe</c><c>   1</c></rc>
    <rc><c>Fe</c><c>   1</c></rc>
    <rc><c>Fe</c><c>   1</c></rc>
    <rc><c>Fe</c><c>   1</c></rc>
    <rc><c>Fe</c><c>   1</c></rc>
    <rc><c>Fe</c><c>   1</c></rc>
    <rc><c>Fe</c><c>   1</c></rc>
    <rc><c>Fe</c><c>   1</c></rc>
    <rc><c>Fe</c><c>   1</c></rc>
    <rc><c>Fe</c><c>   1</c></rc>
    <rc><c>Fe</c><c>   1</c></rc>
    <rc><c>Fe</c><c>   1</c></rc>
    <rc><c>Fe</c><c>   1</c></rc>
    <rc><c>Fe</c><c>   1</c></rc>
    <rc><c>Fe</c><c>   1</c></rc>
    <rc><c>Fe</c><c>   1</c></rc>
    <rc><c>Fe</c><c>   1</c></rc>
   </set>
  </array>
  <array name="atomtypes" >
   <dimension dim="1">type</dimension>
   <field type="int">atomspertype</field>
   <field type="string">element</field>
   <field>mass</field>
   <field>valence</field>
   <field type="string">pseudopotential</field>
   <set>
    <rc><c> 108</c><c>Fe</c><c>     55.84700000</c><c>      8.00000000</c><c> PAW_PBE Fe 06Sep2000                   </c></rc>
   </set>
  </array>
 </atominfo>
 <structure name="initialpos" >
  <crystal>
   <varray name="basis" >
    <v>      10.33484705       0.00000000       0.00000000 </v>
    <v>       0.00000000      10.33484705       0.00000000 </v>
    <v>       0.00000000       0.00000000      10.33484705 </v>
   </varray>
   <i name="volume">   1103.85533447 </i>
   <varray name="rec_basis" >
    <v>       0.09676002       0.00000000       0.00000000 </v>
    <v>       0.00000000       0.09676002       0.00000000 </v>
    <v>       0.00000000       0.00000000       0.09676002 </v>
   </varray>
  </crystal>
  <varray name="positions" >
   <v>       0.00000000       0.00000000       0.00000000 </v>
   <v>       0.00000000       0.16666893       0.16666893 </v>
   <v>       0.16666893       0.00000000       0.16666893 </v>
   <v>       0.16666893       0.16666893       0.00000000 </v>
   <v>       0.33333106       0.00000000       0.00000000 </v>
   <v>       0.33333107       0.16666893       0.16666893 </v>
   <v>       0.50000000       0.00000000       0.16666894 </v>
   <v>       0.50000000       0.16666894       0.00000000 </v>
   <v>       0.66666897       0.00000000       0.00000000 </v>
   <v>       0.66666896       0.16666893       0.16666893 </v>
   <v>       0.83333104       0.00000000       0.16666893 </v>
   <v>       0.83333104       0.16666893       0.00000000 </v>
   <v>       0.00000000       0.33333106       0.00000000 </v>
   <v>       0.00000000       0.50000000       0.16666894 </v>
   <v>       0.16666893       0.33333107       0.16666893 </v>
   <v>       0.16666894       0.50000000       0.00000000 </v>
   <v>       0.33333107       0.33333107       0.00000000 </v>
   <v>       0.33333107       0.50000000       0.16666893 </v>
   <v>       0.50000000       0.33333107       0.16666893 </v>
   <v>       0.50000000       0.50000000       0.00000000 </v>
   <v>       0.66666896       0.33333107       0.00000000 </v>
   <v>       0.66666896       0.50000000       0.16666893 </v>
   <v>       0.83333104       0.33333107       0.16666893 </v>
   <v>       0.83333103       0.50000000       0.00000000 </v>
   <v>       0.00000000       0.66666897       0.00000000 </v>
   <v>       0.00000000       0.83333104       0.16666893 </v>
   <v>       0.16666893       0.66666896       0.16666893 </v>
   <v>       0.16666893       0.83333104       0.00000000 </v>
   <v>       0.33333107       0.66666896       0.00000000 </v>
   <v>       0.33333107       0.83333104       0.16666893 </v>
   <v>       0.50000000       0.66666896       0.16666893 </v>
   <v>       0.50000000       0.83333103       0.00000000 </v>
   <v>       0.66666896       0.66666896       0.00000000 </v>
   <v>       0.66666896       0.83333104       0.16666893 </v>
   <v>       0.83333104       0.66666896       0.16666893 </v>
   <v>       0.83333104       0.83333104       0.00000000 </v>
   <v>       0.00000000       0.00000000       0.33333106 </v>
   <v>       0.00000000       0.16666894       0.50000000 </v>
   <v>       0.16666894       0.00000000       0.50000000 </v>
   <v>       0.16666893       0.16666893       0.33333107 </v>
   <v>       0.33333107       0.00000000       0.33333107 </v>
   <v>       0.33333107       0.16666893       0.50000000 </v>
   <v>       0.50000000       0.00000000       0.50000000 </v>
   <v>       0.50000000       0.16666893       0.33333107 </v>
   <v>       0.66666896       0.00000000       0.33333107 </v>
   <v>       0.66666896       0.16666893       0.50000000 </v>
   <v>       0.83333103       0.00000000       0.50000000 </v>
   <v>       0.83333104       0.16666893       0.33333107 </v>
   <v>       0.00000000       0.33333107       0.33333107 </v>
   <v>       0.00000000       0.50000000       0.50000000 </v>
   <v>       0.16666893       0.33333107       0.50000000 </v>
   <v>       0.16666893       0.50000000       0.33333107 </v>
   <v>       0.33333107       0.33333107       0.33333107 </v>
   <v>       0.33333106       0.50000000       0.50000000 </v>
   <v>       0.50000000       0.33333106       0.50000000 </v>
   <v>       0.50000000       0.50000000       0.33333106 </v>
   <v>       0.66666896       0.33333107       0.33333107 </v>
   <v>       0.66666897       0.50000000       0.50000000 </v>
   <v>       0.83333104       0.33333107       0.50000000 </v>
   <v>       0.83333104       0.50000000       0.33333107 </v>
   <v>       0.00000000       0.66666896       0.33333107 </v>
   <v>       0.00000000       0.83333103       0.50000000 </v>
   <v>       0.16666893       0.66666896       0.50000000 </v>
   <v>       0.16666893       0.83333104       0.33333107 </v>
   <v>       0.33333107       0.66666896       0.33333107 </v>
   <v>       0.33333107       0.83333104       0.50000000 </v>
   <v>       0.50000000       0.66666897       0.50000000 </v>
   <v>       0.50000000       0.83333104       0.33333107 </v>
   <v>       0.66666896       0.66666896       0.33333107 </v>
   <v>       0.66666896       0.83333104       0.50000000 </v>
   <v>       0.83333104       0.66666896       0.50000000 </v>
   <v>       0.83333104       0.83333104       0.33333107 </v>
   <v>       0.00000000       0.00000000       0.66666897 </v>
   <v>       0.00000000       0.16666893       0.83333104 </v>
   <v>       0.16666893       0.00000000       0.83333104 </v>
   <v>       0.16666893       0.16666893       0.66666896 </v>
   <v>       0.33333107       0.00000000       0.66666896 </v>
   <v>       0.33333107       0.16666893       0.83333104 </v>
   <v>       0.50000000       0.00000000       0.83333103 </v>
   <v>       0.50000000       0.16666893       0.66666896 </v>
   <v>       0.66666896       0.00000000       0.66666896 </v>
   <v>       0.66666896       0.16666893       0.83333104 </v>
   <v>       0.83333104       0.00000000       0.83333104 </v>
   <v>       0.83333104       0.16666893       0.66666896 </v>
   <v>       0.00000000       0.33333107       0.66666896 </v>
   <v>       0.00000000       0.50000000       0.83333103 </v>
   <v>       0.16666893       0.33333107       0.83333104 </v>
   <v>       0.16666893       0.50000000       0.66666896 </v>
   <v>       0.33333107       0.33333107       0.66666896 </v>
   <v>       0.33333107       0.50000000       0.83333104 </v>
   <v>       0.50000000       0.33333107       0.83333104 </v>
   <v>       0.50000000       0.50000000       0.66666897 </v>
   <v>       0.66666896       0.33333107       0.66666896 </v>
   <v>       0.66666896       0.50000000       0.83333104 </v>
   <v>       0.83333104       0.33333107       0.83333104 </v>
   <v>       0.83333104       0.50000000       0.66666896 </v>
   <v>       0.00000000       0.66666896       0.66666896 </v>
   <v>       0.00000000       0.83333104       0.83333104 </v>
   <v>       0.16666893       0.66666896       0.83333104 </v>
   <v>       0.16666893       0.83333104       0.66666896 </v>
   <v>       0.33333107       0.66666896       0.66666896 </v>
   <v>       0.33333107       0.83333104       0.83333104 </v>
   <v>       0.50000000       0.66666896       0.83333104 </v>
   <v>       0.50000000       0.83333104       0.66666896 </v>
   <v>       0.66666896       0.66666896       0.66666896 </v>
   <v>       0.66666896       0.83333104       0.83333104 </v>
   <v>       0.83333104       0.66666896       0.83333104 </v>
   <v>       0.83333104       0.83333104       0.66666896 </v>
  </varray>
 </structure>
 <calculation>
  <scstep>
   <time name="dav">  103.65  103.71</time>
   <time name="total">  104.02  104.09</time>
   <energy>
    <i name="alphaZ">   7300.31925852 </i>
    <i name="ewald"> -66232.83996889 </i>
    <i name="hartreedc"> -11197.02572337 </i>
    <i name="XCdc">    446.63038354 </i>
    <i name="pawpsdc">  51723.88885462 </i>
    <i name="pawaedc"> -52548.28121372 </i>
    <i name="eentropy">     -0.00582033 </i>
    <i name="bandstr">  13902.21266026 </i>
    <i name="atom">  64201.67088057 </i>
    <i name="e_fr_energy">   7596.56931121 </i>
    <i name="e_wo_entrp">   7596.57513154 </i>
    <i name="e_0_energy">   7596.57125132 </i>
   </energy>
  </scstep>
  <scstep>
   <time name="dav">  103.23  103.27</time>
   <time name="total">  103.25  103.29</time>
   <energy>
    <i name="e_fr_energy">    -23.23667082 </i>
    <i name="e_wo_entrp">    -23.24124263 </i>
    <i name="e_0_energy">    -23.23819475 </i>
   </energy>
  </scstep>
  <scstep>
   <time name="dav">  105.82  105.86</time>
   <time name="total">  105.84  105.88</time>
   <energy>
    <i name="e_fr_energy">   -850.90011349 </i>
    <i name="e_wo_entrp">   -850.91551735 </i>
    <i name="e_0_energy">   -850.90524811 </i>
   </energy>
  </scstep>
  <scstep>
   <time name="dav">  176.01  176.05</time>
   <time name="total">  176.03  176.07</time>
   <energy>
    <i name="e_fr_energy">  -1029.93835646 </i>
    <i name="e_wo_entrp">  -1029.99160433 </i>
    <i name="e_0_energy">  -1029.95610575 </i>
   </energy>
  </scstep>
  <scstep>
   <time name="dav">  157.53  157.60</time>
   <time name="total">  162.79  162.86</time>
   <energy>
    <i name="e_fr_energy">  -1045.07993917 </i>
    <i name="e_wo_entrp">  -1045.17052722 </i>
    <i name="e_0_energy">  -1045.11013519 </i>
   </energy>
  </scstep>
  <scstep>
   <time name="diag">   13.31   13.33</time>
   <time name="diis">   63.63   63.65</time>
   <time name="orth">    2.61    2.61</time>
   <time name="total">   85.15   85.19</time>
   <energy>
    <i name="e_fr_energy">   -877.41725787 </i>
    <i name="e_wo_entrp">   -877.35572918 </i>
    <i name="e_0_energy">   -877.39674831 </i>
   </energy>
  </scstep>
  <scstep>
   <time name="diag">   12.85   12.85</time>
   <time name="diis">   68.98   69.00</time>
   <time name="orth">    2.45    2.45</time>
   <time name="total">   89.49   89.51</time>
   <energy>
    <i name="e_fr_energy">   -880.25990624 </i>
    <i name="e_wo_entrp">   -880.30411155 </i>
    <i name="e_0_energy">   -880.27464134 </i>
   </energy>
  </scstep>
  <scstep>
   <time name="diag">   13.47   13.47</time>
   <time name="diis">   66.75   66.76</time>
   <time name="orth">    2.58    2.58</time>
   <time name="total">   88.30   88.31</time>
   <energy>
    <i name="e_fr_energy">   -879.64603533 </i>
    <i name="e_wo_entrp">   -879.66351076 </i>
    <i name="e_0_energy">   -879.65186047 </i>
   </energy>
  </scstep>
  <scstep>
   <time name="diag">   12.80   12.80</time>
   <time name="diis">   80.09   80.10</time>
   <time name="orth">    2.50    2.50</time>
   <time name="total">  100.66  100.67</time>
   <energy>
    <i name="e_fr_energy">   -879.68945378 </i>
    <i name="e_wo_entrp">   -879.72339813 </i>
    <i name="e_0_energy">   -879.70076856 </i>
   </energy>
  </scstep>
  <scstep>
   <time name="diag">   13.14   13.14</time>
   <time name="diis">   84.04   84.05</time>
   <time name="orth">    2.49    2.50</time>
   <time name="total">  104.89  104.91</time>
   <energy>
    <i name="e_fr_energy">   -879.53898700 </i>
    <i name="e_wo_entrp">   -879.57668111 </i>
    <i name="e_0_energy">   -879.55155171 </i>
   </energy>
  </scstep>
  <scstep>
   <time name="diag">   13.13   13.14</time>
   <time name="diis">   86.71   86.73</time>
   <time name="orth">    2.55    2.55</time>
   <time name="total">  107.66  107.68</time>
   <energy>
    <i name="e_fr_energy">   -879.55219421 </i>
    <i name="e_wo_entrp">   -879.59170021 </i>
    <i name="e_0_energy">   -879.56536288 </i>
   </energy>
  </scstep>
  <scstep>
   <time name="diag">   13.04   13.04</time>
   <time name="diis">   65.15   65.19</time>
   <time name="orth">    2.34    2.34</time>
   <time name="total">   85.35   85.40</time>
   <energy>
    <i name="e_fr_energy">   -879.54765134 </i>
    <i name="e_wo_entrp">   -879.58803203 </i>
    <i name="e_0_energy">   -879.56111157 </i>
   </energy>
  </scstep>
  <scstep>
   <time name="diag">   10.79   10.79</time>
   <time name="diis">   74.34   74.34</time>
   <time name="orth">    2.42    2.42</time>
   <time name="total">   92.22   92.23</time>
   <energy>
    <i name="e_fr_energy">   -879.54816431 </i>
    <i name="e_wo_entrp">   -879.58921218 </i>
    <i name="e_0_energy">   -879.56184693 </i>
   </energy>
  </scstep>
  <scstep>
   <time name="diag">   10.04   10.04</time>
   <time name="diis">   55.43   55.43</time>
   <time name="orth">    2.37    2.37</time>
   <time name="total">   72.47   72.48</time>
   <energy>
    <i name="e_fr_energy">   -879.54813601 </i>
    <i name="e_wo_entrp">   -879.58975101 </i>
    <i name="e_0_energy">   -879.56200767 </i>
   </energy>
  </scstep>
  <scstep>
   <time name="diag">   10.83   10.83</time>
   <time name="diis">   71.61   71.62</time>
   <time name="orth">    2.41    2.41</time>
   <time name="total">   89.54   89.55</time>
   <energy>
    <i name="e_fr_energy">   -879.54812780 </i>
    <i name="e_wo_entrp">   -879.59014955 </i>
    <i name="e_0_energy">   -879.56213505 </i>
   </energy>
  </scstep>
  <scstep>
   <time name="diag">   10.95   10.95</time>
   <time name="diis">   51.59   51.61</time>
   <time name="orth">    2.42    2.42</time>
   <time name="total">   69.72   69.73</time>
   <energy>
    <i name="e_fr_energy">   -879.54810154 </i>
    <i name="e_wo_entrp">   -879.59043104 </i>
    <i name="e_0_energy">   -879.56221137 </i>
   </energy>
  </scstep>
  <scstep>
   <time name="diag">   11.19   11.19</time>
   <time name="diis">   39.84   39.84</time>
   <time name="orth">    2.42    2.42</time>
   <time name="total">   58.20   58.21</time>
   <energy>
    <i name="e_fr_energy">   -879.54807876 </i>
    <i name="e_wo_entrp">   -879.59064259 </i>
    <i name="e_0_energy">   -879.56226670 </i>
   </energy>
  </scstep>
  <scstep>
   <time name="diag">   11.20   11.20</time>
   <time name="diis">   37.26   37.26</time>
   <time name="orth">    2.42    2.42</time>
   <time name="total">   55.63   55.64</time>
   <energy>
    <i name="e_fr_energy">   -879.54805287 </i>
    <i name="e_wo_entrp">   -879.59091574 </i>
    <i name="e_0_energy">   -879.56234049 </i>
   </energy>
  </scstep>
  <scstep>
   <time name="diag">   11.27   11.27</time>
   <time name="diis">   36.23   36.23</time>
   <time name="orth">    2.43    2.43</time>
   <time name="total">   54.68   54.68</time>
   <energy>
    <i name="e_fr_energy">   -879.54803479 </i>
    <i name="e_wo_entrp">   -879.59109781 </i>
    <i name="e_0_energy">   -879.56238913 </i>
   </energy>
  </scstep>
  <scstep>
   <time name="diag">   11.18   11.18</time>
   <time name="diis">   34.81   34.81</time>
   <time name="orth">    2.43    2.43</time>
   <time name="total">   53.18   53.19</time>
   <energy>
    <i name="e_fr_energy">   -879.54802158 </i>
    <i name="e_wo_entrp">   -879.59124739 </i>
    <i name="e_0_energy">   -879.56243018 </i>
   </energy>
  </scstep>
  <scstep>
   <time name="diag">   11.20   11.20</time>
   <time name="diis">   34.17   34.18</time>
   <time name="orth">    2.43    2.43</time>
   <time name="total">   52.57   52.58</time>
   <energy>
    <i name="e_fr_energy">   -879.54801010 </i>
    <i name="e_wo_entrp">   -879.59138400 </i>
    <i name="e_0_energy">   -879.56246807 </i>
   </energy>
  </scstep>
  <scstep>
   <time name="diag">   11.18   11.20</time>
   <time name="diis">   34.00   34.01</time>
   <time name="orth">    2.43    2.43</time>
   <time name="total">   52.36   52.38</time>
   <energy>
    <i name="e_fr_energy">   -879.54800005 </i>
    <i name="e_wo_entrp">   -879.59150552 </i>
    <i name="e_0_energy">   -879.56250188 </i>
   </energy>
  </scstep>
  <scstep>
   <time name="diag">   11.20   11.20</time>
   <time name="diis">   31.30   31.30</time>
   <time name="orth">    2.43    2.43</time>
   <time name="total">   49.69   49.70</time>
   <energy>
    <i name="e_fr_energy">   -879.54799075 </i>
    <i name="e_wo_entrp">   -879.59161740 </i>
    <i name="e_0_energy">   -879.56253297 </i>
   </energy>
  </scstep>
  <scstep>
   <time name="diag">   11.18   11.18</time>
   <time name="diis">   30.77   30.77</time>
   <time name="orth">    2.45    2.45</time>
   <time name="total">   49.18   49.18</time>
   <energy>
    <i name="e_fr_energy">   -879.54798208 </i>
    <i name="e_wo_entrp">   -879.59172155 </i>
    <i name="e_0_energy">   -879.56256190 </i>
   </energy>
  </scstep>
  <scstep>
   <time name="diag">   11.15   11.15</time>
   <time name="diis">   29.68   29.69</time>
   <time name="orth">    2.42    2.42</time>
   <time name="total">   48.03   48.03</time>
   <energy>
    <i name="e_fr_energy">   -879.54797405 </i>
    <i name="e_wo_entrp">   -879.59181787 </i>
    <i name="e_0_energy">   -879.56258866 </i>
   </energy>
  </scstep>
  <scstep>
   <time name="diag">   11.13   11.13</time>
   <time name="diis">   29.21   29.21</time>
   <time name="orth">    2.42    2.42</time>
   <time name="total">   47.49   47.49</time>
   <energy>
    <i name="e_fr_energy">   -879.54796702 </i>
    <i name="e_wo_entrp">   -879.59190319 </i>
    <i name="e_0_energy">   -879.56261241 </i>
   </energy>
  </scstep>
  <scstep>
   <time name="diag">   11.16   11.16</time>
   <time name="diis">   28.51   28.51</time>
   <time name="orth">    2.42    2.42</time>
   <time name="total">   46.82   46.83</time>
   <energy>
    <i name="e_fr_energy">   -879.54795998 </i>
    <i name="e_wo_entrp">   -879.59198779 </i>
    <i name="e_0_energy">   -879.56263592 </i>
   </energy>
  </scstep>
  <scstep>
   <time name="diag">   11.18   11.18</time>
   <time name="diis">   27.96   27.96</time>
   <time name="orth">    2.42    2.42</time>
   <time name="total">   46.29   46.29</time>
   <energy>
    <i name="e_fr_energy">   -879.54795254 </i>
    <i name="e_wo_entrp">   -879.59207587 </i>
    <i name="e_0_energy">   -879.56266032 </i>
   </energy>
  </scstep>
  <scstep>
   <time name="diag">   11.19   11.19</time>
   <time name="diis">   27.37   27.37</time>
   <time name="orth">    2.42    2.42</time>
   <time name="total">   45.70   45.70</time>
   <energy>
    <i name="e_fr_energy">   -879.54794632 </i>
    <i name="e_wo_entrp">   -879.59215016 </i>
    <i name="e_0_energy">   -879.56268093 </i>
   </energy>
  </scstep>
  <scstep>
   <time name="diag">   11.14   11.14</time>
   <time name="diis">   27.04   27.04</time>
   <time name="orth">    2.43    2.43</time>
   <time name="total">   45.34   45.34</time>
   <energy>
    <i name="e_fr_energy">   -879.54794091 </i>
    <i name="e_wo_entrp">   -879.59221547 </i>
    <i name="e_0_energy">   -879.56269910 </i>
   </energy>
  </scstep>
  <scstep>
   <time name="diag">   11.16   11.16</time>
   <time name="diis">   26.65   26.65</time>
   <time name="orth">    2.43    2.43</time>
   <time name="total">   44.97   44.98</time>
   <energy>
    <i name="e_fr_energy">   -879.54793655 </i>
    <i name="e_wo_entrp">   -879.59226918 </i>
    <i name="e_0_energy">   -879.56271409 </i>
   </energy>
  </scstep>
  <scstep>
   <time name="diag">   11.16   11.16</time>
   <time name="diis">   26.62   26.63</time>
   <time name="orth">    2.43    2.43</time>
   <time name="total">   44.95   44.95</time>
   <energy>
    <i name="e_fr_energy">   -879.54793198 </i>
    <i name="e_wo_entrp">   -879.59232452 </i>
    <i name="e_0_energy">   -879.56272949 </i>
   </energy>
  </scstep>
  <scstep>
   <time name="diag">   11.16   11.16</time>
   <time name="diis">   26.21   26.21</time>
   <time name="orth">    2.43    2.43</time>
   <time name="total">   44.53   44.53</time>
   <energy>
    <i name="e_fr_energy">   -879.54792763 </i>
    <i name="e_wo_entrp">   -879.59237631 </i>
    <i name="e_0_energy">   -879.56274386 </i>
   </energy>
  </scstep>
  <scstep>
   <time name="diag">   11.15   11.15</time>
   <time name="diis">   26.13   26.13</time>
   <time name="orth">    2.43    2.43</time>
   <time name="total">   44.44   44.45</time>
   <energy>
    <i name="e_fr_energy">   -879.54792250 </i>
    <i name="e_wo_entrp">   -879.59243599 </i>
    <i name="e_0_energy">   -879.56276033 </i>
   </energy>
  </scstep>
  <scstep>
   <time name="diag">   11.17   11.17</time>
   <time name="diis">   25.93   25.93</time>
   <time name="orth">    2.43    2.43</time>
   <time name="total">   44.26   44.27</time>
   <energy>
    <i name="e_fr_energy">   -879.54791930 </i>
    <i name="e_wo_entrp">   -879.59247527 </i>
    <i name="e_0_energy">   -879.56277129 </i>
   </energy>
  </scstep>
  <scstep>
   <time name="diag">   11.11   11.11</time>
   <time name="diis">   25.85   25.86</time>
   <time name="orth">    2.43    2.43</time>
   <time name="total">   44.13   44.14</time>
   <energy>
    <i name="e_fr_energy">   -879.54791664 </i>
    <i name="e_wo_entrp">   -879.59250861 </i>
    <i name="e_0_energy">   -879.56278063 </i>
   </energy>
  </scstep>
  <scstep>
   <time name="diag">   11.15   11.15</time>
   <time name="diis">   25.59   25.59</time>
   <time name="orth">    2.43    2.43</time>
   <time name="total">   43.89   43.90</time>
   <energy>
    <i name="e_fr_energy">   -879.54791431 </i>
    <i name="e_wo_entrp">   -879.59253812 </i>
    <i name="e_0_energy">   -879.56278891 </i>
   </energy>
  </scstep>
  <scstep>
   <time name="diag">   11.13   11.14</time>
   <time name="diis">   25.55   25.55</time>
   <time name="orth">    2.43    2.43</time>
   <time name="total">   43.86   43.86</time>
   <energy>
    <i name="e_fr_energy">   -879.54791221 </i>
    <i name="e_wo_entrp">   -879.59256500 </i>
    <i name="e_0_energy">   -879.56279647 </i>
   </energy>
  </scstep>
  <scstep>
   <time name="diag">   11.14   11.14</time>
   <time name="diis">   25.53   25.53</time>
   <time name="orth">    2.43    2.43</time>
   <time name="total">   43.85   43.86</time>
   <energy>
    <i name="e_fr_energy">   -879.54791007 </i>
    <i name="e_wo_entrp">   -879.59259179 </i>
    <i name="e_0_energy">   -879.56280398 </i>
   </energy>
  </scstep>
  <scstep>
   <time name="diag">   11.16   11.16</time>
   <time name="diis">   25.24   25.24</time>
   <time name="orth">    2.42    2.42</time>
   <time name="total">   43.56   43.60</time>
   <energy>
    <i name="e_fr_energy">   -879.54790831 </i>
    <i name="e_wo_entrp">   -879.59261441 </i>
    <i name="e_0_energy">   -879.56281034 </i>
   </energy>
  </scstep>
  <scstep>
   <time name="diag">   11.19   11.19</time>
   <time name="diis">   25.19   25.19</time>
   <time name="orth">    2.43    2.43</time>
   <time name="total">   43.59   43.59</time>
   <energy>
    <i name="e_fr_energy">   -879.54790671 </i>
    <i name="e_wo_entrp">   -879.59263496 </i>
    <i name="e_0_energy">   -879.56281613 </i>
   </energy>
  </scstep>
  <scstep>
   <time name="diag">   11.24   11.24</time>
   <time name="diis">   25.07   25.07</time>
   <time name="orth">    2.42    2.42</time>
   <time name="total">   43.47   43.48</time>
   <energy>
    <i name="e_fr_energy">   -879.54790525 </i>
    <i name="e_wo_entrp">   -879.59265378 </i>
    <i name="e_0_energy">   -879.56282143 </i>
   </energy>
  </scstep>
  <scstep>
   <time name="diag">   11.18   11.18</time>
   <time name="diis">   24.93   24.93</time>
   <time name="orth">    2.43    2.43</time>
   <time name="total">   43.29   43.29</time>
   <energy>
    <i name="e_fr_energy">   -879.54790391 </i>
    <i name="e_wo_entrp">   -879.59267103 </i>
    <i name="e_0_energy">   -879.56282629 </i>
   </energy>
  </scstep>
  <scstep>
   <time name="diag">   11.14   11.14</time>
   <time name="diis">   24.23   24.23</time>
   <time name="orth">    2.26    2.26</time>
   <time name="total">   42.25   42.26</time>
   <energy>
    <i name="e_fr_energy">   -879.54790248 </i>
    <i name="e_wo_entrp">   -879.59268906 </i>
    <i name="e_0_energy">   -879.56283134 </i>
   </energy>
  </scstep>
  <scstep>
   <time name="diag">   10.42   10.42</time>
   <time name="diis">   23.30   23.30</time>
   <time name="orth">    2.25    2.25</time>
   <time name="total">   40.56   40.56</time>
   <energy>
    <i name="e_fr_energy">   -879.54790136 </i>
    <i name="e_wo_entrp">   -879.59270365 </i>
    <i name="e_0_energy">   -879.56283546 </i>
   </energy>
  </scstep>
  <scstep>
   <time name="diag">   10.16   10.16</time>
   <time name="diis">   23.09   23.09</time>
   <time name="orth">    2.25    2.25</time>
   <time name="total">   40.04   40.04</time>
   <energy>
    <i name="e_fr_energy">   -879.54790035 </i>
    <i name="e_wo_entrp">   -879.59271689 </i>
    <i name="e_0_energy">   -879.56283919 </i>
   </energy>
  </scstep>
  <scstep>
   <time name="diag">   10.17   10.17</time>
   <time name="diis">   22.86   23.11</time>
   <time name="orth">    2.24    2.24</time>
   <time name="total">   35.58   35.83</time>
   <energy>
    <i name="alphaZ">   7300.31925852 </i>
    <i name="ewald"> -66232.83996889 </i>
    <i name="hartreedc">  -9349.83228280 </i>
    <i name="XCdc">    360.58714233 </i>
    <i name="pawpsdc">  58021.89138324 </i>
    <i name="pawaedc"> -58958.13805816 </i>
    <i name="eentropy">      0.04482954 </i>
    <i name="bandstr">   3776.74891622 </i>
    <i name="atom">  64201.67088057 </i>
    <i name="e_fr_energy">   -879.54789942 </i>
    <i name="e_wo_entrp">   -879.59272896 </i>
    <i name="e_0_energy">   -879.56284260 </i>
   </energy>
  </scstep>
  <structure>
   <crystal>
    <varray name="basis" >
     <v>      10.33484705       0.00000000       0.00000000 </v>
     <v>       0.00000000      10.33484705       0.00000000 </v>
     <v>       0.00000000       0.00000000      10.33484705 </v>
    </varray>
    <i name="volume">   1103.85533447 </i>
    <varray name="rec_basis" >
     <v>       0.09676002       0.00000000       0.00000000 </v>
     <v>       0.00000000       0.09676002       0.00000000 </v>
     <v>       0.00000000       0.00000000       0.09676002 </v>
    </varray>
   </crystal>
   <varray name="positions" >
    <v>       0.00000000       0.00000000       0.00000000 </v>
    <v>       0.00000000       0.16666893       0.16666893 </v>
    <v>       0.16666893       0.00000000       0.16666893 </v>
    <v>       0.16666893       0.16666893       0.00000000 </v>
    <v>       0.33333106       0.00000000       0.00000000 </v>
    <v>       0.33333107       0.16666893       0.16666893 </v>
    <v>       0.50000000       0.00000000       0.16666894 </v>
    <v>       0.50000000       0.16666894       0.00000000 </v>
    <v>       0.66666897       0.00000000       0.00000000 </v>
    <v>       0.66666896       0.16666893       0.16666893 </v>
    <v>       0.83333104       0.00000000       0.16666893 </v>
    <v>       0.83333104       0.16666893       0.00000000 </v>
    <v>       0.00000000       0.33333106       0.00000000 </v>
    <v>       0.00000000       0.50000000       0.16666894 </v>
    <v>       0.16666893       0.33333107       0.16666893 </v>
    <v>       0.16666894       0.50000000       0.00000000 </v>
    <v>       0.33333107       0.33333107       0.00000000 </v>
    <v>       0.33333107       0.50000000       0.16666893 </v>
    <v>       0.50000000       0.33333107       0.16666893 </v>
    <v>       0.50000000       0.50000000       0.00000000 </v>
    <v>       0.66666896       0.33333107       0.00000000 </v>
    <v>       0.66666896       0.50000000       0.16666893 </v>
    <v>       0.83333104       0.33333107       0.16666893 </v>
    <v>       0.83333103       0.50000000       0.00000000 </v>
    <v>       0.00000000       0.66666897       0.00000000 </v>
    <v>       0.00000000       0.83333104       0.16666893 </v>
    <v>       0.16666893       0.66666896       0.16666893 </v>
    <v>       0.16666893       0.83333104       0.00000000 </v>
    <v>       0.33333107       0.66666896       0.00000000 </v>
    <v>       0.33333107       0.83333104       0.16666893 </v>
    <v>       0.50000000       0.66666896       0.16666893 </v>
    <v>       0.50000000       0.83333103       0.00000000 </v>
    <v>       0.66666896       0.66666896       0.00000000 </v>
    <v>       0.66666896       0.83333104       0.16666893 </v>
    <v>       0.83333104       0.66666896       0.16666893 </v>
    <v>       0.83333104       0.83333104       0.00000000 </v>
    <v>       0.00000000       0.00000000       0.33333106 </v>
    <v>       0.00000000       0.16666894       0.50000000 </v>
    <v>       0.16666894       0.00000000       0.50000000 </v>
    <v>       0.16666893       0.16666893       0.33333107 </v>
    <v>       0.33333107       0.00000000       0.33333107 </v>
    <v>       0.33333107       0.16666893       0.50000000 </v>
    <v>       0.50000000       0.00000000       0.50000000 </v>
    <v>       0.50000000       0.16666893       0.33333107 </v>
    <v>       0.66666896       0.00000000       0.33333107 </v>
    <v>       0.66666896       0.16666893       0.50000000 </v>
    <v>       0.83333103       0.00000000       0.50000000 </v>
    <v>       0.83333104       0.16666893       0.33333107 </v>
    <v>       0.00000000       0.33333107       0.33333107 </v>
    <v>       0.00000000       0.50000000       0.50000000 </v>
    <v>       0.16666893       0.33333107       0.50000000 </v>
    <v>       0.16666893       0.50000000       0.33333107 </v>
    <v>       0.33333107       0.33333107       0.33333107 </v>
    <v>       0.33333106       0.50000000       0.50000000 </v>
    <v>       0.50000000       0.33333106       0.50000000 </v>
    <v>       0.50000000       0.50000000       0.33333106 </v>
    <v>       0.66666896       0.33333107       0.33333107 </v>
    <v>       0.66666897       0.50000000       0.50000000 </v>
    <v>       0.83333104       0.33333107       0.50000000 </v>
    <v>       0.83333104       0.50000000       0.33333107 </v>
    <v>       0.00000000       0.66666896       0.33333107 </v>
    <v>       0.00000000       0.83333103       0.50000000 </v>
    <v>       0.16666893       0.66666896       0.50000000 </v>
    <v>       0.16666893       0.83333104       0.33333107 </v>
    <v>       0.33333107       0.66666896       0.33333107 </v>
    <v>       0.33333107       0.83333104       0.50000000 </v>
    <v>       0.50000000       0.66666897       0.50000000 </v>
    <v>       0.50000000       0.83333104       0.33333107 </v>
    <v>       0.66666896       0.66666896       0.33333107 </v>
    <v>       0.66666896       0.83333104       0.50000000 </v>
    <v>       0.83333104       0.66666896       0.50000000 </v>
    <v>       0.83333104       0.83333104       0.33333107 </v>
    <v>       0.00000000       0.00000000       0.66666897 </v>
    <v>       0.00000000       0.16666893       0.83333104 </v>
    <v>       0.16666893       0.00000000       0.83333104 </v>
    <v>       0.16666893       0.16666893       0.66666896 </v>
    <v>       0.33333107       0.00000000       0.66666896 </v>
    <v>       0.33333107       0.16666893       0.83333104 </v>
    <v>       0.50000000       0.00000000       0.83333103 </v>
    <v>       0.50000000       0.16666893       0.66666896 </v>
    <v>       0.66666896       0.00000000       0.66666896 </v>
    <v>       0.66666896       0.16666893       0.83333104 </v>
    <v>       0.83333104       0.00000000       0.83333104 </v>
    <v>       0.83333104       0.16666893       0.66666896 </v>
    <v>       0.00000000       0.33333107       0.66666896 </v>
    <v>       0.00000000       0.50000000       0.83333103 </v>
    <v>       0.16666893       0.33333107       0.83333104 </v>
    <v>       0.16666893       0.50000000       0.66666896 </v>
    <v>       0.33333107       0.33333107       0.66666896 </v>
    <v>       0.33333107       0.50000000       0.83333104 </v>
    <v>       0.50000000       0.33333107       0.83333104 </v>
    <v>       0.50000000       0.50000000       0.66666897 </v>
    <v>       0.66666896       0.33333107       0.66666896 </v>
    <v>       0.66666896       0.50000000       0.83333104 </v>
    <v>       0.83333104       0.33333107       0.83333104 </v>
    <v>       0.83333104       0.50000000       0.66666896 </v>
    <v>       0.00000000       0.66666896       0.66666896 </v>
    <v>       0.00000000       0.83333104       0.83333104 </v>
    <v>       0.16666893       0.66666896       0.83333104 </v>
    <v>       0.16666893       0.83333104       0.66666896 </v>
    <v>       0.33333107       0.66666896       0.66666896 </v>
    <v>       0.33333107       0.83333104       0.83333104 </v>
    <v>       0.50000000       0.66666896       0.83333104 </v>
    <v>       0.50000000       0.83333104       0.66666896 </v>
    <v>       0.66666896       0.66666896       0.66666896 </v>
    <v>       0.66666896       0.83333104       0.83333104 </v>
    <v>       0.83333104       0.66666896       0.83333104 </v>
    <v>       0.83333104       0.83333104       0.66666896 </v>
   </varray>
  </structure>
  <varray name="forces" >
   <v>       0.00000000      -0.00000000      -0.00000000 </v>
   <v>      -0.00000000      -0.00000000      -0.00000000 </v>
   <v>      -0.00000000       0.00000000      -0.00000000 </v>
   <v>       0.00000000       0.00000000      -0.00000000 </v>
   <v>      -0.00000000      -0.00000000       0.00000000 </v>
   <v>      -0.00000000      -0.00000000      -0.00000000 </v>
   <v>       0.00000000      -0.00000000       0.00000000 </v>
   <v>       0.00000000      -0.00000000       0.00000000 </v>
   <v>      -0.00000000      -0.00000000       0.00000000 </v>
   <v>       0.00000000       0.00000000      -0.00000000 </v>
   <v>       0.00000000      -0.00000000       0.00000000 </v>
   <v>      -0.00000000       0.00000000      -0.00000000 </v>
   <v>       0.00000000      -0.00000000      -0.00000000 </v>
   <v>      -0.00000000       0.00000000       0.00000000 </v>
   <v>       0.00000000      -0.00000000      -0.00000000 </v>
   <v>       0.00000000       0.00000000      -0.00000000 </v>
   <v>       0.00000000      -0.00000000       0.00000000 </v>
   <v>       0.00000000      -0.00000000       0.00000000 </v>
   <v>       0.00000000       0.00000000       0.00000000 </v>
   <v>       0.00000000       0.00000000       0.00000000 </v>
   <v>      -0.00000000       0.00000000      -0.00000000 </v>
   <v>       0.00000000       0.00000000       0.00000000 </v>
   <v>      -0.00000000       0.00000000       0.00000000 </v>
   <v>       0.00000000       0.00000000      -0.00000000 </v>
   <v>      -0.00000000      -0.00000000      -0.00000000 </v>
   <v>       0.00000000       0.00000000       0.00000000 </v>
   <v>       0.00000000       0.00000000      -0.00000000 </v>
   <v>      -0.00000000       0.00000000      -0.00000000 </v>
   <v>      -0.00000000       0.00000000      -0.00000000 </v>
   <v>      -0.00000000       0.00000000      -0.00000000 </v>
   <v>       0.00000000      -0.00000000       0.00000000 </v>
   <v>      -0.00000000      -0.00000000       0.00000000 </v>
   <v>      -0.00000000       0.00000000      -0.00000000 </v>
   <v>      -0.00000000       0.00000000      -0.00000000 </v>
   <v>      -0.00000000      -0.00000000       0.00000000 </v>
   <v>       0.00000000       0.00000000       0.00000000 </v>
   <v>      -0.00000000       0.00000000       0.00000000 </v>
   <v>       0.00000000      -0.00000000      -0.00000000 </v>
   <v>      -0.00000000       0.00000000      -0.00000000 </v>
   <v>      -0.00000000       0.00000000       0.00000000 </v>
   <v>       0.00000000      -0.00000000      -0.00000000 </v>
   <v>       0.00000000      -0.00000000       0.00000000 </v>
   <v>       0.00000000      -0.00000000       0.00000000 </v>
   <v>       0.00000000       0.00000000      -0.00000000 </v>
   <v>      -0.00000000       0.00000000      -0.00000000 </v>
   <v>       0.00000000      -0.00000000      -0.00000000 </v>
   <v>      -0.00000000      -0.00000000       0.00000000 </v>
   <v>      -0.00000000       0.00000000      -0.00000000 </v>
   <v>       0.00000000       0.00000000      -0.00000000 </v>
   <v>      -0.00000000      -0.00000000       0.00000000 </v>
   <v>       0.00000000       0.00000000      -0.00000000 </v>
   <v>       0.00000000       0.00000000       0.00000000 </v>
   <v>       0.00000000      -0.00000000      -0.00000000 </v>
   <v>       0.00000000      -0.00000000       0.00000000 </v>
   <v>      -0.00000000       0.00000000      -0.00000000 </v>
   <v>      -0.00000000      -0.00000000      -0.00000000 </v>
   <v>      -0.00000000      -0.00000000       0.00000000 </v>
   <v>      -0.00000000       0.00000000       0.00000000 </v>
   <v>       0.00000000      -0.00000000      -0.00000000 </v>
   <v>      -0.00000000      -0.00000000       0.00000000 </v>
   <v>       0.00000000      -0.00000000       0.00000000 </v>
   <v>       0.00000000       0.00000000       0.00000000 </v>
   <v>      -0.00000000       0.00000000      -0.00000000 </v>
   <v>      -0.00000000      -0.00000000       0.00000000 </v>
   <v>      -0.00000000      -0.00000000       0.00000000 </v>
   <v>       0.00000000       0.00000000      -0.00000000 </v>
   <v>      -0.00000000      -0.00000000       0.00000000 </v>
   <v>      -0.00000000      -0.00000000      -0.00000000 </v>
   <v>       0.00000000      -0.00000000      -0.00000000 </v>
   <v>       0.00000000       0.00000000       0.00000000 </v>
   <v>      -0.00000000      -0.00000000      -0.00000000 </v>
   <v>       0.00000000       0.00000000       0.00000000 </v>
   <v>       0.00000000       0.00000000       0.00000000 </v>
   <v>       0.00000000      -0.00000000       0.00000000 </v>
   <v>      -0.00000000       0.00000000       0.00000000 </v>
   <v>       0.00000000       0.00000000       0.00000000 </v>
   <v>       0.00000000      -0.00000000      -0.00000000 </v>
   <v>      -0.00000000      -0.00000000       0.00000000 </v>
   <v>       0.00000000      -0.00000000      -0.00000000 </v>
   <v>       0.00000000      -0.00000000       0.00000000 </v>
   <v>       0.00000000      -0.00000000       0.00000000 </v>
   <v>      -0.00000000       0.00000000       0.00000000 </v>
   <v>       0.00000000      -0.00000000      -0.00000000 </v>
   <v>      -0.00000000      -0.00000000      -0.00000000 </v>
   <v>       0.00000000      -0.00000000      -0.00000000 </v>
   <v>       0.00000000      -0.00000000      -0.00000000 </v>
   <v>      -0.00000000      -0.00000000       0.00000000 </v>
   <v>      -0.00000000       0.00000000       0.00000000 </v>
   <v>      -0.00000000      -0.00000000       0.00000000 </v>
   <v>       0.00000000       0.00000000      -0.00000000 </v>
   <v>      -0.00000000       0.00000000       0.00000000 </v>
   <v>       0.00000000      -0.00000000       0.00000000 </v>
   <v>       0.00000000      -0.00000000       0.00000000 </v>
   <v>      -0.00000000      -0.00000000      -0.00000000 </v>
   <v>       0.00000000       0.00000000      -0.00000000 </v>
   <v>      -0.00000000       0.00000000       0.00000000 </v>
   <v>       0.00000000       0.00000000      -0.00000000 </v>
   <v>       0.00000000       0.00000000      -0.00000000 </v>
   <v>       0.00000000       0.00000000       0.00000000 </v>
   <v>       0.00000000       0.00000000      -0.00000000 </v>
   <v>       0.00000000       0.00000000      -0.00000000 </v>
   <v>       0.00000000      -0.00000000       0.00000000 </v>
   <v>       0.00000000      -0.00000000       0.00000000 </v>
   <v>      -0.00000000      -0.00000000       0.00000000 </v>
   <v>      -0.00000000      -0.00000000      -0.00000000 </v>
   <v>       0.00000000      -0.00000000      -0.00000000 </v>
   <v>      -0.00000000      -0.00000000      -0.00000000 </v>
   <v>       0.00000000       0.00000000       0.00000000 </v>
  </varray>
  <varray name="stress" >
   <v>      -0.43665447      -0.00000000       0.00000000 </v>
   <v>      -0.00000000      -0.43665447       0.00000000 </v>
   <v>      -0.00000000      -0.00000000      -0.43665447 </v>
  </varray>
  <energy>
   <i name="e_fr_energy">   -879.54789942 </i>
   <i name="e_wo_entrp">   -879.56284260 </i>
   <i name="e_0_energy">      0.04482954 </i>
  </energy>
  <time name="totalsc"> 3186.80 3187.75</time>
  <eigenvalues>
   <array>
    <dimension dim="1">band</dimension>
    <dimension dim="2">kpoint</dimension>
    <dimension dim="3">spin</dimension>
    <field>eigene</field>
    <field>occ</field>
    <set>
     <set comment="spin 1">
      <set comment="kpoint 1">
       <r>   -2.0005    1.0000 </r>
       <r>   -0.5089    1.0000 </r>
       <r>   -0.5089    1.0000 </r>
       <r>   -0.5089    1.0000 </r>
       <r>   -0.5078    1.0000 </r>
       <r>   -0.5078    1.0000 </r>
       <r>   -0.5078    1.0000 </r>
       <r>    0.7821    1.0000 </r>
       <r>    0.7821    1.0000 </r>
       <r>    0.7821    1.0000 </r>
       <r>    0.7831    1.0000 </r>
       <r>    0.7831    1.0000 </r>
       <r>    0.7831    1.0000 </r>
       <r>    0.7831    1.0000 </r>
       <r>    0.7831    1.0000 </r>
       <r>    0.7831    1.0000 </r>
       <r>    0.7841    1.0000 </r>
       <r>    0.7841    1.0000 </r>
       <r>    0.7841    1.0000 </r>
       <r>    1.4217    1.0000 </r>
       <r>    1.4223    1.0000 </r>
       <r>    1.4223    1.0000 </r>
       <r>    1.4223    1.0000 </r>
       <r>    1.4230    1.0000 </r>
       <r>    1.4230    1.0000 </r>
       <r>    1.4230    1.0000 </r>
       <r>    1.4237    1.0000 </r>
       <r>    1.8666    1.0000 </r>
       <r>    1.8666    1.0000 </r>
       <r>    1.8666    1.0000 </r>
       <r>    1.8989    1.0000 </r>
       <r>    1.8989    1.0000 </r>
       <r>    1.8989    1.0000 </r>
       <r>    1.8995    1.0000 </r>
       <r>    1.8995    1.0000 </r>
       <r>    1.8995    1.0000 </r>
       <r>    2.5939    1.0000 </r>
       <r>    2.5939    1.0000 </r>
       <r>    2.5939    1.0000 </r>
       <r>    2.5939    1.0000 </r>
       <r>    2.5939    1.0000 </r>
       <r>    2.5939    1.0000 </r>
       <r>    2.5939    1.0000 </r>
       <r>    2.5939    1.0000 </r>
       <r>    2.5939    1.0000 </r>
       <r>    2.5939    1.0000 </r>
       <r>    2.5939    1.0000 </r>
       <r>    2.5939    1.0000 </r>
       <r>    2.5941    1.0000 </r>
       <r>    2.5941    1.0000 </r>
       <r>    2.5941    1.0000 </r>
       <r>    2.5941    1.0000 </r>
       <r>    2.5941    1.0000 </r>
       <r>    2.5941    1.0000 </r>
       <r>    2.5941    1.0000 </r>
       <r>    2.5941    1.0000 </r>
       <r>    2.5941    1.0000 </r>
       <r>    2.5941    1.0000 </r>
       <r>    2.5941    1.0000 </r>
       <r>    2.5941    1.0000 </r>
       <r>    2.6085    1.0000 </r>
       <r>    2.6085    1.0000 </r>
       <r>    2.6085    1.0000 </r>
       <r>    2.6682    1.0000 </r>
       <r>    2.6682    1.0000 </r>
       <r>    2.6682    1.0000 </r>
       <r>    2.6682    1.0000 </r>
       <r>    2.6682    1.0000 </r>
       <r>    2.6682    1.0000 </r>
       <r>    2.6692    1.0000 </r>
       <r>    2.6692    1.0000 </r>
       <r>    2.6692    1.0000 </r>
       <r>    2.6692    1.0000 </r>
       <r>    2.6692    1.0000 </r>
       <r>    2.6692    1.0000 </r>
       <r>    2.8820    1.0000 </r>
       <r>    2.8820    1.0000 </r>
       <r>    2.8820    1.0000 </r>
       <r>    2.8820    1.0000 </r>
       <r>    2.8820    1.0000 </r>
       <r>    2.8820    1.0000 </r>
       <r>    2.8825    1.0000 </r>
       <r>    2.8825    1.0000 </r>
       <r>    2.8825    1.0000 </r>
       <r>    2.8825    1.0000 </r>
       <r>    2.8825    1.0000 </r>
       <r>    2.8825    1.0000 </r>
       <r>    2.8830    1.0000 </r>
       <r>    2.8830    1.0000 </r>
       <r>    2.8830    1.0000 </r>
       <r>    2.8830    1.0000 </r>
       <r>    2.8830    1.0000 </r>
       <r>    2.8830    1.0000 </r>
       <r>    2.8835    1.0000 </r>
       <r>    2.8835    1.0000 </r>
       <r>    2.8835    1.0000 </r>
       <r>    2.8835    1.0000 </r>
       <r>    2.8835    1.0000 </r>
       <r>    2.8835    1.0000 </r>
       <r>    3.1869    1.0000 </r>
       <r>    3.1869    1.0000 </r>
       <r>    3.1869    1.0000 </r>
       <r>    3.1879    1.0000 </r>
       <r>    3.1879    1.0000 </r>
       <r>    3.1879    1.0000 </r>
       <r>    3.3145    1.0000 </r>
       <r>    3.3145    1.0000 </r>
       <r>    3.3145    1.0000 </r>
       <r>    3.3146    1.0000 </r>
       <r>    3.3146    1.0000 </r>
       <r>    3.3146    1.0000 </r>
       <r>    3.3146    1.0000 </r>
       <r>    3.3146    1.0000 </r>
       <r>    3.3146    1.0000 </r>
       <r>    3.3147    1.0000 </r>
       <r>    3.3147    1.0000 </r>
       <r>    3.3147    1.0000 </r>
       <r>    3.3245    1.0000 </r>
       <r>    3.3245    1.0000 </r>
       <r>    3.3245    1.0000 </r>
       <r>    3.3245    1.0000 </r>
       <r>    3.3245    1.0000 </r>
       <r>    3.3245    1.0000 </r>
       <r>    3.3254    1.0000 </r>
       <r>    3.3254    1.0000 </r>
       <r>    3.3254    1.0000 </r>
       <r>    3.3254    1.0000 </r>
       <r>    3.3254    1.0000 </r>
       <r>    3.3254    1.0000 </r>
       <r>    3.5711    1.0000 </r>
       <r>    3.5711    1.0000 </r>
       <r>    3.5711    1.0000 </r>
       <r>    3.5711    1.0000 </r>
       <r>    3.5711    1.0000 </r>
       <r>    3.5711    1.0000 </r>
       <r>    3.5711    1.0000 </r>
       <r>    3.5711    1.0000 </r>
       <r>    3.5711    1.0000 </r>
       <r>    3.5712    1.0000 </r>
       <r>    3.5712    1.0000 </r>
       <r>    3.5712    1.0000 </r>
       <r>    3.6939    1.0000 </r>
       <r>    3.6939    1.0000 </r>
       <r>    3.6939    1.0000 </r>
       <r>    3.6939    1.0000 </r>
       <r>    3.6939    1.0000 </r>
       <r>    3.6939    1.0000 </r>
       <r>    3.6947    1.0000 </r>
       <r>    3.6947    1.0000 </r>
       <r>    3.6947    1.0000 </r>
       <r>    3.6947    1.0000 </r>
       <r>    3.6947    1.0000 </r>
       <r>    3.6947    1.0000 </r>
       <r>    3.6948    1.0000 </r>
       <r>    3.6948    1.0000 </r>
       <r>    3.6948    1.0000 </r>
       <r>    3.6948    1.0000 </r>
       <r>    3.6948    1.0000 </r>
       <r>    3.6948    1.0000 </r>
       <r>    3.6957    1.0000 </r>
       <r>    3.6957    1.0000 </r>
       <r>    3.6957    1.0000 </r>
       <r>    3.6957    1.0000 </r>
       <r>    3.6957    1.0000 </r>
       <r>    3.6957    1.0000 </r>
       <r>    4.3000    1.0000 </r>
       <r>    4.3000    1.0000 </r>
       <r>    4.3000    1.0000 </r>
       <r>    4.3008    1.0000 </r>
       <r>    4.3008    1.0000 </r>
       <r>    4.3008    1.0000 </r>
       <r>    4.3008    1.0000 </r>
       <r>    4.3008    1.0000 </r>
       <r>    4.3008    1.0000 </r>
       <r>    4.3009    1.0000 </r>
       <r>    4.3009    1.0000 </r>
       <r>    4.3009    1.0000 </r>
       <r>    4.3016    1.0000 </r>
       <r>    4.3016    1.0000 </r>
       <r>    4.3016    1.0000 </r>
       <r>    4.3017    1.0000 </r>
       <r>    4.3017    1.0000 </r>
       <r>    4.3017    1.0000 </r>
       <r>    4.3017    1.0000 </r>
       <r>    4.3017    1.0000 </r>
       <r>    4.3017    1.0000 </r>
       <r>    4.3025    1.0000 </r>
       <r>    4.3025    1.0000 </r>
       <r>    4.3025    1.0000 </r>
       <r>    4.3518    1.0000 </r>
       <r>    4.3518    1.0000 </r>
       <r>    4.3518    1.0000 </r>
       <r>    4.3520    1.0000 </r>
       <r>    4.3520    1.0000 </r>
       <r>    4.3520    1.0000 </r>
       <r>    4.3520    1.0000 </r>
       <r>    4.3520    1.0000 </r>
       <r>    4.3520    1.0000 </r>
       <r>    4.3521    1.0000 </r>
       <r>    4.3521    1.0000 </r>
       <r>    4.3521    1.0000 </r>
       <r>    4.4651    1.0000 </r>
       <r>    4.4651    1.0000 </r>
       <r>    4.4651    1.0000 </r>
       <r>    4.4657    1.0000 </r>
       <r>    4.4657    1.0000 </r>
       <r>    4.4657    1.0000 </r>
       <r>    4.6421    1.0000 </r>
       <r>    4.6421    1.0000 </r>
       <r>    4.6421    1.0000 </r>
       <r>    4.6421    1.0000 </r>
       <r>    4.6421    1.0000 </r>
       <r>    4.6421    1.0000 </r>
       <r>    4.6422    1.0000 </r>
       <r>    4.6422    1.0000 </r>
       <r>    4.6422    1.0000 </r>
       <r>    4.6422    1.0000 </r>
       <r>    4.6422    1.0000 </r>
       <r>    4.6422    1.0000 </r>
       <r>    4.6422    1.0000 </r>
       <r>    4.6422    1.0000 </r>
       <r>    4.6422    1.0000 </r>
       <r>    4.6422    1.0000 </r>
       <r>    4.6422    1.0000 </r>
       <r>    4.6422    1.0000 </r>
       <r>    4.6423    1.0000 </r>
       <r>    4.6423    1.0000 </r>
       <r>    4.6423    1.0000 </r>
       <r>    4.6423    1.0000 </r>
       <r>    4.6423    1.0000 </r>
       <r>    4.6423    1.0000 </r>
       <r>    4.8753    1.0000 </r>
       <r>    4.8753    1.0000 </r>
       <r>    4.8753    1.0000 </r>
       <r>    4.8757    1.0000 </r>
       <r>    4.8757    1.0000 </r>
       <r>    4.8757    1.0000 </r>
       <r>    4.8757    1.0000 </r>
       <r>    4.8757    1.0000 </r>
       <r>    4.8757    1.0000 </r>
       <r>    4.8762    1.0000 </r>
       <r>    4.8762    1.0000 </r>
       <r>    4.8762    1.0000 </r>
       <r>    5.0408    1.0000 </r>
       <r>    5.0408    1.0000 </r>
       <r>    5.0408    1.0000 </r>
       <r>    5.0408    1.0000 </r>
       <r>    5.0408    1.0000 </r>
       <r>    5.0408    1.0000 </r>
       <r>    5.0408    1.0000 </r>
       <r>    5.0408    1.0000 </r>
       <r>    5.1785    1.0000 </r>
       <r>    5.1785    1.0000 </r>
       <r>    5.1785    1.0000 </r>
       <r>    5.2312    1.0000 </r>
       <r>    5.2312    1.0000 </r>
       <r>    5.2312    1.0000 </r>
       <r>    5.2314    1.0000 </r>
       <r>    5.2314    1.0000 </r>
       <r>    5.2314    1.0000 </r>
       <r>    5.2314    1.0000 </r>
       <r>    5.2314    1.0000 </r>
       <r>    5.2314    1.0000 </r>
       <r>    5.2314    1.0000 </r>
       <r>    5.2314    1.0000 </r>
       <r>    5.2314    1.0000 </r>
       <r>    5.2316    1.0000 </r>
       <r>    5.2316    1.0000 </r>
       <r>    5.2316    1.0000 </r>
       <r>    5.2316    1.0000 </r>
       <r>    5.2316    1.0000 </r>
       <r>    5.2316    1.0000 </r>
       <r>    5.2316    1.0000 </r>
       <r>    5.2316    1.0000 </r>
       <r>    5.2316    1.0000 </r>
       <r>    5.2318    1.0000 </r>
       <r>    5.2318    1.0000 </r>
       <r>    5.2318    1.0000 </r>
       <r>    5.3035    1.0000 </r>
       <r>    5.3035    1.0000 </r>
       <r>    5.3035    1.0000 </r>
       <r>    5.3035    1.0000 </r>
       <r>    5.3035    1.0000 </r>
       <r>    5.3037    1.0000 </r>
       <r>    5.3037    1.0000 </r>
       <r>    5.3037    1.0000 </r>
       <r>    5.3039    1.0000 </r>
       <r>    5.3039    1.0000 </r>
       <r>    5.3039    1.0000 </r>
       <r>    5.3041    1.0000 </r>
       <r>    5.3041    1.0000 </r>
       <r>    5.3041    1.0000 </r>
       <r>    5.3042    1.0000 </r>
       <r>    5.3042    1.0000 </r>
       <r>    5.3282    1.0000 </r>
       <r>    5.3282    1.0000 </r>
       <r>    5.3282    1.0000 </r>
       <r>    5.3284    1.0000 </r>
       <r>    5.3284    1.0000 </r>
       <r>    5.3284    1.0000 </r>
       <r>    5.3284    1.0000 </r>
       <r>    5.3284    1.0000 </r>
       <r>    5.3284    1.0000 </r>
       <r>    5.3285    1.0000 </r>
       <r>    5.3285    1.0000 </r>
       <r>    5.3285    1.0000 </r>
       <r>    5.4430    1.0000 </r>
       <r>    5.4430    1.0000 </r>
       <r>    5.4430    1.0000 </r>
       <r>    5.4430    1.0000 </r>
       <r>    5.4430    1.0000 </r>
       <r>    5.4430    1.0000 </r>
       <r>    5.4431    1.0000 </r>
       <r>    5.4431    1.0000 </r>
       <r>    5.4431    1.0000 </r>
       <r>    5.4431    1.0000 </r>
       <r>    5.4431    1.0000 </r>
       <r>    5.4431    1.0000 </r>
       <r>    5.6815    1.0000 </r>
       <r>    5.6815    1.0000 </r>
       <r>    5.6815    1.0000 </r>
       <r>    5.6817    1.0000 </r>
       <r>    5.6817    1.0000 </r>
       <r>    5.6817    1.0000 </r>
       <r>    5.6819    1.0000 </r>
       <r>    5.6819    1.0000 </r>
       <r>    5.6819    1.0000 </r>
       <r>    5.6819    1.0000 </r>
       <r>    5.6819    1.0000 </r>
       <r>    5.6819    1.0000 </r>
       <r>    5.6822    1.0000 </r>
       <r>    5.6822    1.0000 </r>
       <r>    5.6822    1.0000 </r>
       <r>    5.6822    1.0000 </r>
       <r>    5.6822    1.0000 </r>
       <r>    5.6822    1.0000 </r>
       <r>    5.6824    1.0000 </r>
       <r>    5.6824    1.0000 </r>
       <r>    5.6824    1.0000 </r>
       <r>    5.6827    1.0000 </r>
       <r>    5.6827    1.0000 </r>
       <r>    5.6827    1.0000 </r>
       <r>    5.7422    1.0000 </r>
       <r>    5.7422    1.0000 </r>
       <r>    5.7422    1.0000 </r>
       <r>    5.7422    1.0000 </r>
       <r>    5.7422    1.0000 </r>
       <r>    5.7422    1.0000 </r>
       <r>    5.7431    1.0000 </r>
       <r>    5.7431    1.0000 </r>
       <r>    5.7431    1.0000 </r>
       <r>    5.7431    1.0000 </r>
       <r>    5.7431    1.0000 </r>
       <r>    5.7431    1.0000 </r>
       <r>    5.9506    1.0000 </r>
       <r>    5.9506    1.0000 </r>
       <r>    5.9506    1.0000 </r>
       <r>    5.9507    1.0000 </r>
       <r>    5.9507    1.0000 </r>
       <r>    5.9507    1.0000 </r>
       <r>    5.9507    1.0000 </r>
       <r>    5.9507    1.0000 </r>
       <r>    5.9507    1.0000 </r>
       <r>    5.9508    1.0000 </r>
       <r>    5.9508    1.0000 </r>
       <r>    5.9508    1.0000 </r>
       <r>    6.1115    1.0000 </r>
       <r>    6.1115    1.0000 </r>
       <r>    6.1115    1.0000 </r>
       <r>    6.1120    1.0000 </r>
       <r>    6.1120    1.0000 </r>
       <r>    6.1120    1.0000 </r>
       <r>    6.1264    1.0000 </r>
       <r>    6.1264    1.0000 </r>
       <r>    6.1264    1.0000 </r>
       <r>    6.1271    1.0000 </r>
       <r>    6.1271    1.0000 </r>
       <r>    6.1271    1.0000 </r>
       <r>    6.1271    1.0000 </r>
       <r>    6.1271    1.0000 </r>
       <r>    6.1271    1.0000 </r>
       <r>    6.1278    1.0000 </r>
       <r>    6.1278    1.0000 </r>
       <r>    6.1278    1.0000 </r>
       <r>    6.5346    1.0328 </r>
       <r>    6.5346    1.0328 </r>
       <r>    6.5346    1.0328 </r>
       <r>    6.5353    1.0329 </r>
       <r>    6.5353    1.0329 </r>
       <r>    6.5353    1.0329 </r>
       <r>    6.5353    1.0329 </r>
       <r>    6.5353    1.0329 </r>
       <r>    6.5353    1.0329 </r>
       <r>    6.5360    1.0330 </r>
       <r>    6.5360    1.0330 </r>
       <r>    6.5360    1.0330 </r>
       <r>    6.6198    1.0182 </r>
       <r>    6.6198    1.0182 </r>
       <r>    6.6198    1.0182 </r>
       <r>    6.6198    1.0182 </r>
       <r>    6.6198    1.0182 </r>
       <r>    6.6198    1.0182 </r>
       <r>    6.7378    0.7794 </r>
       <r>    6.7378    0.7794 </r>
       <r>    6.7378    0.7794 </r>
       <r>    6.7378    0.7794 </r>
       <r>    6.7378    0.7794 </r>
       <r>    6.7378    0.7794 </r>
       <r>    6.7385    0.7771 </r>
       <r>    6.7385    0.7771 </r>
       <r>    6.7385    0.7771 </r>
       <r>    6.7385    0.7771 </r>
       <r>    6.7385    0.7771 </r>
       <r>    6.7385    0.7771 </r>
       <r>    6.7385    0.7771 </r>
       <r>    6.7385    0.7771 </r>
       <r>    6.7385    0.7771 </r>
       <r>    6.7385    0.7771 </r>
       <r>    6.7385    0.7771 </r>
       <r>    6.7385    0.7771 </r>
       <r>    6.7386    0.7769 </r>
       <r>    6.7386    0.7769 </r>
       <r>    6.7392    0.7747 </r>
       <r>    6.7392    0.7747 </r>
       <r>    6.7392    0.7747 </r>
       <r>    6.7392    0.7747 </r>
       <r>    6.7392    0.7747 </r>
       <r>    6.7392    0.7747 </r>
       <r>    6.9594    0.0226 </r>
       <r>    6.9594    0.0226 </r>
       <r>    6.9594    0.0226 </r>
       <r>    6.9594    0.0226 </r>
       <r>    6.9594    0.0226 </r>
       <r>    6.9594    0.0226 </r>
       <r>    6.9600    0.0217 </r>
       <r>    6.9600    0.0217 </r>
       <r>    6.9600    0.0217 </r>
       <r>    6.9600    0.0217 </r>
       <r>    6.9600    0.0217 </r>
       <r>    6.9600    0.0217 </r>
       <r>    6.9886   -0.0114 </r>
       <r>    6.9886   -0.0114 </r>
       <r>    6.9886   -0.0114 </r>
       <r>    6.9895   -0.0123 </r>
       <r>    6.9895   -0.0123 </r>
       <r>    6.9895   -0.0123 </r>
       <r>    7.1477   -0.0187 </r>
       <r>    7.1477   -0.0187 </r>
       <r>    7.1477   -0.0187 </r>
       <r>    7.1477   -0.0187 </r>
       <r>    7.1477   -0.0187 </r>
       <r>    7.1477   -0.0187 </r>
       <r>    7.1483   -0.0186 </r>
       <r>    7.1483   -0.0186 </r>
       <r>    7.1483   -0.0186 </r>
       <r>    7.1483   -0.0186 </r>
       <r>    7.1483   -0.0186 </r>
       <r>    7.1483   -0.0186 </r>
       <r>    7.1496   -0.0183 </r>
       <r>    7.1496   -0.0183 </r>
       <r>    7.1496   -0.0183 </r>
       <r>    7.1496   -0.0183 </r>
       <r>    7.1496   -0.0183 </r>
       <r>    7.1496   -0.0183 </r>
       <r>    7.1500   -0.0182 </r>
       <r>    7.1500   -0.0182 </r>
       <r>    7.1500   -0.0182 </r>
       <r>    7.1500   -0.0182 </r>
       <r>    7.1500   -0.0182 </r>
       <r>    7.1500   -0.0182 </r>
       <r>    7.1502   -0.0182 </r>
       <r>    7.1502   -0.0182 </r>
       <r>    7.1502   -0.0182 </r>
       <r>    7.1502   -0.0182 </r>
       <r>    7.1502   -0.0182 </r>
       <r>    7.1502   -0.0182 </r>
       <r>    7.1507   -0.0181 </r>
       <r>    7.1507   -0.0181 </r>
[...]
       <r>    -1.7776     2.8076     0.4410 </r>
       <r>    -1.7303     3.2596     0.5952 </r>
       <r>    -1.6831     3.6000     0.7655 </r>
       <r>    -1.6358     3.8040     0.9454 </r>
       <r>    -1.5885     3.9270     1.1311 </r>
       <r>    -1.5412     4.0888     1.3245 </r>
       <r>    -1.4939     4.3860     1.5319 </r>
       <r>    -1.4466     4.8096     1.7594 </r>
       <r>    -1.3993     5.2509     2.0077 </r>
       <r>    -1.3520     5.5922     2.2722 </r>
       <r>    -1.3047     5.7901     2.5461 </r>
       <r>    -1.2574     5.8745     2.8239 </r>
       <r>    -1.2101     5.8899     3.1025 </r>
       <r>    -1.1628     5.8680     3.3800 </r>
       <r>    -1.1155     5.8630     3.6573 </r>
       <r>    -1.0682     5.9839     3.9403 </r>
       <r>    -1.0209     6.3450     4.2404 </r>
       <r>    -0.9736     6.9616     4.5696 </r>
       <r>    -0.9263     7.6974     4.9337 </r>
       <r>    -0.8790     8.3229     5.3273 </r>
       <r>    -0.8317     8.6306     5.7355 </r>
       <r>    -0.7844     8.5236     6.1386 </r>
       <r>    -0.7371     8.0551     6.5196 </r>
       <r>    -0.6898     7.4383     6.8714 </r>
       <r>    -0.6426     7.0078     7.2029 </r>
       <r>    -0.5953     7.0874     7.5381 </r>
       <r>    -0.5480     7.8014     7.9070 </r>
       <r>    -0.5007     8.9666     8.3311 </r>
       <r>    -0.4534    10.1762     8.8124 </r>
       <r>    -0.4061    11.0229     9.3337 </r>
       <r>    -0.3588    11.2892     9.8677 </r>
       <r>    -0.3115    10.9960    10.3877 </r>
       <r>    -0.2642    10.3494    10.8772 </r>
       <r>    -0.2169     9.6677    11.3344 </r>
       <r>    -0.1696     9.2955    11.7741 </r>
       <r>    -0.1223     9.4648    12.2217 </r>
       <r>    -0.0750    10.1557    12.7020 </r>
       <r>    -0.0277    11.0801    13.2261 </r>
       <r>     0.0196    11.8488    13.7865 </r>
       <r>     0.0669    12.2155    14.3642 </r>
       <r>     0.1142    12.2216    14.9422 </r>
       <r>     0.1615    12.1478    15.5168 </r>
       <r>     0.2088    12.3156    16.0992 </r>
       <r>     0.2561    12.8699    16.7079 </r>
       <r>     0.3034    13.6768    17.3548 </r>
       <r>     0.3507    14.4067    18.0362 </r>
       <r>     0.3979    14.7479    18.7337 </r>
       <r>     0.4452    14.6001    19.4242 </r>
       <r>     0.4925    14.1146    20.0917 </r>
       <r>     0.5398    13.5825    20.7341 </r>
       <r>     0.5871    13.2822    21.3623 </r>
       <r>     0.6344    13.3942    21.9958 </r>
       <r>     0.6817    14.0044    22.6582 </r>
       <r>     0.7290    15.1298    23.3737 </r>
       <r>     0.7763    16.6875    24.1630 </r>
       <r>     0.8236    18.4091    25.0336 </r>
       <r>     0.8709    19.8181    25.9709 </r>
       <r>     0.9182    20.4022    26.9359 </r>
       <r>     0.9655    19.9324    27.8786 </r>
       <r>     1.0128    18.6848    28.7623 </r>
       <r>     1.0601    17.3502    29.5829 </r>
       <r>     1.1074    16.6800    30.3718 </r>
       <r>     1.1547    17.1303    31.1820 </r>
       <r>     1.2020    18.7182    32.0672 </r>
       <r>     1.2493    21.0913    33.0648 </r>
       <r>     1.2966    23.6830    34.1849 </r>
       <r>     1.3439    25.8572    35.4078 </r>
       <r>     1.3912    27.0564    36.6874 </r>
       <r>     1.4385    27.0026    37.9645 </r>
       <r>     1.4857    25.9148    39.1902 </r>
       <r>     1.5330    24.5794    40.3527 </r>
       <r>     1.5803    24.0998    41.4925 </r>
       <r>     1.6276    25.3699    42.6924 </r>
       <r>     1.6749    28.6017    44.0451 </r>
       <r>     1.7222    33.3025    45.6202 </r>
       <r>     1.7695    38.7800    47.4543 </r>
       <r>     1.8168    44.7834    49.5724 </r>
       <r>     1.8641    51.7188    52.0184 </r>
       <r>     1.9114    60.2099    54.8661 </r>
       <r>     1.9587    70.3541    58.1935 </r>
       <r>     2.0060    81.2948    62.0384 </r>
       <r>     2.0533    91.4720    66.3646 </r>
       <r>     2.1006    99.3775    71.0647 </r>
       <r>     2.1479   104.2838    75.9969 </r>
       <r>     2.1952   106.4727    81.0326 </r>
       <r>     2.2425   106.8688    86.0870 </r>
       <r>     2.2898   106.4162    91.1200 </r>
       <r>     2.3371   105.7138    96.1198 </r>
       <r>     2.3844   105.1473   101.0928 </r>
       <r>     2.4317   105.2348   106.0699 </r>
       <r>     2.4790   106.6698   111.1149 </r>
       <r>     2.5262   109.9004   116.3127 </r>
       <r>     2.5735   114.6681   121.7360 </r>
       <r>     2.6208   120.0786   127.4152 </r>
       <r>     2.6681   125.2800   133.3404 </r>
       <r>     2.7154   130.1666   139.4967 </r>
       <r>     2.7627   135.4049   145.9007 </r>
       <r>     2.8100   141.6637   152.6008 </r>
       <r>     2.8573   148.7362   159.6353 </r>
       <r>     2.9046   155.4503   166.9874 </r>
       <r>     2.9519   160.5477   174.5806 </r>
       <r>     2.9992   163.6846   182.3222 </r>
       <r>     3.0465   165.5089   190.1500 </r>
       <r>     3.0938   166.7480   198.0364 </r>
       <r>     3.1411   167.3546   205.9515 </r>
       <r>     3.1884   166.6700   213.8343 </r>
       <r>     3.2357   164.3308   221.6064 </r>
       <r>     3.2830   160.7927   229.2112 </r>
       <r>     3.3303   156.9116   236.6324 </r>
       <r>     3.3776   153.2457   243.8802 </r>
       <r>     3.4249   149.9960   250.9744 </r>
       <r>     3.4722   147.5088   257.9509 </r>
       <r>     3.5195   146.4208   264.8759 </r>
       <r>     3.5667   147.0047   271.8286 </r>
       <r>     3.6140   148.4394   278.8491 </r>
       <r>     3.6613   149.0143   285.8968 </r>
       <r>     3.7086   147.2828   292.8626 </r>
       <r>     3.7559   143.1368   299.6323 </r>
       <r>     3.8032   137.8559   306.1523 </r>
       <r>     3.8505   133.1642   312.4504 </r>
       <r>     3.8978   130.1110   318.6041 </r>
       <r>     3.9451   128.5863   324.6856 </r>
       <r>     3.9924   127.7268   330.7265 </r>
       <r>     4.0397   126.8391   336.7254 </r>
       <r>     4.0870   126.1123   342.6900 </r>
       <r>     4.1343   126.5767   348.6765 </r>
       <r>     4.1816   129.4057   354.7968 </r>
       <r>     4.2289   135.1759   361.1900 </r>
       <r>     4.2762   143.5700   367.9802 </r>
       <r>     4.3235   153.4679   375.2386 </r>
       <r>     4.3708   163.1745   382.9560 </r>
       <r>     4.4181   170.8280   391.0354 </r>
       <r>     4.4654   175.1513   399.3193 </r>
       <r>     4.5127   176.2396   407.6546 </r>
       <r>     4.5600   175.6380   415.9615 </r>
       <r>     4.6073   175.4056   424.2574 </r>
       <r>     4.6545   176.8725   432.6227 </r>
       <r>     4.7018   180.1465   441.1428 </r>
       <r>     4.7491   184.6256   449.8748 </r>
       <r>     4.7964   189.7989   458.8514 </r>
       <r>     4.8437   195.5497   468.1000 </r>
       <r>     4.8910   201.8588   477.6471 </r>
       <r>     4.9383   208.3608   487.5016 </r>
       <r>     4.9856   214.2248   497.6335 </r>
       <r>     5.0329   218.5368   507.9693 </r>
       <r>     5.0802   220.9772   518.4205 </r>
       <r>     5.1275   222.2777   528.9332 </r>
       <r>     5.1748   224.0388   539.5293 </r>
       <r>     5.2221   227.9878   550.3121 </r>
       <r>     5.2694   235.1257   561.4325 </r>
       <r>     5.3167   245.0996   573.0246 </r>
       <r>     5.3640   255.9138   585.1282 </r>
       <r>     5.4113   264.2012   597.6237 </r>
       <r>     5.4586   266.3360   610.2202 </r>
       <r>     5.5059   260.1400   622.5237 </r>
       <r>     5.5532   246.1683   634.1663 </r>
       <r>     5.6005   227.5417   644.9280 </r>
       <r>     5.6478   208.3356   654.7814 </r>
       <r>     5.6950   191.6890   663.8474 </r>
       <r>     5.7423   178.8854   672.3079 </r>
       <r>     5.7896   169.6624   680.3321 </r>
       <r>     5.8369   163.0449   688.0434 </r>
       <r>     5.8842   157.9859   695.5155 </r>
       <r>     5.9315   153.7014   702.7848 </r>
       <r>     5.9788   149.9040   709.8746 </r>
       <r>     6.0261   146.9538   716.8249 </r>
       <r>     6.0734   145.7655   723.7189 </r>
       <r>     6.1207   147.4268   730.6916 </r>
       <r>     6.1680   152.6630   737.9118 </r>
       <r>     6.2153   161.3373   745.5424 </r>
       <r>     6.2626   172.2592   753.6895 </r>
       <r>     6.3099   183.5887   762.3724 </r>
       <r>     6.3572   193.7553   771.5361 </r>
       <r>     6.4045   202.1906   781.0988 </r>
       <r>     6.4518   209.1057   790.9886 </r>
       <r>     6.4991   214.4525   801.1313 </r>
       <r>     6.5464   217.2120   811.4044 </r>
       <r>     6.5937   215.9766   821.6191 </r>
       <r>     6.6410   210.4251   831.5713 </r>
       <r>     6.6883   202.1984   841.1344 </r>
       <r>     6.7355   194.1417   850.3164 </r>
       <r>     6.7828   188.4497   859.2292 </r>
       <r>     6.8301   185.3039   867.9933 </r>
       <r>     6.8774   183.1397   876.6550 </r>
       <r>     6.9247   180.2469   885.1798 </r>
       <r>     6.9720   176.3145   893.5187 </r>
       <r>     7.0193   172.6703   901.6853 </r>
       <r>     7.0666   171.1056   909.7778 </r>
       <r>     7.1139   172.3461   917.9290 </r>
       <r>     7.1612   175.4550   926.2272 </r>
       <r>     7.2085   178.5989   934.6741 </r>
       <r>     7.2558   180.4875   943.2104 </r>
       <r>     7.3031   181.3266   951.7863 </r>
       <r>     7.3504   182.5763   960.4214 </r>
       <r>     7.3977   185.7050   969.2044 </r>
       <r>     7.4450   190.8277   978.2297 </r>
       <r>     7.4923   196.1528   987.5068 </r>
       <r>     7.5396   198.5185   996.8959 </r>
       <r>     7.5869   194.5318  1006.0964 </r>
       <r>     7.6342   181.6447  1014.6873 </r>
       <r>     7.6815   158.9468  1022.2048 </r>
       <r>     7.7288   127.7666  1028.2476 </r>
       <r>     7.7761    91.8710  1032.5927 </r>
       <r>     7.8233    56.7124  1035.2749 </r>
       <r>     7.8706    27.6136  1036.5809 </r>
       <r>     7.9179     7.7649  1036.9482 </r>
       <r>     7.9652    -2.7060  1036.8202 </r>
       <r>     8.0125    -6.0892  1036.5322 </r>
       <r>     8.0598    -5.5216  1036.2710 </r>
       <r>     8.1071    -3.5967  1036.1009 </r>
       <r>     8.1544    -1.7905  1036.0162 </r>
       <r>     8.2017    -0.6127  1035.9873 </r>
       <r>     8.2490    -0.0352  1035.9856 </r>
       <r>     8.2963     0.1489  1035.9926 </r>
       <r>     8.3436     0.1403  1035.9993 </r>
       <r>     8.3909     0.0731  1036.0027 </r>
       <r>     8.4382     0.0147  1036.0034 </r>
       <r>     8.4855    -0.0152  1036.0027 </r>
       <r>     8.5328    -0.0218  1036.0017 </r>
       <r>     8.5801    -0.0172  1036.0009 </r>
       <r>     8.6274    -0.0103  1036.0004 </r>
       <r>     8.6747    -0.0050  1036.0001 </r>
       <r>     8.7220    -0.0021  1036.0001 </r>
       <r>     8.7693    -0.0007  1036.0000 </r>
       <r>     8.8166    -0.0002  1036.0000 </r>
       <r>     8.8638    -0.0001  1036.0000 </r>
       <r>     8.9111    -0.0000  1036.0000 </r>
       <r>     8.9584    -0.0000  1036.0000 </r>
       <r>     9.0057    -0.0000  1036.0000 </r>
       <r>     9.0530    -0.0000  1036.0000 </r>
       <r>     9.1003    -0.0000  1036.0000 </r>
       <r>     9.1476    -0.0000  1036.0000 </r>
       <r>     9.1949    -0.0000  1036.0000 </r>
       <r>     9.2422    -0.0000  1036.0000 </r>
       <r>     9.2895    -0.0000  1036.0000 </r>
       <r>     9.3368    -0.0000  1036.0000 </r>
       <r>     9.3841    -0.0000  1036.0000 </r>
       <r>     9.4314    -0.0000  1036.0000 </r>
       <r>     9.4787     0.0000  1036.0000 </r>
       <r>     9.5260     0.0000  1036.0000 </r>
       <r>     9.5733     0.0000  1036.0000 </r>
       <r>     9.6206     0.0000  1036.0000 </r>
       <r>     9.6679     0.0000  1036.0000 </r>
       <r>     9.7152     0.0000  1036.0000 </r>
       <r>     9.7625     0.0000  1036.0000 </r>
       <r>     9.8098     0.0000  1036.0000 </r>
       <r>     9.8571     0.0000  1036.0000 </r>
       <r>     9.9043     0.0000  1036.0000 </r>
       <r>     9.9516     0.0000  1036.0000 </r>
       <r>     9.9989     0.0000  1036.0000 </r>
       <r>    10.0462     0.0000  1036.0000 </r>
       <r>    10.0935     0.0000  1036.0000 </r>
       <r>    10.1408     0.0000  1036.0000 </r>
       <r>    10.1881     0.0000  1036.0000 </r>
      </set>
     </set>
    </array>
   </total>
  </dos>
 </calculation>
 <structure name="finalpos" >
  <crystal>
   <varray name="basis" >
    <v>      10.33484705       0.00000000       0.00000000 </v>
    <v>       0.00000000      10.33484705       0.00000000 </v>
    <v>       0.00000000       0.00000000      10.33484705 </v>
   </varray>
   <i name="volume">   1103.85533447 </i>
   <varray name="rec_basis" >
    <v>       0.09676002       0.00000000       0.00000000 </v>
    <v>       0.00000000       0.09676002       0.00000000 </v>
    <v>       0.00000000       0.00000000       0.09676002 </v>
   </varray>
  </crystal>
  <varray name="positions" >
   <v>       0.00000000       0.00000000       0.00000000 </v>
   <v>       0.00000000       0.16666893       0.16666893 </v>
   <v>       0.16666893       0.00000000       0.16666893 </v>
   <v>       0.16666893       0.16666893       0.00000000 </v>
   <v>       0.33333106       0.00000000       0.00000000 </v>
   <v>       0.33333107       0.16666893       0.16666893 </v>
   <v>       0.50000000       0.00000000       0.16666894 </v>
   <v>       0.50000000       0.16666894       0.00000000 </v>
   <v>       0.66666897       0.00000000       0.00000000 </v>
   <v>       0.66666896       0.16666893       0.16666893 </v>
   <v>       0.83333104       0.00000000       0.16666893 </v>
   <v>       0.83333104       0.16666893       0.00000000 </v>
   <v>       0.00000000       0.33333106       0.00000000 </v>
   <v>       0.00000000       0.50000000       0.16666894 </v>
   <v>       0.16666893       0.33333107       0.16666893 </v>
   <v>       0.16666894       0.50000000       0.00000000 </v>
   <v>       0.33333107       0.33333107       0.00000000 </v>
   <v>       0.33333107       0.50000000       0.16666893 </v>
   <v>       0.50000000       0.33333107       0.16666893 </v>
   <v>       0.50000000       0.50000000       0.00000000 </v>
   <v>       0.66666896       0.33333107       0.00000000 </v>
   <v>       0.66666896       0.50000000       0.16666893 </v>
   <v>       0.83333104       0.33333107       0.16666893 </v>
   <v>       0.83333103       0.50000000       0.00000000 </v>
   <v>       0.00000000       0.66666897       0.00000000 </v>
   <v>       0.00000000       0.83333104       0.16666893 </v>
   <v>       0.16666893       0.66666896       0.16666893 </v>
   <v>       0.16666893       0.83333104       0.00000000 </v>
   <v>       0.33333107       0.66666896       0.00000000 </v>
   <v>       0.33333107       0.83333104       0.16666893 </v>
   <v>       0.50000000       0.66666896       0.16666893 </v>
   <v>       0.50000000       0.83333103       0.00000000 </v>
   <v>       0.66666896       0.66666896       0.00000000 </v>
   <v>       0.66666896       0.83333104       0.16666893 </v>
   <v>       0.83333104       0.66666896       0.16666893 </v>
   <v>       0.83333104       0.83333104       0.00000000 </v>
   <v>       0.00000000       0.00000000       0.33333106 </v>
   <v>       0.00000000       0.16666894       0.50000000 </v>
   <v>       0.16666894       0.00000000       0.50000000 </v>
   <v>       0.16666893       0.16666893       0.33333107 </v>
   <v>       0.33333107       0.00000000       0.33333107 </v>
   <v>       0.33333107       0.16666893       0.50000000 </v>
   <v>       0.50000000       0.00000000       0.50000000 </v>
   <v>       0.50000000       0.16666893       0.33333107 </v>
   <v>       0.66666896       0.00000000       0.33333107 </v>
   <v>       0.66666896       0.16666893       0.50000000 </v>
   <v>       0.83333103       0.00000000       0.50000000 </v>
   <v>       0.83333104       0.16666893       0.33333107 </v>
   <v>       0.00000000       0.33333107       0.33333107 </v>
   <v>       0.00000000       0.50000000       0.50000000 </v>
   <v>       0.16666893       0.33333107       0.50000000 </v>
   <v>       0.16666893       0.50000000       0.33333107 </v>
   <v>       0.33333107       0.33333107       0.33333107 </v>
   <v>       0.33333106       0.50000000       0.50000000 </v>
   <v>       0.50000000       0.33333106       0.50000000 </v>
   <v>       0.50000000       0.50000000       0.33333106 </v>
   <v>       0.66666896       0.33333107       0.33333107 </v>
   <v>       0.66666897       0.50000000       0.50000000 </v>
   <v>       0.83333104       0.33333107       0.50000000 </v>
   <v>       0.83333104       0.50000000       0.33333107 </v>
   <v>       0.00000000       0.66666896       0.33333107 </v>
   <v>       0.00000000       0.83333103       0.50000000 </v>
   <v>       0.16666893       0.66666896       0.50000000 </v>
   <v>       0.16666893       0.83333104       0.33333107 </v>
   <v>       0.33333107       0.66666896       0.33333107 </v>
   <v>       0.33333107       0.83333104       0.50000000 </v>
   <v>       0.50000000       0.66666897       0.50000000 </v>
   <v>       0.50000000       0.83333104       0.33333107 </v>
   <v>       0.66666896       0.66666896       0.33333107 </v>
   <v>       0.66666896       0.83333104       0.50000000 </v>
   <v>       0.83333104       0.66666896       0.50000000 </v>
   <v>       0.83333104       0.83333104       0.33333107 </v>
   <v>       0.00000000       0.00000000       0.66666897 </v>
   <v>       0.00000000       0.16666893       0.83333104 </v>
   <v>       0.16666893       0.00000000       0.83333104 </v>
   <v>       0.16666893       0.16666893       0.66666896 </v>
   <v>       0.33333107       0.00000000       0.66666896 </v>
   <v>       0.33333107       0.16666893       0.83333104 </v>
   <v>       0.50000000       0.00000000       0.83333103 </v>
   <v>       0.50000000       0.16666893       0.66666896 </v>
   <v>       0.66666896       0.00000000       0.66666896 </v>
   <v>       0.66666896       0.16666893       0.83333104 </v>
   <v>       0.83333104       0.00000000       0.83333104 </v>
   <v>       0.83333104       0.16666893       0.66666896 </v>
   <v>       0.00000000       0.33333107       0.66666896 </v>
   <v>       0.00000000       0.50000000       0.83333103 </v>
   <v>       0.16666893       0.33333107       0.83333104 </v>
   <v>       0.16666893       0.50000000       0.66666896 </v>
   <v>       0.33333107       0.33333107       0.66666896 </v>
   <v>       0.33333107       0.50000000       0.83333104 </v>
   <v>       0.50000000       0.33333107       0.83333104 </v>
   <v>       0.50000000       0.50000000       0.66666897 </v>
   <v>       0.66666896       0.33333107       0.66666896 </v>
   <v>       0.66666896       0.50000000       0.83333104 </v>
   <v>       0.83333104       0.33333107       0.83333104 </v>
   <v>       0.83333104       0.50000000       0.66666896 </v>
   <v>       0.00000000       0.66666896       0.66666896 </v>
   <v>       0.00000000       0.83333104       0.83333104 </v>
   <v>       0.16666893       0.66666896       0.83333104 </v>
   <v>       0.16666893       0.83333104       0.66666896 </v>
   <v>       0.33333107       0.66666896       0.66666896 </v>
   <v>       0.33333107       0.83333104       0.83333104 </v>
   <v>       0.50000000       0.66666896       0.83333104 </v>
   <v>       0.50000000       0.83333104       0.66666896 </v>
   <v>       0.66666896       0.66666896       0.66666896 </v>
   <v>       0.66666896       0.83333104       0.83333104 </v>
   <v>       0.83333104       0.66666896       0.83333104 </v>
   <v>       0.83333104       0.83333104       0.66666896 </v>
  </varray>
 </structure>
</modeling>
