<?xml version="1.0" encoding="ISO-8859-1"?>
<modeling>
 <generator>
  <i name="program" type="string">vasp </i>
  <i name="version" type="string">5.4.1  </i>
  <i name="subversion" type="string">24Jun15 (build Jun 21 2019 17:19:10) complex                          parallel </i>
  <i name="platform" type="string">IFC91_ompi </i>
  <i name="date" type="string">2019 07 14 </i>
  <i name="time" type="string">17:22:37 </i>
 </generator>
 <incar>
  <i type="string" name="SYSTEM">NEB</i>
  <i type="int" name="ISTART">     0</i>
  <i type="string" name="PREC">normal</i>
  <i type="string" name="ALGO"> Fast</i>
  <i type="int" name="ISPIN">     1</i>
  <i type="int" name="ICHARG">     2</i>
  <i type="int" name="NELM">   400</i>
  <i type="int" name="IBRION">     1</i>
  <i type="int" name="NFREE">     2</i>
  <i name="EDIFF">      0.00000100</i>
  <i name="EDIFFG">     -0.01000000</i>
  <i type="int" name="NSW">   100</i>
  <i type="int" name="ISIF">     2</i>
  <i type="int" name="ISYM">     0</i>
  <i name="ENCUT">    400.00000000</i>
  <i type="int" name="NGX">    72</i>
  <i type="int" name="NGY">    72</i>
  <i type="int" name="NGZ">    72</i>
  <i name="POTIM">      0.50000000</i>
  <i type="string" name="LREAL">Auto</i>
  <i type="logical" name="LWAVE"> F  </i>
  <i type="logical" name="LCHARG"> F  </i>
  <v type="int" name="KPOINT_BSE">    -1     0     0     0</v>
  <i type="int" name="NELM">   400</i>
 </incar>
 <kpoints>
  <generation param="Monkhorst-Pack">
   <v type="int" name="divisions">       4        4        4 </v>
   <v name="usershift">      0.00000000       0.00000000       0.00000000 </v>
   <v name="genvec1">      0.25000000       0.00000000       0.00000000 </v>
   <v name="genvec2">      0.00000000       0.25000000       0.00000000 </v>
   <v name="genvec3">      0.00000000       0.00000000       0.25000000 </v>
   <v name="shift">      0.50000000       0.50000000       0.50000000 </v>
  </generation>
  <varray name="kpointlist" >
   <v>       0.12500000       0.12500000       0.12500000 </v>
   <v>       0.37500000       0.12500000       0.12500000 </v>
   <v>      -0.37500000       0.12500000       0.12500000 </v>
   <v>      -0.12500000       0.12500000       0.12500000 </v>
   <v>       0.12500000       0.37500000       0.12500000 </v>
   <v>       0.37500000       0.37500000       0.12500000 </v>
   <v>      -0.37500000       0.37500000       0.12500000 </v>
   <v>      -0.12500000       0.37500000       0.12500000 </v>
   <v>       0.12500000      -0.37500000       0.12500000 </v>
   <v>       0.37500000      -0.37500000       0.12500000 </v>
   <v>      -0.37500000      -0.37500000       0.12500000 </v>
   <v>      -0.12500000      -0.37500000       0.12500000 </v>
   <v>       0.12500000      -0.12500000       0.12500000 </v>
   <v>       0.37500000      -0.12500000       0.12500000 </v>
   <v>      -0.37500000      -0.12500000       0.12500000 </v>
   <v>      -0.12500000      -0.12500000       0.12500000 </v>
   <v>       0.12500000       0.12500000       0.37500000 </v>
   <v>       0.37500000       0.12500000       0.37500000 </v>
   <v>      -0.37500000       0.12500000       0.37500000 </v>
   <v>      -0.12500000       0.12500000       0.37500000 </v>
   <v>       0.12500000       0.37500000       0.37500000 </v>
   <v>       0.37500000       0.37500000       0.37500000 </v>
   <v>      -0.37500000       0.37500000       0.37500000 </v>
   <v>      -0.12500000       0.37500000       0.37500000 </v>
   <v>       0.12500000      -0.37500000       0.37500000 </v>
   <v>       0.37500000      -0.37500000       0.37500000 </v>
   <v>      -0.37500000      -0.37500000       0.37500000 </v>
   <v>      -0.12500000      -0.37500000       0.37500000 </v>
   <v>       0.12500000      -0.12500000       0.37500000 </v>
   <v>       0.37500000      -0.12500000       0.37500000 </v>
   <v>      -0.37500000      -0.12500000       0.37500000 </v>
   <v>      -0.12500000      -0.12500000       0.37500000 </v>
  </varray>
  <varray name="weights" >
   <v>       0.03125000 </v>
   <v>       0.03125000 </v>
   <v>       0.03125000 </v>
   <v>       0.03125000 </v>
   <v>       0.03125000 </v>
   <v>       0.03125000 </v>
   <v>       0.03125000 </v>
   <v>       0.03125000 </v>
   <v>       0.03125000 </v>
   <v>       0.03125000 </v>
   <v>       0.03125000 </v>
   <v>       0.03125000 </v>
   <v>       0.03125000 </v>
   <v>       0.03125000 </v>
   <v>       0.03125000 </v>
   <v>       0.03125000 </v>
   <v>       0.03125000 </v>
   <v>       0.03125000 </v>
   <v>       0.03125000 </v>
   <v>       0.03125000 </v>
   <v>       0.03125000 </v>
   <v>       0.03125000 </v>
   <v>       0.03125000 </v>
   <v>       0.03125000 </v>
   <v>       0.03125000 </v>
   <v>       0.03125000 </v>
   <v>       0.03125000 </v>
   <v>       0.03125000 </v>
   <v>       0.03125000 </v>
   <v>       0.03125000 </v>
   <v>       0.03125000 </v>
   <v>       0.03125000 </v>
  </varray>
 </kpoints>
 <parameters>
  <separator name="general" >
   <i type="string" name="SYSTEM">NEB</i>
   <i type="logical" name="LCOMPAT"> F  </i>
  </separator>
  <separator name="electronic" >
   <i type="string" name="PREC">normal</i>
   <i name="ENMAX">    400.00000000</i>
   <i name="ENAUG">    511.36800000</i>
   <i name="EDIFF">      0.00000100</i>
   <i type="int" name="IALGO">    68</i>
   <i type="int" name="IWAVPR">    11</i>
   <i type="int" name="NBANDS">   514</i>
   <i name="NELECT">    856.00000000</i>
   <i type="int" name="TURBO">     0</i>
   <i type="int" name="IRESTART">     0</i>
   <i type="int" name="NREBOOT">     0</i>
   <i type="int" name="NMIN">     0</i>
   <i name="EREF">      0.00000000</i>
   <separator name="electronic smearing" >
    <i type="int" name="ISMEAR">     1</i>
    <i name="SIGMA">      0.20000000</i>
    <i name="KSPACING">      0.50000000</i>
    <i type="logical" name="KGAMMA"> T  </i>
   </separator>
   <separator name="electronic projectors" >
    <i type="logical" name="LREAL"> T  </i>
    <v name="ROPT">     -0.00050000</v>
    <i type="int" name="LMAXPAW">  -100</i>
    <i type="int" name="LMAXMIX">     2</i>
    <i type="logical" name="NLSPLINE"> F  </i>
   </separator>
   <separator name="electronic startup" >
    <i type="int" name="ISTART">     0</i>
    <i type="int" name="ICHARG">     2</i>
    <i type="int" name="INIWAV">     1</i>
   </separator>
   <separator name="electronic spin" >
    <i type="int" name="ISPIN">     1</i>
    <i type="logical" name="LNONCOLLINEAR"> F  </i>
    <v name="MAGMOM">      1.00000000      1.00000000      1.00000000      1.00000000      1.00000000      1.00000000      1.00000000      1.00000000      1.00000000      1.00000000      1.00000000      1.00000000      1.00000000      1.00000000      1.00000000      1.00000000      1.00000000      1.00000000      1.00000000      1.00000000
      1.00000000      1.00000000      1.00000000      1.00000000      1.00000000      1.00000000      1.00000000      1.00000000      1.00000000      1.00000000      1.00000000      1.00000000      1.00000000      1.00000000      1.00000000      1.00000000      1.00000000      1.00000000      1.00000000      1.00000000
      1.00000000      1.00000000      1.00000000      1.00000000      1.00000000      1.00000000      1.00000000      1.00000000      1.00000000      1.00000000      1.00000000      1.00000000      1.00000000      1.00000000      1.00000000      1.00000000      1.00000000      1.00000000      1.00000000      1.00000000
      1.00000000      1.00000000      1.00000000      1.00000000      1.00000000      1.00000000      1.00000000      1.00000000      1.00000000      1.00000000      1.00000000      1.00000000      1.00000000      1.00000000      1.00000000      1.00000000      1.00000000      1.00000000      1.00000000      1.00000000
      1.00000000      1.00000000      1.00000000      1.00000000      1.00000000      1.00000000      1.00000000      1.00000000      1.00000000      1.00000000      1.00000000      1.00000000      1.00000000      1.00000000      1.00000000      1.00000000      1.00000000      1.00000000      1.00000000      1.00000000
      1.00000000      1.00000000      1.00000000      1.00000000      1.00000000      1.00000000      1.00000000</v>
    <i name="NUPDOWN">     -1.00000000</i>
    <i type="logical" name="LSORBIT"> F  </i>
    <v name="SAXIS">      0.00000000      0.00000000      1.00000000</v>
    <i type="logical" name="LSPIRAL"> F  </i>
    <v name="QSPIRAL">      0.00000000      0.00000000      0.00000000</v>
    <i type="logical" name="LZEROZ"> F  </i>
   </separator>
   <separator name="electronic exchange-correlation" >
    <i type="logical" name="LASPH"> F  </i>
    <i type="logical" name="LMETAGGA"> F  </i>
   </separator>
   <separator name="electronic convergence" >
    <i type="int" name="NELM">   400</i>
    <i type="int" name="NELMDL">    -5</i>
    <i type="int" name="NELMIN">     2</i>
    <i name="ENINI">    400.00000000</i>
    <separator name="electronic convergence detail" >
     <i type="logical" name="LDIAG"> T  </i>
     <i type="logical" name="LSUBROT"> F  </i>
     <i name="WEIMIN">      0.00100000</i>
     <i name="EBREAK">      0.00000000</i>
     <i name="DEPER">      0.30000000</i>
     <i type="int" name="NRMM">     4</i>
     <i name="TIME">      0.40000000</i>
    </separator>
   </separator>
   <separator name="electronic mixer" >
    <i name="AMIX">      0.40000000</i>
    <i name="BMIX">      1.00000000</i>
    <i name="AMIN">      0.10000000</i>
    <i name="AMIX_MAG">      1.60000000</i>
    <i name="BMIX_MAG">      1.00000000</i>
    <separator name="electronic mixer details" >
     <i type="int" name="IMIX">     4</i>
     <i type="logical" name="MIXFIRST"> F  </i>
     <i type="int" name="MAXMIX">   -45</i>
     <i name="WC">    100.00000000</i>
     <i type="int" name="INIMIX">     1</i>
     <i type="int" name="MIXPRE">     1</i>
     <i type="int" name="MREMOVE">     5</i>
    </separator>
   </separator>
   <separator name="electronic dipolcorrection" >
    <i type="logical" name="LDIPOL"> F  </i>
    <i type="logical" name="LMONO"> F  </i>
    <i type="int" name="IDIPOL">     0</i>
    <i name="EPSILON">      1.00000000</i>
    <v name="DIPOL">   -100.00000000   -100.00000000   -100.00000000</v>
    <i name="EFIELD">      0.00000000</i>
   </separator>
  </separator>
  <separator name="grids" >
   <i type="int" name="NGX">    72</i>
   <i type="int" name="NGY">    72</i>
   <i type="int" name="NGZ">    72</i>
   <i type="int" name="NGXF">   144</i>
   <i type="int" name="NGYF">   144</i>
   <i type="int" name="NGZF">   144</i>
   <i type="logical" name="ADDGRID"> F  </i>
  </separator>
  <separator name="ionic" >
   <i type="int" name="NSW">   100</i>
   <i type="int" name="IBRION">     1</i>
   <i type="int" name="ISIF">     2</i>
   <i name="PSTRESS">      0.00000000</i>
   <i name="EDIFFG">     -0.01000000</i>
   <i type="int" name="NFREE">     2</i>
   <i name="POTIM">      0.50000000</i>
   <i name="SMASS">     -3.00000000</i>
   <i name="SCALEE">      1.00000000</i>
  </separator>
  <separator name="ionic md" >
   <i name="TEBEG">      0.00010000</i>
   <i name="TEEND">      0.00010000</i>
   <i type="int" name="NBLOCK">     1</i>
   <i type="int" name="KBLOCK">   100</i>
   <i type="int" name="NPACO">   256</i>
   <i name="APACO">     16.00000000</i>
  </separator>
  <separator name="symmetry" >
   <i type="int" name="ISYM">     0</i>
   <i name="SYMPREC">      0.00001000</i>
  </separator>
  <separator name="dos" >
   <i type="logical" name="LORBIT"> F  </i>
   <v name="RWIGS">     -1.00000000</v>
   <i type="int" name="NEDOS">   301</i>
   <i name="EMIN">     10.00000000</i>
   <i name="EMAX">    -10.00000000</i>
   <i name="EFERMI">      0.00000000</i>
  </separator>
  <separator name="writing" >
   <i type="int" name="NWRITE">     2</i>
   <i type="logical" name="LWAVE"> F  </i>
   <i type="logical" name="LCHARG"> F  </i>
   <i type="logical" name="LPARD"> F  </i>
   <i type="logical" name="LVTOT"> F  </i>
   <i type="logical" name="LVHAR"> F  </i>
   <i type="logical" name="LELF"> F  </i>
   <i type="logical" name="LOPTICS"> F  </i>
   <v name="STM">      0.00000000      0.00000000      0.00000000      0.00000000      0.00000000      0.00000000      0.00000000</v>
  </separator>
  <separator name="performance" >
   <i type="int" name="NPAR">     2</i>
   <i type="int" name="NSIM">     4</i>
   <i type="int" name="NBLK">    -1</i>
   <i type="logical" name="LPLANE"> T  </i>
   <i type="logical" name="LSCALAPACK"> T  </i>
   <i type="logical" name="LSCAAWARE"> F  </i>
   <i type="logical" name="LSCALU"> F  </i>
   <i type="logical" name="LASYNC"> F  </i>
   <i type="logical" name="LORBITALREAL"> F  </i>
  </separator>
  <separator name="miscellaneous" >
   <i type="int" name="IDIOT">     3</i>
   <i type="logical" name="LMUSIC"> F  </i>
   <v name="POMASS">     55.84700000</v>
   <v name="DARWINR">      0.00000000</v>
   <v name="DARWINV">      1.00000000</v>
   <i type="logical" name="LCORR"> T  </i>
  </separator>
  <i type="logical" name="GGA_COMPAT"> T  </i>
  <i type="logical" name="LBERRY"> F  </i>
  <i type="int" name="ICORELEVEL">     0</i>
  <i type="logical" name="LDAU"> F  </i>
  <i type="int" name="I_CONSTRAINED_M">     0</i>
  <separator name="electronic exchange-correlation" >
   <i type="string" name="GGA">--</i>
   <i type="int" name="VOSKOWN">     0</i>
   <i type="logical" name="LHFCALC"> F  </i>
   <i type="string" name="PRECFOCK"></i>
   <i type="logical" name="LSYMGRAD"> F  </i>
   <i type="logical" name="LHFONE"> F  </i>
   <i type="logical" name="LRHFCALC"> F  </i>
   <i type="logical" name="LTHOMAS"> F  </i>
   <i type="logical" name="LMODELHF"> F  </i>
   <i name="ENCUT4O">     -1.00000000</i>
   <i type="int" name="EXXOEP">     0</i>
   <i type="int" name="FOURORBIT">     0</i>
   <i name="AEXX">      0.00000000</i>
   <i name="HFALPHA">      0.00000000</i>
   <i name="MCALPHA">      0.00000000</i>
   <i name="ALDAX">      1.00000000</i>
   <i name="AGGAX">      1.00000000</i>
   <i name="ALDAC">      1.00000000</i>
   <i name="AGGAC">      1.00000000</i>
   <i type="int" name="NKREDX">     1</i>
   <i type="int" name="NKREDY">     1</i>
   <i type="int" name="NKREDZ">     1</i>
   <i type="logical" name="SHIFTRED"> F  </i>
   <i type="logical" name="ODDONLY"> F  </i>
   <i type="logical" name="EVENONLY"> F  </i>
   <i type="int" name="LMAXFOCK">     0</i>
   <i type="int" name="NMAXFOCKAE">     0</i>
   <i type="logical" name="LFOCKAEDFT"> F  </i>
   <i name="HFSCREEN">      0.00000000</i>
   <i name="HFSCREENC">      0.00000000</i>
   <i type="int" name="NBANDSGWLOW">     0</i>
  </separator>
  <separator name="vdW DFT" >
   <i type="logical" name="LUSE_VDW"> F  </i>
   <i name="Zab_VDW">     -0.84910000</i>
   <i name="PARAM1">      0.12340000</i>
   <i name="PARAM2">      1.00000000</i>
   <i name="PARAM3">      0.00000000</i>
  </separator>
  <separator name="model GW" >
   <i type="int" name="MODEL_GW">     0</i>
   <i name="MODEL_EPS0">      6.18984300</i>
   <i name="MODEL_ALPHA">      1.00000000</i>
  </separator>
  <separator name="linear response parameters" >
   <i type="logical" name="LEPSILON"> F  </i>
   <i type="logical" name="LRPA"> F  </i>
   <i type="logical" name="LNABLA"> F  </i>
   <i type="logical" name="LVEL"> F  </i>
   <i type="int" name="KINTER">     0</i>
   <i name="CSHIFT">      0.10000000</i>
   <i name="OMEGAMAX">     -1.00000000</i>
   <i name="DEG_THRESHOLD">      0.00200000</i>
  </separator>
  <separator name="orbital magnetization" >
   <i type="logical" name="NUCIND"> F  </i>
   <v name="MAGPOS">      0.00000000      0.00000000      0.00000000</v>
   <i type="logical" name="LNICSALL"> T  </i>
   <i type="logical" name="ORBITALMAG"> F  </i>
   <i type="logical" name="LMAGBLOCH"> F  </i>
   <i type="logical" name="LCHIMAG"> F  </i>
   <i type="logical" name="LGAUGE"> T  </i>
   <i type="int" name="MAGATOM">     0</i>
   <v name="MAGDIPOL">      0.00000000      0.00000000      0.00000000</v>
   <v name="AVECCONST">      0.00000000      0.00000000      0.00000000</v>
  </separator>
  <separator name="response functions" >
   <i type="logical" name="LADDER"> F  </i>
   <i type="logical" name="LFXC"> F  </i>
   <i type="logical" name="LHARTREE"> T  </i>
   <i type="int" name="IBSE">     0</i>
   <v type="int" name="KPOINT">    -1     0     0     0</v>
   <i type="logical" name="LTCTE"> F  </i>
   <i type="logical" name="LTETE"> F  </i>
   <i type="logical" name="LTRIPLET"> F  </i>
   <i type="logical" name="LFXCEPS"> F  </i>
   <i type="logical" name="LFXHEG"> F  </i>
   <i type="int" name="NATURALO">     0</i>
   <i type="logical" name="L2ORDER"> F  </i>
   <i type="logical" name="LUSEW"> F  </i>
   <i name="ENCUTGW">     -2.00000000</i>
   <i name="ENCUTGWSOFT">     -2.00000000</i>
   <i name="ENCUTLF">     -1.00000000</i>
   <i type="int" name="LMAXMP2">    -1</i>
   <i name="SCISSOR">      0.00000000</i>
   <i type="int" name="NOMEGA">     0</i>
   <i type="int" name="NOMEGAR">     0</i>
   <i type="int" name="NBANDSGW">    -1</i>
   <i type="int" name="NBANDSO">    -1</i>
   <i type="int" name="NBANDSV">    -1</i>
   <i type="int" name="NELM">   400</i>
   <i type="int" name="NELMHF">     1</i>
   <i type="int" name="DIM">     3</i>
   <i type="int" name="ANTIRES">     0</i>
   <i name="OMEGAMAX">    -30.00000000</i>
   <i name="OMEGAMIN">    -30.00000000</i>
   <i name="OMEGATL">   -200.00000000</i>
   <i type="int" name="OMEGAGRID">     0</i>
   <i name="CSHIFT">     -0.10000000</i>
   <i type="logical" name="SELFENERGY"> F  </i>
   <i type="logical" name="LSPECTRAL"> F  </i>
   <i type="logical" name="LSPECTRALGW"> F  </i>
   <i type="logical" name="LSINGLES"> F  </i>
   <i type="logical" name="LFERMIGW"> F  </i>
   <i type="logical" name="ODDONLYGW"> F  </i>
   <i type="logical" name="EVENONLYGW"> F  </i>
   <i type="int" name="NKREDLFX">     1</i>
   <i type="int" name="NKREDLFY">     1</i>
   <i type="int" name="NKREDLFZ">     1</i>
   <i type="int" name="MAXMEM">  1800</i>
   <i type="int" name="TELESCOPE">     0</i>
   <i type="int" name="TAUPAR">     1</i>
   <i type="int" name="OMEGAPAR">    -1</i>
   <i name="LAMBDA">      1.00000000</i>
  </separator>
  <separator name="External order field" >
   <i name="OFIELD_KAPPA">      0.00000000</i>
   <v name="OFIELD_K">      0.00000000      0.00000000      0.00000000</v>
   <i name="OFIELD_Q6_NEAR">      0.00000000</i>
   <i name="OFIELD_Q6_FAR">      0.00000000</i>
   <i name="OFIELD_A">      0.00000000</i>
  </separator>
 </parameters>
 <atominfo>
  <atoms>     107 </atoms>
  <types>       1 </types>
  <array name="atoms" >
   <dimension dim="1">ion</dimension>
   <field type="string">element</field>
   <field type="int">atomtype</field>
   <set>
    <rc><c>Fe</c><c>   1</c></rc>
    <rc><c>Fe</c><c>   1</c></rc>
    <rc><c>Fe</c><c>   1</c></rc>
    <rc><c>Fe</c><c>   1</c></rc>
    <rc><c>Fe</c><c>   1</c></rc>
    <rc><c>Fe</c><c>   1</c></rc>
    <rc><c>Fe</c><c>   1</c></rc>
    <rc><c>Fe</c><c>   1</c></rc>
    <rc><c>Fe</c><c>   1</c></rc>
    <rc><c>Fe</c><c>   1</c></rc>
    <rc><c>Fe</c><c>   1</c></rc>
    <rc><c>Fe</c><c>   1</c></rc>
    <rc><c>Fe</c><c>   1</c></rc>
    <rc><c>Fe</c><c>   1</c></rc>
    <rc><c>Fe</c><c>   1</c></rc>
    <rc><c>Fe</c><c>   1</c></rc>
    <rc><c>Fe</c><c>   1</c></rc>
    <rc><c>Fe</c><c>   1</c></rc>
    <rc><c>Fe</c><c>   1</c></rc>
    <rc><c>Fe</c><c>   1</c></rc>
    <rc><c>Fe</c><c>   1</c></rc>
    <rc><c>Fe</c><c>   1</c></rc>
    <rc><c>Fe</c><c>   1</c></rc>
    <rc><c>Fe</c><c>   1</c></rc>
    <rc><c>Fe</c><c>   1</c></rc>
    <rc><c>Fe</c><c>   1</c></rc>
    <rc><c>Fe</c><c>   1</c></rc>
    <rc><c>Fe</c><c>   1</c></rc>
    <rc><c>Fe</c><c>   1</c></rc>
    <rc><c>Fe</c><c>   1</c></rc>
    <rc><c>Fe</c><c>   1</c></rc>
    <rc><c>Fe</c><c>   1</c></rc>
    <rc><c>Fe</c><c>   1</c></rc>
    <rc><c>Fe</c><c>   1</c></rc>
    <rc><c>Fe</c><c>   1</c></rc>
    <rc><c>Fe</c><c>   1</c></rc>
    <rc><c>Fe</c><c>   1</c></rc>
    <rc><c>Fe</c><c>   1</c></rc>
    <rc><c>Fe</c><c>   1</c></rc>
    <rc><c>Fe</c><c>   1</c></rc>
    <rc><c>Fe</c><c>   1</c></rc>
    <rc><c>Fe</c><c>   1</c></rc>
    <rc><c>Fe</c><c>   1</c></rc>
    <rc><c>Fe</c><c>   1</c></rc>
    <rc><c>Fe</c><c>   1</c></rc>
    <rc><c>Fe</c><c>   1</c></rc>
    <rc><c>Fe</c><c>   1</c></rc>
    <rc><c>Fe</c><c>   1</c></rc>
    <rc><c>Fe</c><c>   1</c></rc>
    <rc><c>Fe</c><c>   1</c></rc>
    <rc><c>Fe</c><c>   1</c></rc>
    <rc><c>Fe</c><c>   1</c></rc>
    <rc><c>Fe</c><c>   1</c></rc>
    <rc><c>Fe</c><c>   1</c></rc>
    <rc><c>Fe</c><c>   1</c></rc>
    <rc><c>Fe</c><c>   1</c></rc>
    <rc><c>Fe</c><c>   1</c></rc>
    <rc><c>Fe</c><c>   1</c></rc>
    <rc><c>Fe</c><c>   1</c></rc>
    <rc><c>Fe</c><c>   1</c></rc>
    <rc><c>Fe</c><c>   1</c></rc>
    <rc><c>Fe</c><c>   1</c></rc>
    <rc><c>Fe</c><c>   1</c></rc>
    <rc><c>Fe</c><c>   1</c></rc>
    <rc><c>Fe</c><c>   1</c></rc>
    <rc><c>Fe</c><c>   1</c></rc>
    <rc><c>Fe</c><c>   1</c></rc>
    <rc><c>Fe</c><c>   1</c></rc>
    <rc><c>Fe</c><c>   1</c></rc>
    <rc><c>Fe</c><c>   1</c></rc>
    <rc><c>Fe</c><c>   1</c></rc>
    <rc><c>Fe</c><c>   1</c></rc>
    <rc><c>Fe</c><c>   1</c></rc>
    <rc><c>Fe</c><c>   1</c></rc>
    <rc><c>Fe</c><c>   1</c></rc>
    <rc><c>Fe</c><c>   1</c></rc>
    <rc><c>Fe</c><c>   1</c></rc>
    <rc><c>Fe</c><c>   1</c></rc>
    <rc><c>Fe</c><c>   1</c></rc>
    <rc><c>Fe</c><c>   1</c></rc>
    <rc><c>Fe</c><c>   1</c></rc>
    <rc><c>Fe</c><c>   1</c></rc>
    <rc><c>Fe</c><c>   1</c></rc>
    <rc><c>Fe</c><c>   1</c></rc>
    <rc><c>Fe</c><c>   1</c></rc>
    <rc><c>Fe</c><c>   1</c></rc>
    <rc><c>Fe</c><c>   1</c></rc>
    <rc><c>Fe</c><c>   1</c></rc>
    <rc><c>Fe</c><c>   1</c></rc>
    <rc><c>Fe</c><c>   1</c></rc>
    <rc><c>Fe</c><c>   1</c></rc>
    <rc><c>Fe</c><c>   1</c></rc>
    <rc><c>Fe</c><c>   1</c></rc>
    <rc><c>Fe</c><c>   1</c></rc>
    <rc><c>Fe</c><c>   1</c></rc>
    <rc><c>Fe</c><c>   1</c></rc>
    <rc><c>Fe</c><c>   1</c></rc>
    <rc><c>Fe</c><c>   1</c></rc>
    <rc><c>Fe</c><c>   1</c></rc>
    <rc><c>Fe</c><c>   1</c></rc>
    <rc><c>Fe</c><c>   1</c></rc>
    <rc><c>Fe</c><c>   1</c></rc>
    <rc><c>Fe</c><c>   1</c></rc>
    <rc><c>Fe</c><c>   1</c></rc>
    <rc><c>Fe</c><c>   1</c></rc>
    <rc><c>Fe</c><c>   1</c></rc>
    <rc><c>Fe</c><c>   1</c></rc>
   </set>
  </array>
  <array name="atomtypes" >
   <dimension dim="1">type</dimension>
   <field type="int">atomspertype</field>
   <field type="string">element</field>
   <field>mass</field>
   <field>valence</field>
   <field type="string">pseudopotential</field>
   <set>
    <rc><c> 107</c><c>Fe</c><c>     55.84700000</c><c>      8.00000000</c><c> PAW_PBE Fe 06Sep2000                   </c></rc>
   </set>
  </array>
 </atominfo>
 <structure name="initialpos" >
  <crystal>
   <varray name="basis" >
    <v>      10.33484705       0.00000000       0.00000000 </v>
    <v>       0.00000000      10.33484705       0.00000000 </v>
    <v>       0.00000000       0.00000000      10.33484705 </v>
   </varray>
   <i name="volume">   1103.85533447 </i>
   <varray name="rec_basis" >
    <v>       0.09676002       0.00000000       0.00000000 </v>
    <v>       0.00000000       0.09676002       0.00000000 </v>
    <v>       0.00000000       0.00000000       0.09676002 </v>
   </varray>
  </crystal>
  <varray name="positions" >
   <v>       0.99995806       0.00000074       0.00012434 </v>
   <v>       0.99993626       0.16648002       0.16660513 </v>
   <v>       0.00004790       0.33376692       0.99985483 </v>
   <v>       0.00049821       0.49999927       0.16716656 </v>
   <v>       0.00004783       0.66623237       0.99985480 </v>
   <v>       0.99993623       0.83352069       0.16660521 </v>
   <v>       0.00004778       0.00000071       0.33331836 </v>
   <v>       0.00049819       0.16731121       0.50032455 </v>
   <v>       0.99997159       0.33362314       0.33344424 </v>
   <v>       0.00045885       0.49999924       0.50034269 </v>
   <v>       0.99997153       0.66637620       0.33344427 </v>
   <v>       0.00049825       0.83268949       0.50032451 </v>
   <v>       0.00004784       0.00000070       0.66655689 </v>
   <v>       0.99993630       0.16674972       0.83307019 </v>
   <v>       0.99997169       0.33364051       0.66670067 </v>
   <v>       0.00049835       0.49999922       0.83249059 </v>
   <v>       0.99997169       0.66635882       0.66670061 </v>
   <v>       0.99993630       0.83325105       0.83307014 </v>
   <v>       0.16665190       0.00000074       0.16671662 </v>
   <v>       0.16658699       0.16652667       0.00018952 </v>
   <v>       0.16658697       0.83347418       0.00018950 </v>
   <v>       0.16682828       0.33346955       0.49989333 </v>
   <v>       0.16840778       0.49999952       0.33507415 </v>
   <v>       0.16682816       0.66652986       0.49989328 </v>
   <v>       0.16692164       0.00000068       0.83295861 </v>
   <v>       0.16828985       0.49999916       0.66642191 </v>
   <v>       0.16677776       0.33362282       0.16664027 </v>
   <v>       0.16677774       0.66637646       0.16664032 </v>
   <v>       0.16644336       0.16645048       0.33310915 </v>
   <v>       0.16644334       0.83355030       0.33310925 </v>
   <v>       0.16812686       0.16813384       0.66670032 </v>
   <v>       0.16654903       0.33319069       0.83346595 </v>
   <v>       0.16654892       0.66680868       0.83346593 </v>
   <v>       0.16812683       0.83186699       0.66670018 </v>
   <v>       0.16827846       0.49999921       0.99850348 </v>
   <v>       0.16692767       0.00000063       0.50032463 </v>
   <v>       0.33366037       0.00000073       0.99985478 </v>
   <v>       0.33366041       0.16731075       0.16716625 </v>
   <v>       0.33366041       0.83269004       0.16716622 </v>
   <v>       0.33322780       0.33346969       0.33349422 </v>
   <v>       0.33322769       0.66652963       0.33349411 </v>
   <v>       0.33322838       0.16708205       0.83293997 </v>
   <v>       0.33406405       0.33430493       0.66642432 </v>
   <v>       0.33406294       0.66569450       0.66642448 </v>
   <v>       0.33322827       0.83291890       0.83293996 </v>
   <v>       0.33322854       0.33334091       0.00008354 </v>
   <v>       0.33367795       0.49999919       0.16712748 </v>
   <v>       0.33322852       0.66665840       0.00008362 </v>
   <v>       0.33366043       0.00000073       0.33359399 </v>
   <v>       0.33322850       0.16704351       0.49989361 </v>
   <v>       0.33322830       0.83295742       0.49989356 </v>
   <v>       0.33367780       0.00000068       0.66655098 </v>
   <v>       0.33406484       0.49999912       0.83214068 </v>
   <v>       0.49989229       0.00000074       0.16671652 </v>
   <v>       0.49989218       0.16821207       0.99850344 </v>
   <v>       0.50003594       0.33364056       0.16664022 </v>
   <v>       0.49988623       0.49999913       0.99862220 </v>
   <v>       0.50003597       0.66635874       0.16664018 </v>
   <v>       0.49989226       0.83178878       0.99850335 </v>
   <v>       0.49988625       0.00000067       0.50034275 </v>
   <v>       0.50003589       0.16813574       0.33479562 </v>
   <v>       0.49975748       0.33430540       0.50073121 </v>
   <v>       0.49975656       0.49999929       0.33495654 </v>
   <v>       0.49975794       0.66569286       0.50073104 </v>
   <v>       0.50003594       0.83186510       0.33479551 </v>
   <v>       0.49989223       0.00000069       0.83294054 </v>
   <v>       0.50003591       0.16801773       0.66670069 </v>
   <v>       0.50003664       0.33402664       0.83262811 </v>
   <v>       0.50003665       0.66597269       0.83262832 </v>
   <v>       0.50003590       0.83198339       0.66670067 </v>
   <v>       0.66672348       0.33333519       0.00008361 </v>
   <v>       0.66582373       0.49999922       0.16716658 </v>
   <v>       0.66672358       0.66666423       0.00008373 </v>
   <v>       0.66629172       0.00000064       0.33358815 </v>
   <v>       0.66627325       0.16708237       0.49989359 </v>
   <v>       0.66627326       0.83291816       0.49989346 </v>
   <v>       0.66627430       0.00000064       0.66655671 </v>
   <v>       0.66543660       0.49999909       0.83210126 </v>
   <v>       0.66640352       0.16674955       0.16660509 </v>
   <v>       0.66640355       0.83325119       0.16660504 </v>
   <v>       0.66679958       0.33319137       0.33321582 </v>
   <v>       0.66679975       0.66680802       0.33321562 </v>
   <v>       0.66683551       0.16652084       0.83350107 </v>
   <v>       0.66596424       0.33402641       0.66670312 </v>
   <v>       0.66596452       0.66597293       0.66670315 </v>
   <v>       0.66683560       0.83348009       0.83350122 </v>
   <v>       0.66638153       0.00000064       0.99985482 </v>
   <v>       0.66547675       0.49999828       0.50073120 </v>
   <v>       0.83183521       0.49999928       0.99850350 </v>
   <v>       0.83328348       0.00000015       0.50010795 </v>
   <v>       0.83328362       0.33376711       0.16681392 </v>
   <v>       0.83318622       0.66623248       0.16671658 </v>
   <v>       0.83352066       0.16652665       0.33325318 </v>
   <v>       0.83352061       0.83347407       0.33325323 </v>
   <v>       0.83183717       0.16820997       0.66655618 </v>
   <v>       0.83341500       0.33333464       0.83338969 </v>
   <v>       0.83341512       0.66666472       0.83338977 </v>
   <v>       0.83283389       0.83268970       0.66633944 </v>
   <v>       0.83337335       0.00000024       0.16654447 </v>
   <v>       0.83339500       0.16647999       0.00006354 </v>
   <v>       0.83352064       0.83356399       0.00018958 </v>
   <v>       0.83341491       0.33334073       0.49989351 </v>
   <v>       0.83183543       0.49999930       0.33494518 </v>
   <v>       0.83341510       0.66665864       0.49989340 </v>
   <v>       0.83318603       0.00000070       0.83304844 </v>
   <v>       0.83195348       0.49999915       0.66655082 </v>
   <v>       0.37548949       0.49999911       0.54215414 </v>
  </varray>
 </structure>
 <calculation>
  <scstep>
   <time name="dav">  333.71  333.98</time>
   <time name="total">  334.11  334.38</time>
   <energy>
    <i name="alphaZ">   7165.75404585 </i>
    <i name="ewald"> -65216.16021602 </i>
    <i name="hartreedc"> -11336.64303912 </i>
    <i name="XCdc">    440.36240429 </i>
    <i name="pawpsdc">  51244.96395782 </i>
    <i name="pawaedc"> -52061.72305433 </i>
    <i name="eentropy">      0.00320162 </i>
    <i name="bandstr">  13665.75142910 </i>
    <i name="atom">  63607.21096501 </i>
    <i name="e_fr_energy">   7509.51969423 </i>
    <i name="e_wo_entrp">   7509.51649260 </i>
    <i name="e_0_energy">   7509.51862702 </i>
   </energy>
  </scstep>
  <scstep>
   <time name="dav">  333.15  333.30</time>
   <time name="total">  333.20  333.35</time>
   <energy>
    <i name="e_fr_energy">    -23.80886790 </i>
    <i name="e_wo_entrp">    -23.80466490 </i>
    <i name="e_0_energy">    -23.80746690 </i>
   </energy>
  </scstep>
  <scstep>
   <time name="dav">  335.92  336.14</time>
   <time name="total">  335.98  336.20</time>
   <energy>
    <i name="e_fr_energy">   -839.43167798 </i>
    <i name="e_wo_entrp">   -839.44586663 </i>
    <i name="e_0_energy">   -839.43640753 </i>
   </energy>
  </scstep>
  <scstep>
   <time name="dav">  545.19  545.51</time>
   <time name="total">  545.25  545.57</time>
   <energy>
    <i name="e_fr_energy">  -1014.34933353 </i>
    <i name="e_wo_entrp">  -1014.36115558 </i>
    <i name="e_0_energy">  -1014.35327421 </i>
   </energy>
  </scstep>
  <scstep>
   <time name="dav">  485.08  485.38</time>
   <time name="total">  501.03  501.34</time>
   <energy>
    <i name="e_fr_energy">  -1029.37684148 </i>
    <i name="e_wo_entrp">  -1029.38375971 </i>
    <i name="e_0_energy">  -1029.37914756 </i>
   </energy>
  </scstep>
  <scstep>
   <time name="diag">   43.74   43.80</time>
   <time name="diis">  200.71  200.83</time>
   <time name="orth">    8.37    8.37</time>
   <time name="total">  269.14  269.32</time>
   <energy>
    <i name="e_fr_energy">   -884.49670717 </i>
    <i name="e_wo_entrp">   -884.47407389 </i>
    <i name="e_0_energy">   -884.48916274 </i>
   </energy>
  </scstep>
  <scstep>
   <time name="diag">   43.91   43.93</time>
   <time name="diis">  251.59  251.74</time>
   <time name="orth">    8.38    8.38</time>
   <time name="total">  320.07  320.26</time>
   <energy>
    <i name="e_fr_energy">  -1149.11252710 </i>
    <i name="e_wo_entrp">  -1149.03459867 </i>
    <i name="e_0_energy">  -1149.08655095 </i>
   </energy>
  </scstep>
  <scstep>
   <time name="diag">   43.87   43.89</time>
   <time name="diis">  201.36  201.47</time>
   <time name="orth">    8.40    8.41</time>
   <time name="total">  269.76  269.89</time>
   <energy>
    <i name="e_fr_energy">   -892.46609177 </i>
    <i name="e_wo_entrp">   -892.42528149 </i>
    <i name="e_0_energy">   -892.45248834 </i>
   </energy>
  </scstep>
  <scstep>
   <time name="diag">   43.81   43.83</time>
   <time name="diis">  205.32  205.43</time>
   <time name="orth">    8.37    8.37</time>
   <time name="total">  273.67  273.80</time>
   <energy>
    <i name="e_fr_energy">   -868.55567759 </i>
    <i name="e_wo_entrp">   -868.52376361 </i>
    <i name="e_0_energy">   -868.54503959 </i>
   </energy>
  </scstep>
  <scstep>
   <time name="diag">   44.05   44.08</time>
   <time name="diis">  290.83  291.07</time>
   <time name="orth">    8.40    8.41</time>
   <time name="total">  359.34  359.62</time>
   <energy>
    <i name="e_fr_energy">   -869.15462628 </i>
    <i name="e_wo_entrp">   -869.08502394 </i>
    <i name="e_0_energy">   -869.13142550 </i>
   </energy>
  </scstep>
  <scstep>
   <time name="diag">   43.82   43.84</time>
   <time name="diis">  234.74  234.92</time>
   <time name="orth">    8.38    8.39</time>
   <time name="total">  303.07  303.27</time>
   <energy>
    <i name="e_fr_energy">   -869.46157116 </i>
    <i name="e_wo_entrp">   -869.41421096 </i>
    <i name="e_0_energy">   -869.44578442 </i>
   </energy>
  </scstep>
  <scstep>
   <time name="diag">   43.92   43.97</time>
   <time name="diis">  221.67  221.77</time>
   <time name="orth">    8.37    8.37</time>
   <time name="total">  289.88  290.03</time>
   <energy>
    <i name="e_fr_energy">   -867.83036582 </i>
    <i name="e_wo_entrp">   -867.77227974 </i>
    <i name="e_0_energy">   -867.81100379 </i>
   </energy>
  </scstep>
  <scstep>
   <time name="diag">   44.14   44.17</time>
   <time name="diis">  257.74  257.88</time>
   <time name="orth">    8.38    8.39</time>
   <time name="total">  326.19  326.37</time>
   <energy>
    <i name="e_fr_energy">   -867.72044533 </i>
    <i name="e_wo_entrp">   -867.67454498 </i>
    <i name="e_0_energy">   -867.70514521 </i>
   </energy>
  </scstep>
  <scstep>
   <time name="diag">   44.08   44.09</time>
   <time name="diis">  213.61  213.69</time>
   <time name="orth">    8.38    8.38</time>
   <time name="total">  281.89  281.99</time>
   <energy>
    <i name="e_fr_energy">   -867.33143622 </i>
    <i name="e_wo_entrp">   -867.30548540 </i>
    <i name="e_0_energy">   -867.32278594 </i>
   </energy>
  </scstep>
  <scstep>
   <time name="diag">   43.99   44.04</time>
   <time name="diis">  282.15  282.31</time>
   <time name="orth">    8.35    8.35</time>
   <time name="total">  350.30  350.52</time>
   <energy>
    <i name="e_fr_energy">   -867.29238382 </i>
    <i name="e_wo_entrp">   -867.26338544 </i>
    <i name="e_0_energy">   -867.28271769 </i>
   </energy>
  </scstep>
  <scstep>
   <time name="diag">   44.11   44.15</time>
   <time name="diis">  216.70  216.88</time>
   <time name="orth">    8.19    8.19</time>
   <time name="total">  284.88  285.10</time>
   <energy>
    <i name="e_fr_energy">   -867.08870167 </i>
    <i name="e_wo_entrp">   -867.05446134 </i>
    <i name="e_0_energy">   -867.07728823 </i>
   </energy>
  </scstep>
  <scstep>
   <time name="diag">   44.02   44.04</time>
   <time name="diis">  220.97  221.12</time>
   <time name="orth">    8.40    8.40</time>
   <time name="total">  289.30  289.52</time>
   <energy>
    <i name="e_fr_energy">   -866.99541207 </i>
    <i name="e_wo_entrp">   -866.94945172 </i>
    <i name="e_0_energy">   -866.98009195 </i>
   </energy>
  </scstep>
  <scstep>
   <time name="diag">   44.02   44.06</time>
   <time name="diis">  224.15  224.29</time>
   <time name="orth">    8.36    8.36</time>
   <time name="total">  292.46  292.67</time>
   <energy>
    <i name="e_fr_energy">   -866.96551016 </i>
    <i name="e_wo_entrp">   -866.91932937 </i>
    <i name="e_0_energy">   -866.95011656 </i>
   </energy>
  </scstep>
  <scstep>
   <time name="diag">   44.07   44.09</time>
   <time name="diis">  256.36  256.51</time>
   <time name="orth">    8.38    8.38</time>
   <time name="total">  325.21  325.39</time>
   <energy>
    <i name="e_fr_energy">   -866.95519961 </i>
    <i name="e_wo_entrp">   -866.90752188 </i>
    <i name="e_0_energy">   -866.93930703 </i>
   </energy>
  </scstep>
  <scstep>
   <time name="diag">   43.99   44.01</time>
   <time name="diis">  251.67  251.83</time>
   <time name="orth">    8.37    8.38</time>
   <time name="total">  319.92  320.11</time>
   <energy>
    <i name="e_fr_energy">   -866.96378258 </i>
    <i name="e_wo_entrp">   -866.91678590 </i>
    <i name="e_0_energy">   -866.94811702 </i>
   </energy>
  </scstep>
  <scstep>
   <time name="diag">   43.88   43.89</time>
   <time name="diis">  216.57  216.69</time>
   <time name="orth">    8.26    8.26</time>
   <time name="total">  283.18  283.32</time>
   <energy>
    <i name="e_fr_energy">   -866.95562300 </i>
    <i name="e_wo_entrp">   -866.90987793 </i>
    <i name="e_0_energy">   -866.94037465 </i>
   </energy>
  </scstep>
  <scstep>
   <time name="diag">   44.18   44.20</time>
   <time name="diis">  277.86  278.01</time>
   <time name="orth">    7.73    7.74</time>
   <time name="total">  345.01  345.18</time>
   <energy>
    <i name="e_fr_energy">   -866.95654169 </i>
    <i name="e_wo_entrp">   -866.91139534 </i>
    <i name="e_0_energy">   -866.94149291 </i>
   </energy>
  </scstep>
  <scstep>
   <time name="diag">   44.12   44.13</time>
   <time name="diis">  218.00  218.18</time>
   <time name="orth">    8.12    8.12</time>
   <time name="total">  284.91  285.11</time>
   <energy>
    <i name="e_fr_energy">   -866.95368916 </i>
    <i name="e_wo_entrp">   -866.90916453 </i>
    <i name="e_0_energy">   -866.93884762 </i>
   </energy>
  </scstep>
  <scstep>
   <time name="diag">   44.19   44.20</time>
   <time name="diis">  231.30  231.39</time>
   <time name="orth">    8.35    8.35</time>
   <time name="total">  299.52  299.61</time>
   <energy>
    <i name="e_fr_energy">   -866.95306259 </i>
    <i name="e_wo_entrp">   -866.90836860 </i>
    <i name="e_0_energy">   -866.93816460 </i>
   </energy>
  </scstep>
  <scstep>
   <time name="diag">   43.90   43.90</time>
   <time name="diis">  285.40  285.52</time>
   <time name="orth">    8.31    8.31</time>
   <time name="total">  353.41  353.56</time>
   <energy>
    <i name="e_fr_energy">   -866.95318466 </i>
    <i name="e_wo_entrp">   -866.90912411 </i>
    <i name="e_0_energy">   -866.93849781 </i>
   </energy>
  </scstep>
  <scstep>
   <time name="diag">   43.98   43.99</time>
   <time name="diis">  255.81  255.84</time>
   <time name="orth">    7.89    7.89</time>
   <time name="total">  321.44  321.49</time>
   <energy>
    <i name="e_fr_energy">   -868.22941834 </i>
    <i name="e_wo_entrp">   -868.17792868 </i>
    <i name="e_0_energy">   -868.21225512 </i>
   </energy>
  </scstep>
  <scstep>
   <time name="diag">   45.03   45.03</time>
   <time name="diis">  295.28  295.38</time>
   <time name="orth">    8.33    8.33</time>
   <time name="total">  363.58  363.70</time>
   <energy>
    <i name="e_fr_energy">   -866.95292437 </i>
    <i name="e_wo_entrp">   -866.90891987 </i>
    <i name="e_0_energy">   -866.93825620 </i>
   </energy>
  </scstep>
  <scstep>
   <time name="diag">   43.70   43.71</time>
   <time name="diis">  286.16  286.19</time>
   <time name="orth">    8.06    8.06</time>
   <time name="total">  350.78  350.81</time>
   <energy>
    <i name="e_fr_energy">   -868.22934602 </i>
    <i name="e_wo_entrp">   -868.17799591 </i>
    <i name="e_0_energy">   -868.21222931 </i>
   </energy>
  </scstep>
  <scstep>
   <time name="diag">   42.97   42.98</time>
   <time name="diis">  230.60  230.63</time>
   <time name="orth">    7.98    7.98</time>
   <time name="total">  296.19  296.23</time>
   <energy>
    <i name="e_fr_energy">   -868.22929537 </i>
    <i name="e_wo_entrp">   -868.17802001 </i>
    <i name="e_0_energy">   -868.21220358 </i>
   </energy>
  </scstep>
  <scstep>
   <time name="diag">   42.68   42.69</time>
   <time name="diis">  271.47  271.49</time>
   <time name="orth">    8.05    8.05</time>
   <time name="total">  336.87  336.89</time>
   <energy>
    <i name="e_fr_energy">   -868.22928626 </i>
    <i name="e_wo_entrp">   -868.17808751 </i>
    <i name="e_0_energy">   -868.21222001 </i>
   </energy>
  </scstep>
  <scstep>
   <time name="diag">   43.60   43.61</time>
   <time name="diis">  214.44  214.46</time>
   <time name="orth">    8.07    8.07</time>
   <time name="total">  280.53  280.55</time>
   <energy>
    <i name="e_fr_energy">   -868.22927136 </i>
    <i name="e_wo_entrp">   -868.17812840 </i>
    <i name="e_0_energy">   -868.21222371 </i>
   </energy>
  </scstep>
  <scstep>
   <time name="diag">   43.68   43.68</time>
   <time name="diis">  170.67  170.69</time>
   <time name="orth">    8.08    8.08</time>
   <time name="total">  237.09  237.12</time>
   <energy>
    <i name="e_fr_energy">   -868.22926058 </i>
    <i name="e_wo_entrp">   -868.17819049 </i>
    <i name="e_0_energy">   -868.21223722 </i>
   </energy>
  </scstep>
  <scstep>
   <time name="diag">   43.78   43.79</time>
   <time name="diis">  136.47  136.49</time>
   <time name="orth">    8.07    8.07</time>
   <time name="total">  202.78  202.81</time>
   <energy>
    <i name="e_fr_energy">   -868.22925749 </i>
    <i name="e_wo_entrp">   -868.17823635 </i>
    <i name="e_0_energy">   -868.21225044 </i>
   </energy>
  </scstep>
  <scstep>
   <time name="diag">   43.51   43.52</time>
   <time name="diis">  131.12  131.14</time>
   <time name="orth">    8.08    8.08</time>
   <time name="total">  197.21  197.25</time>
   <energy>
    <i name="e_fr_energy">   -868.22925557 </i>
    <i name="e_wo_entrp">   -868.17827328 </i>
    <i name="e_0_energy">   -868.21226147 </i>
   </energy>
  </scstep>
  <scstep>
   <time name="diag">   43.46   43.46</time>
   <time name="diis">  122.52  122.53</time>
   <time name="orth">    8.08    8.08</time>
   <time name="total">  188.49  188.50</time>
   <energy>
    <i name="e_fr_energy">   -868.22925250 </i>
    <i name="e_wo_entrp">   -868.17831703 </i>
    <i name="e_0_energy">   -868.21227401 </i>
   </energy>
  </scstep>
  <scstep>
   <time name="diag">   43.68   43.68</time>
   <time name="diis">  119.32  119.34</time>
   <time name="orth">    8.08    8.08</time>
   <time name="total">  185.56  185.59</time>
   <energy>
    <i name="e_fr_energy">   -868.22925011 </i>
    <i name="e_wo_entrp">   -868.17836026 </i>
    <i name="e_0_energy">   -868.21228683 </i>
   </energy>
  </scstep>
  <scstep>
   <time name="diag">   43.77   43.77</time>
   <time name="diis">  118.85  118.86</time>
   <time name="orth">    8.09    8.09</time>
   <time name="total">  185.20  185.21</time>
   <energy>
    <i name="e_fr_energy">   -868.22924770 </i>
    <i name="e_wo_entrp">   -868.17839500 </i>
    <i name="e_0_energy">   -868.21229680 </i>
   </energy>
  </scstep>
  <scstep>
   <time name="diag">   44.10   44.10</time>
   <time name="diis">  116.32  116.33</time>
   <time name="orth">    8.08    8.08</time>
   <time name="total">  182.90  182.92</time>
   <energy>
    <i name="e_fr_energy">   -868.22924552 </i>
    <i name="e_wo_entrp">   -868.17842737 </i>
    <i name="e_0_energy">   -868.21230614 </i>
   </energy>
  </scstep>
  <scstep>
   <time name="diag">   43.83   43.84</time>
   <time name="diis">  116.23  116.24</time>
   <time name="orth">    8.08    8.08</time>
   <time name="total">  182.58  182.61</time>
   <energy>
    <i name="e_fr_energy">   -868.22924356 </i>
    <i name="e_wo_entrp">   -868.17845649 </i>
    <i name="e_0_energy">   -868.21231454 </i>
   </energy>
  </scstep>
  <scstep>
   <time name="diag">   43.86   43.87</time>
   <time name="diis">  109.24  109.25</time>
   <time name="orth">    8.08    8.08</time>
   <time name="total">  175.63  175.64</time>
   <energy>
    <i name="e_fr_energy">   -868.22924155 </i>
    <i name="e_wo_entrp">   -868.17848402 </i>
    <i name="e_0_energy">   -868.21232237 </i>
   </energy>
  </scstep>
  <scstep>
   <time name="diag">   44.16   44.17</time>
   <time name="diis">  109.89  109.90</time>
   <time name="orth">    8.08    8.08</time>
   <time name="total">  176.51  176.53</time>
   <energy>
    <i name="e_fr_energy">   -868.22923971 </i>
    <i name="e_wo_entrp">   -868.17851022 </i>
    <i name="e_0_energy">   -868.21232988 </i>
   </energy>
  </scstep>
  <scstep>
   <time name="diag">   44.22   44.22</time>
   <time name="diis">  100.22  100.23</time>
   <time name="orth">    8.08    8.08</time>
   <time name="total">  166.90  166.92</time>
   <energy>
    <i name="e_fr_energy">   -868.22923805 </i>
    <i name="e_wo_entrp">   -868.17853295 </i>
    <i name="e_0_energy">   -868.21233635 </i>
   </energy>
  </scstep>
  <scstep>
   <time name="diag">   43.88   43.89</time>
   <time name="diis">   99.53   99.54</time>
   <time name="orth">    8.08    8.08</time>
   <time name="total">  165.93  165.95</time>
   <energy>
    <i name="e_fr_energy">   -868.22923654 </i>
    <i name="e_wo_entrp">   -868.17855369 </i>
    <i name="e_0_energy">   -868.21234226 </i>
   </energy>
  </scstep>
  <scstep>
   <time name="diag">   44.02   44.03</time>
   <time name="diis">   95.96   95.97</time>
   <time name="orth">    8.08    8.08</time>
   <time name="total">  162.47  162.49</time>
   <energy>
    <i name="e_fr_energy">   -868.22923510 </i>
    <i name="e_wo_entrp">   -868.17857306 </i>
    <i name="e_0_energy">   -868.21234775 </i>
   </energy>
  </scstep>
  <scstep>
   <time name="diag">   43.85   43.85</time>
   <time name="diis">   95.57   95.58</time>
   <time name="orth">    8.08    8.08</time>
   <time name="total">  161.86  161.88</time>
   <energy>
    <i name="e_fr_energy">   -868.22923381 </i>
    <i name="e_wo_entrp">   -868.17859039 </i>
    <i name="e_0_energy">   -868.21235267 </i>
   </energy>
  </scstep>
  <scstep>
   <time name="diag">   43.48   43.49</time>
   <time name="diis">   94.61   94.62</time>
   <time name="orth">    8.07    8.07</time>
   <time name="total">  160.54  160.56</time>
   <energy>
    <i name="e_fr_energy">   -868.22923263 </i>
    <i name="e_wo_entrp">   -868.17860652 </i>
    <i name="e_0_energy">   -868.21235726 </i>
   </energy>
  </scstep>
  <scstep>
   <time name="diag">   43.34   43.34</time>
   <time name="diis">   94.06   94.07</time>
   <time name="orth">    8.05    8.05</time>
   <time name="total">  159.88  159.89</time>
   <energy>
    <i name="e_fr_energy">   -868.22923157 </i>
    <i name="e_wo_entrp">   -868.17862096 </i>
    <i name="e_0_energy">   -868.21236137 </i>
   </energy>
  </scstep>
  <scstep>
   <time name="diag">   43.19   43.19</time>
   <time name="diis">   93.52   93.53</time>
   <time name="orth">    7.98    7.98</time>
   <time name="total">  145.12  145.13</time>
   <energy>
    <i name="alphaZ">   7165.75404585 </i>
    <i name="ewald"> -65211.60014759 </i>
    <i name="hartreedc">  -9526.89302293 </i>
    <i name="XCdc">    355.54345577 </i>
    <i   <time name="diag">   41.03   41.06</time>
   <time name="diis">   90.88   90.90</time>
   <time name="orth">    8.02    8.04</time>
   <time name="total">  140.36  140.43</time>
   <energy>
    <i name="alphaZ">   7165.75404585 </i>
    <i name="ewald"> -65211.59894249 </i>
    <i name="hartreedc">  -9526.89425848 </i>
    <i name="XCdc">    355.54346184 </i>
    <i name="p  <structure>
   <crystal>
    <varray name="basis" >
     <v>      10.33484705       0.00000000       0.00000000 </v>
     <v>       0.00000000      10.33484705       0.00000000 </v>
     <v>       0.00000000       0.00000000      10.33484705 </v>
    </varray>
    <i name="volume">   1103.85533447 </i>
    <varray name="rec_basis" >
     <v>       0.09676002       0.  <structure>
   <crystal>
    <varray name="basis" >
     <v>      10.33484705       0.00000000       0.00000000 </v>
     <v>       0.00000000      10.33484705       0.00000000 </v>
     <v>       0.00000000       0.00000000      10.33484705 </v>
    </varray>
    <i name="volume">   1103.85533447 </i>
    <varray name="rec_basis" >
     <v>       0.09676002       0.00000000       0.00000000 </v>
     <v>       0.00000000       0.09676002       0.00000000 </v>
     <v>       0.00000000       0.00000000       0.09676002 </v>
    </varray>
   </crystal>
   <varray name="positions" >
    <v>       0.99995806       0.00000074       0.00012434 </v>
    <v>       0.99993626       0.16648002       0.16660513 </v>
    <v>       0.00004790       0.33376692       0.99985483 </v>
    <v>       0.00049821       0.49999927       0.16716656 </v>
    <v>       0.00004783       0.66623237       0.99985480 </v>
    <v>       0.99993623       0.83352069       0.16660521 </v>
    <v>       0.00004778       0.00000071       0.33331836 </v>
    <v>       0.00049819       0.16731121       0.50032455 </v>
    <v>       0.99997159       0.33362314       0.33344424 </v>
    <v>       0.00045885       0.49999924       0.50034269 </v>
    <v>       0.99997153       0.66637620       0.33344427 </v>
    <v>       0.00049825       0.83268949       0.50032451 </v>
    <v>       0.00004784       0.00000070       0.66655689 </v>
    <v>       0.99993630       0.16674972       0.83307019 </v>
    <v>       0.99997169       0.33364051       0.66670067 </v>
    <v>       0.00049835       0.49999922       0.83249059 </v>
    <v>       0.99997169       0.66635882       0.66670061 </v>
    <v>       0.99993630       0.83325105       0.83307014 </v>
    <v>       0.16665190       0.00000074       0.16671662 </v>
    <v>       0.16658699       0.16652667       0.00018952 </v>
    <v>       0.16658697       0.83347418       0.00018950 </v>
    <v>       0.16682828       0.33346955       0.49989333 </v>
    <v>       0.16840778       0.49999952       0.33507415 </v>
    <v>       0.16682816       0.66652986       0.49989328 </v>
    <v>       0.16692164       0.00000068       0.83295861 </v>
    <v>       0.16828985       0.49999916       0.66642191 </v>
    <v>       0.16677776       0.33362282       0.16664027 </v>
    <v>       0.16677774       0.66637646       0.16664032 </v>
    <v>       0.16644336       0.16645048       0.33310915 </v>
    <v>       0.16644334       0.83355030       0.33310925 </v>
    <v>       0.16812686       0.16813384       0.66670032 </v>
    <v>       0.16654903       0.33319069       0.83346595 </v>
    <v>       0.16654892       0.66680868       0.83346593 </v>
    <v>       0.16812683       0.83186699       0.66670018 </v>
    <v>       0.16827846       0.49999921       0.99850348 </v>
    <v>       0.16692767       0.00000063       0.50032463 </v>
    <v>       0.33366037       0.00000073       0.99985478 </v>
    <v>       0.33366041       0.16731075       0.16716625 </v>
    <v>       0.33366041       0.83269004       0.16716622 </v>
    <v>       0.33322780       0.33346969       0.33349422 </v>
    <v>       0.33322769       0.66652963       0.33349411 </v>
    <v>       0.33322838       0.16708205       0.83293997 </v>
    <v>       0.33406405       0.33430493       0.66642432 </v>
    <v>       0.33406294       0.66569450       0.66642448 </v>
    <v>       0.33322827       0.83291890       0.83293996 </v>
    <v>       0.33322854       0.33334091       0.00008354 </v>
    <v>       0.33367795       0.49999919       0.16712748 </v>
    <v>       0.33322852       0.66665840       0.00008362 </v>
    <v>       0.33366043       0.00000073       0.33359399 </v>
    <v>       0.33322850       0.16704351       0.49989361 </v>
    <v>       0.33322830       0.83295742       0.49989356 </v>
    <v>       0.33367780       0.00000068       0.66655098 </v>
    <v>       0.33406484       0.49999912       0.83214068 </v>
    <v>       0.49989229       0.00000074       0.16671652 </v>
    <v>       0.49989218       0.16821207       0.99850344 </v>
    <v>       0.50003594       0.33364056       0.16664022 </v>
    <v>       0.49988623       0.49999913       0.99862220 </v>
    <v>       0.50003597       0.66635874       0.16664018 </v>
    <v>       0.49989226       0.83178878       0.99850335 </v>
    <v>       0.49988625       0.00000067       0.50034275 </v>
    <v>       0.50003589       0.16813574       0.33479562 </v>
    <v>       0.49975748       0.33430540       0.50073121 </v>
    <v>       0.49975656       0.49999929       0.33495654 </v>
    <v>       0.49975794       0.66569286       0.50073104 </v>
    <v>       0.50003594       0.83186510       0.33479551 </v>
    <v>       0.49989223       0.00000069       0.83294054 </v>
    <v>       0.50003591       0.16801773       0.66670069 </v>
    <v>       0.50003664       0.33402664       0.83262811 </v>
    <v>       0.50003665       0.66597269       0.83262832 </v>
    <v>       0.50003590       0.83198339       0.66670067 </v>
    <v>       0.66672348       0.33333519       0.00008361 </v>
    <v>       0.66582373       0.49999922       0.16716658 </v>
    <v>       0.66672358       0.66666423       0.00008373 </v>
    <v>       0.66629172       0.00000064       0.33358815 </v>
    <v>       0.66627325       0.16708237       0.49989359 </v>
    <v>       0.66627326       0.83291816       0.49989346 </v>
    <v>       0.66627430       0.00000064       0.66655671 </v>
    <v>       0.66543660       0.49999909       0.83210126 </v>
    <v>       0.66640352       0.16674955       0.16660509 </v>
    <v>       0.66640355       0.83325119       0.16660504 </v>
    <v>       0.66679958       0.33319137       0.33321582 </v>
    <v>       0.66679975       0.66680802       0.33321562 </v>
    <v>       0.66683551       0.16652084       0.83350107 </v>
    <v>       0.66596424       0.33402641       0.66670312 </v>
    <v>       0.66596452       0.66597293       0.66670315 </v>
    <v>       0.66683560       0.83348009       0.83350122 </v>
    <v>       0.66638153       0.00000064       0.99985482 </v>
    <v>       0.66547675       0.49999828       0.50073120 </v>
    <v>       0.83183521       0.49999928       0.99850350 </v>
    <v>       0.83318600       0.00000065       0.50032455 </v>
    <v>       0.83318623       0.33376684       0.16671657 </v>
    <v>       0.83318622       0.66623248       0.16671658 </v>
    <v>       0.83352066       0.16652665       0.33325318 </v>
    <v>       0.83352061       0.83347407       0.33325323 </v>
    <v>       0.83183717       0.16820997       0.66655618 </v>
    <v>       0.83341500       0.33333464       0.83338969 </v>
    <v>       0.83341512       0.66666472       0.83338977 </v>
    <v>       0.83183717       0.83179082       0.66655605 </v>
    <v>       0.83345574       0.00000071       0.16662686 </v>
    <v>       0.83352071       0.16643678       0.00018956 </v>
    <v>       0.83352064       0.83356399       0.00018958 </v>
    <v>       0.83341491       0.33334073       0.49989351 </v>
    <v>       0.83183543       0.49999930       0.33494518 </v>
    <v>       0.83341510       0.66665864       0.49989340 </v>
    <v>       0.83318603       0.00000070       0.83304844 </v>
    <v>       0.83195348       0.49999915       0.66655082 </v>
    <v>       0.37548949       0.49999911       0.54215414 </v>
   </varray>
  </structure>
  <varray name="forces" >
   <v>      -0.01524127      -0.00006213       0.01625215 </v>
   <v>      -0.01866190      -0.01586796      -0.01887286 </v>
   <v>      -0.00571892       0.00851846       0.00786838 </v>
   <v>       0.20032996       0.00006834       0.20014114 </v>
   <v>      -0.00571635      -0.00845075       0.00787263 </v>
   <v>      -0.01865866       0.01580901      -0.01888055 </v>
   <v>       0.01386371      -0.00005916       0.00988566 </v>
   <v>       0.10744615       0.10275850      -0.01490711 </v>
   <v>       0.02635381      -0.00667487       0.02673373 </v>
   <v>       0.09889726       0.00006555      -0.04063726 </v>
   <v>       0.02635330       0.00673399       0.02671700 </v>
   <v>       0.10742553      -0.10281814      -0.01490870 </v>
   <v>      -0.00724969      -0.00004866      -0.00211444 </v>
   <v>       0.00606629      -0.00055863       0.00458341 </v>
   <v>       0.07525477       0.01879754       0.00590707 </v>
   <v>       0.00377723       0.00007446       0.01468784 </v>
   <v>       0.07524787      -0.01874492       0.00591224 </v>
   <v>       0.00606306       0.00049064       0.00458866 </v>
   <v>       0.00988816      -0.00006371       0.01364784 </v>
   <v>       0.00953584       0.00385256       0.01346330 </v>
   <v>       0.00953721      -0.00392999       0.01346609 </v>
   <v>       0.09214197       0.13974756       0.01165445 </v>
   <v>      -0.10486469       0.00004347      -0.10477780 </v>
   <v>       0.09215141      -0.13968919       0.01165588 </v>
   <v>      -0.00691517      -0.00005225      -0.02755198 </v>
   <v>      -0.01279977       0.00007425      -0.12065675 </v>
   <v>       0.02671645      -0.00664028       0.02613291 </v>
   <v>       0.02671837       0.00671009       0.02612269 </v>
   <v>      -0.01056164       0.00927155      -0.01051414 </v>
   <v>      -0.01055772      -0.00933222      -0.01052881 </v>
   <v>      -0.03693826      -0.00364886       0.01341179 </v>
   <v>       0.00658377      -0.03364550       0.01132686 </v>
   <v>       0.00659422       0.03369738       0.01133937 </v>
   <v>      -0.03694627       0.00358741       0.01341999 </v>
   <v>       0.08307689       0.00007893      -0.15565611 </v>
   <v>       0.00856415      -0.00005133       0.02177019 </v>
   <v>      -0.00804949      -0.00005753      -0.09448346 </v>
   <v>      -0.01509923       0.10281866       0.10727403 </v>
   <v>      -0.01509989      -0.10288559       0.10726492 </v>
   <v>       0.01157706       0.13974554       0.09225678 </v>
   <v>       0.01159500      -0.13966691       0.09225756 </v>
   <v>      -0.00563934      -0.10461515       0.12889351 </v>
   <v>      -0.01763480      -0.89395209       0.53594140 </v>
   <v>      -0.01751734       0.89398614       0.53589154 </v>
   <v>      -0.00562628       0.10452376       0.12888482 </v>
   <v>      -0.00078246      -0.01524066      -0.05278226 </v>
   <v>      -0.04078185       0.00007576       0.09867433 </v>
   <v>      -0.00078172       0.01530078      -0.05279288 </v>
   <v>       0.02158315      -0.00006416       0.00860629 </v>
   <v>       0.00225475       0.03044870       0.00241345 </v>
   <v>       0.00229911      -0.03055363       0.00241763 </v>
   <v>       0.00356146      -0.00005729       0.02909549 </v>
   <v>       0.04781028      -0.00001160       0.03025571 </v>
   <v>      -0.00227540      -0.00006386      -0.00744020 </v>
   <v>      -0.00923686       0.05340402      -0.06980041 </v>
   <v>       0.00574115       0.01881816       0.07505711 </v>
   <v>       0.00912654       0.00008395      -0.06329776 </v>
   <v>       0.00573447      -0.01875678       0.07506131 </v>
   <v>      -0.00925186      -0.05348225      -0.06980153 </v>
   <v>       0.02892906      -0.00006319       0.00371456 </v>
   <v>       0.01320100      -0.00380406      -0.03709656 </v>
   <v>       0.53597568      -0.89394215      -0.01755039 </v>
   <v>      -0.12075448       0.00006136      -0.01276409 </v>
   <v>       0.53591659       0.89407707      -0.01750026 </v>
   <v>       0.01319726       0.00372051      -0.03708976 </v>
   <v>      -0.00444273      -0.00006063       0.00816001 </v>
   <v>       0.03891973      -0.00174398       0.03909116 </v>
   <v>       0.04994673       0.00473580       0.06076526 </v>
   <v>       0.04994246      -0.00465782       0.06072793 </v>
   <v>       0.03891513       0.00161428       0.03907713 </v>
   <v>       0.01279171      -0.00019489      -0.00138370 </v>
   <v>       0.01468170       0.00006932       0.00358415 </v>
   <v>       0.01277836       0.00023589      -0.00140172 </v>
   <v>      -0.02757941      -0.00005105      -0.00688237 </v>
   <v>       0.12889693      -0.10461501      -0.00548611 </v>
   <v>       0.12888316       0.10455957      -0.00547251 </v>
   <v>       0.00811778      -0.00005871      -0.00426453 </v>
   <v>       0.02782268       0.00009485       0.02806254 </v>
   <v>       0.00454593      -0.00052640       0.00584989 </v>
   <v>       0.00454011       0.00045331       0.00585945 </v>
   <v>       0.01124934      -0.03366542       0.00666784 </v>
   <v>       0.01122698       0.03370652       0.00670030 </v>
   <v>      -0.01156670       0.00913431      -0.01147627 </v>
   <v>       0.06055075       0.00463449       0.04992804 </v>
   <v>       0.06052309      -0.00456373       0.04991888 </v>
   <v>      -0.01157535      -0.00923131      -0.01150334 </v>
   <v>       0.00090460      -0.00004252       0.00117228 </v>
   <v>       0.03017047       0.00016751       0.04775535 </v>
   <v>      -0.08760239       0.00006714      -0.08780744 </v>
   <v>      -0.09428089      -0.00005248      -0.00786651 </v>
   <v>       0.00804001       0.00853977      -0.00591747 </v>
   <v>       0.00805225      -0.00847695      -0.00592588 </v>
   <v>       0.01345785       0.00383554       0.00960566 </v>
   <v>       0.01346212      -0.00389671       0.00959957 </v>
   <v>      -0.06977044       0.05359589      -0.00901838 </v>
   <v>      -0.00114532      -0.00015614       0.01285030 </v>
   <v>      -0.00115380       0.00020986       0.01284222 </v>
   <v>      -0.06977093      -0.05367321      -0.00901591 </v>
   <v>       0.01642514      -0.00005712      -0.01544315 </v>
   <v>       0.01269444      -0.00484131       0.01249834 </v>
   <v>       0.01270817       0.00477409       0.01249787 </v>
   <v>      -0.05256540      -0.01524654      -0.00063605 </v>
   <v>      -0.15548583       0.00005977       0.08310704 </v>
   <v>      -0.05260877       0.01527943      -0.00062032 </v>
   <v>       0.00137827      -0.00005444       0.00091849  <energy>
   <i name="e_fr_energy">   -868.22923062 </i>
   <i name="e_wo_entrp">   -868.21236507 </i>
   <i name="e_0_energy">     -0.05059665 </i>
  </energy>
  <time name="totalsc">13659.7113666.90</time>
 </calculation>
06 </v>
   <v>      -0.00006937      -1.50847328      -0.00022159 </v>
   <v>      -0.90318398      -0.00022152      -8.89005427 </v>
  </varray>
  <energy>
   <i name="e_fr_energy">   -868.22923182 </i>
   <i name="e_wo_entrp">   -868.21237028 </i>
   <i name="e_0_energy">     -0.05058463 </i>
  </energy>
  <time name="totalsc">136   <time name="dav">  326.14  326.17</time>
   <time name="total">  340.37  340.42</time>
   <energy>
    <i name="alphaZ">   7165.75   <time name="total">  345.97  346.22</time>
   <energy>
    <i name="alphaZ">   7165.75404585 </i>
    <i name="ewald"> -65187.28031196 </i>
    <i name="hartreedc">  -9554.05973710 </i>
    <i name="XCdc">    355.90128629 </i>
    <i name="pawpsdc">  57440.54397247 </i>
    <i name="pawaedc"> -58367.25579166 </i>
    <i name="eentropy">     -0.03243357 </i>
    <i name="bandstr">   3671.88250164 </i>
    <i name="atom">  63607.21096501 </i>
    <i name="e_fr_energy">   -867.33550303 </i>
    <i name="e_wo_entrp">   -867.30306946   <time name="diag">   42.43   42.43</time>
   <time name="diis">  223.22  223.23</time>
   <time name="orth">    8.21    8.21</time>   <time name="diis">  240.52  240.69</time>
   <time name="orth">    8.32    8.33</time>
   <time name="total">  308.17  308.39</time>
   <energy>
    <i name="e_fr_energy">   -888.85362699 </i>
    <i name="e_wo_entrp">   -888.82749019   <time name="diag">   41.67   41.67</time>
   <time name="diis">  204.48  204.50</time>
   <time name="orth">    8.20    8.20</time>   <time name="diis">  201.33  201.45</time>
   <time name="orth">    8.35    8.35</time>
   <time name="total">  269.12  269.27</time>
   <energy>
    <i name="e_fr_energy">   -869.84470429 </i>
    <i name="e_wo_entrp">   -869.78483443   <time name="diag">   41.79   41.80</time>
   <time name="diis">  263.09  263.11</time>
   <time name="orth">    8.01    8.01</time>
   <time name="total">  327.43  327.46</time>
   <energy>
    <i name="e_fr_energy">   -868.40956055 </i>
    <i name="e_wo_entrp">   -868.35645740 </i>
    <i name="e_0_energy">   -868.39185950 </i>
   </energy>
  </scstep>
  <scstep>
   <time name="diag">   42.39   42.40</time>
   <time name="diis">  268.63  268.65</time>
   <time name="orth">    7.93    7.94</time>
   <time name="total">  333.12  333.15</time>
   <energy>
    <i name="e_fr_energy">   -868.42074565 </i>
    <i name="e_wo_entrp">   -868.36860133 </i>
    <i name="e_0_energy">   -868.40336421 </i>
   </energy>
  </scstep>
  <scstep>
   <time name="diag">   42.38   42.39</time>
   <time name="diis">  229.15  229.18</time>
   <time name="orth">    8.17    8.17</time>    <time name="total">  294.39  294.43</time   <time name="orth">    8.27    8.27</time>
   <time name="total">  321.97  322.15</time>
   <energy>
    <i name="e_fr_energy">   -867.55218256 </i>
    <i name="e_wo_entrp">   -867.50658103   <time name="diag">   40.97   40.98</time>
   <time name="diis">  247.37  247.41</time>
   <time name="orth">    8.18    8.18</time>    <time name="total">  310.89  310.93</time>
   <energy>
    <i name="e_fr_energy">   -8   <time name="total">  301.62  301.79</time>
   <energy>
    <i name="e_fr_energy">   -867.52325504 </i>
    <i name="e_wo_entrp">   -867.48301083   <time name="diag">   41.53   41.54</time>
   <time name="diis">  203.74  203.77</time>
   <time name="orth">    8.18    8.18</time>   <time name="diis">  253.02  253.17</time>
   <time name="orth">    8.38    8.38</time>
   <time name="total">  320.99  321.20</time>
   <energy>
    <i name="e_fr_energy">   -867.54126161 </i>
    <i name="e_wo_entrp">   -867.49357690 </i>
    <i name="e_0_energy">   -867.525366   <time name="diis">  232.15  232.17</time>
   <time name="orth">    8.20    8.20</time>   <time name="diis">  200.93  201.05</time>
   <time name="orth">    8.33    8.33</time>
   <time name="total">  268.14  268.31</time>
   <energy>
    <i name="e_fr_energy">   -867.48800349 </i>
    <i name="e_wo_entrp">   -867.43788748   <time name="diag">   41.18   41.18</time>
   <time name="diis">  233.70  233.73</time>
   <time name="orth">    8.18    8.18</time>   <time name="diis">  235.16  235.31</time>
   <time name="orth">    8.34    8.34</time>
   <time name="total">  302.65  302.83</time>
   <energy>
    <i name="e_fr_energy">   -867.51549355 </i>
    <i name="e_wo_entrp">   -867.46315856   <time name="diag">   41.11   41.11</time>
   <time name="diis">  207.48  207.49</time>
   <time name="orth">    8.17    8.17</time>   <time name="diis">  211.92  212.05</time>
   <time name="orth">    8.32    8.32</time>
   <time name="total">  279.51  279.67</time>
   <energy>
    <i name="e_fr_energy">   -867.51819024 </i>
    <i name="e_wo_entrp">   -867.46228688 </i>
    <i name="e_0_energy">   -867.499555   <time name="diis">  273.13  273.15</time>
   <time name="orth">    8.17    8.17</time>   <time name="diis">  252.01  252.18</time>
   <time name="orth">    8.29    8.29</time>
   <time name="total">  319.07  319.27</time>
   <energy>
    <i name="e_fr_energy">   -867.50703785 </i>
    <i name="e_wo_entrp">   -867.45236514   <time name="diag">   41.08   41.08</time>
   <time name="diis">  227.79  227.81</time>
   <time name="orth">    8.16    8.17</time>
   <time name="total">  291.23  291.25</time>
   <energy>
    <i name="e_fr_energy">   -8   <time name="total">  270.82  270.96</time>
   <energy>
    <i name="e_fr_energy">   -867.48061291 </i>
    <i name="e_wo_entrp">   -867.43019628   <time name="diag">   41.54   41.55</time>
   <time name="diis">  249.15  249.18</time>
   <time name="orth">    8.17    8.17</time>    <time name="total">  313.71  313.74</time   <time name="orth">    8.29    8.30</time>
   <time name="total">  327.45  327.65</time>
   <energy>
    <i name="e_fr_energy">   -867.47890023 </i>
    <i name="e_wo_entrp">   -867.43037594   <time name="diag">   41.24   41.25</time>
   <time name="diis">  241.87  241.90</time>
   <time name="orth">    8.20    8.20</time>   <time name="diis">  282.25  282.45</time>
   <time name="orth">    8.39    8.41</time>
   <time name="total">  350.06  350.33</time>
   <energy>
    <i name="e_fr_energy">   -867.47947790 </i>
    <i name="e_wo_entrp">   -867.43107121 </i>
    <i name="e_0_energy">   -867.463342   <time name="diis">  205.85  205.88</time>
   <time name="orth">    8.17    8.18</time>   <time name="diis">  222.68  222.80</time>
   <time name="orth">    8.37    8.38</time>
   <time name="total">  290.46  290.60</time>
   <energy>
    <i name="e_fr_energy">   -867.47897862 </i>
    <i name="e_wo_entrp">   -867.43018139 </i>
    <i name="e_0_energy">   -867.462712   <time name="diis">  259.42  259.45</time>
   <time name="orth">    8.18    8.19</time>   <time name="diis">  273.34  273.52</time>
   <time name="orth">    8.37    8.37</time>
   <time name="total">  341.04  341.27</time>
   <energy>
    <i name="e_fr_energy">   -867.47898277 </i>
    <i name="e_wo_entrp">   -867.43007285 </i>
    <i name="e_0_energy">   -867.462679   <time name="diis">  205.27  205.28</time>
   <time name="orth">    8.16    8.16</time>   <time name="diis">  212.26  212.38</time>
   <time name="orth">    8.34    8.34</time>
   <time name="total">  279.71  279.90</time>
   <energy>
    <i name="e_fr_energy">   -867.47885675 </i>
    <i name="e_wo_entrp">   -867.42965815 </i>
    <i name="e_0_energy">   -867.462457   <time name="diis">  162.14  162.16</time>
   <time name="orth">    8.20    8.20</time>   <time name="diis">  263.90  264.03</time>
   <time name="orth">    8.22    8.22</time>
   <time name="total">  329.49  329.65</time>
   <energy>
    <i name="e_fr_energy">   -867.47883678 </i>
    <i name="e_wo_entrp">   -867.42961703 </i>
    <i name="e_0_energy">   -867.46243020 </i>
   </energy>
  </scstep>
  <scstep>
   <time name="diag">   40.12   40.13</time>
   <time name="diis">  206.57  206.72</time>
   <time name="orth">    8.05    8.05</time>
   <time name="total">  269.44  269.62</time>
   <energy>
    <i name="e_fr_energy">   -867.47882729 </i>
    <i name="e_wo_entrp">   -867.42954889 </i>
    <i name="e_0_energy">   -867.46240116 </i>
   </energy>
  </scstep>
  <scstep>
   <time name="diag">   40.23   40.26</time>
   <time name="diis">  170.59  170.67</time>
   <time name="orth">    7.01    7.01</time>
   <time name="total">  230.67  230.80</time>
   <energy>
    <i name="e_fr_energy">   -867.47881176 </i>
    <i name="e_wo_entrp">   -867.42954964 </i>
    <i name="e_0_energy">   -867.46239106 </i>
   </energy>
  </scstep>
  <scstep>
   <time name="diag">   31.16   31.18</time>
   <time name="diis">  184.41  184.53</time>
   <time name="orth">    7.01    7.01</time>
   <time name="total">  235.36  235.51</time>
   <energy>
    <i name="e_fr_energy">   -867.47881536 </i>
    <i name="e_wo_entrp">   -867.42953903 </i>
    <i name="e_0_energy">   -867.46238992 </i>
   </energy>
  </scstep>
  <scstep>
   <time name="diag">   31.16   31.19</time>
   <time name="diis">  133.02  133.07</time>
   <time name="orth">    7.01    7.01</time>
   <time name="total">  183.98  184.07</time>
   <energy>
    <i name="e_fr_energy">   -867.47881195 </i>
    <i name="e_wo_entrp">   -867.42952169 </i>
    <i name="e_0_energy">   -867.46238186 </i>
   </energy>
  </scstep>
  <scstep>
   <time name="diag">   31.16   31.17</time>
   <time name="diis">  101.17  101.23</time>
   <time name="orth">    7.00    7.00</time>
   <time name="total">  139.67  139.75</time>
   <energy>
    <i name="alphaZ">   7165.75404585 </i>
    <i name="ewald"> -65187.28031196 </i>
    <i name="hartreedc">  -9552.61194444 </i>
    <i name="XCdc">    355.78158669 </i>
    <i name="pawpsdc">  57435.90763818 </i>
    <i name="pawaedc"> -58362.46115588 </i>
    <i name="eentropy">     -0.04928584 </i>
    <i name="bandstr">   3670.26965109 </i>
    <i name="atom">  63607.21096501 </i>
    <i name="e_fr_energy">   -867.47881128 </i>
    <i name="e_wo_entrp">   -867.42952544 </i>
    <i name="e_0_energy">   -867.46238267 </i>
   </energy>
  </scstep>
  <structure>
   <crystal>
    <varray name="basis" >
     <v>      10.33484705       0.00000000       0.00000000 </v>
     <v>       0.00000000      10.33484705       0.00000000 </v>
     <v>       0.00000000       0.00000000      10.33484705 </v>
    </varray>
    <i name="volume">   1103.85533447 </i>
    <varray name="rec_basis" >
     <v>       0.09676002       0.00000000       0.00000000 </v>
     <v>       0.00000000       0.09676002       0.00000000 </v>
     <v>       0.00000000       0.00000000       0.09676002 </v>
    </varray>
   </crystal>
   <varray name="positions" >
    <v>       0.99983242       0.00000028       0.00016743 </v>
    <v>       0.99981710       0.16639789       0.16648519 </v>
    <v>       0.00006896       0.33380432       0.99993090 </v>
    <v>       0.00182146       0.49999976       0.16848884 </v>
    <v>       0.00006895       0.66619543       0.99993089 </v>
    <v>       0.99981710       0.83360240       0.16648523 </v>
    <v>       0.00021549       0.00000026       0.33349135 </v>
    <v>       0.00162991       0.16838412       0.50015116 </v>
    <v>       0.99995017       0.33342301       0.33336094 </v>
    <v>       0.00124043       0.49999968       0.50009151 </v>
    <v>       0.99995012       0.66657678       0.33336089 </v>
    <v>       0.00162991       0.83161612       0.50015108 </v>
    <v>       0.00053087       0.00000029       0.66640848 </v>
    <v>       0.99987202       0.16670038       0.83321977 </v>
    <v>       1.00027761       0.33350207       0.66678281 </v>
    <v>       0.00152911       0.49999972       0.83162368 </v>
    <v>       1.00027759       0.66649764       0.66678277 </v>
    <v>       0.99987199       0.83329993       0.83321975 </v>
    <v>       0.16682452       0.00000027       0.16688346 </v>
    <v>       0.16678003       0.16670035       0.00012784 </v>
    <v>       0.16678001       0.83329999       0.00012784 </v>
    <v>       0.16697142       0.33385527       0.49975354 </v>
    <v>       0.16750674       0.50000004       0.33417325 </v>
    <v>       0.16697134       0.66614457       0.49975345 </v>
    <v>       0.16703714       0.00000028       0.83296270 </v>
    <v>       0.16754892       0.49999968       0.66579117 </v>
    <v>       0.16669420       0.33342276       0.16661795 </v>
    <v>       0.16669418       0.66657702       0.16661793 </v>
    <v>       0.16643527       0.16645430       0.33310151 </v>
    <v>       0.16643526       0.83354603       0.33310151 </v>
    <v>       0.16711209       0.16739765       0.66687951 </v>
    <v>       0.16643743       0.33289155       0.83356232 </v>
    <v>       0.16643740       0.66710821       0.83356234 </v>
    <v>       0.16711204       0.83260273       0.66687944 </v>
    <v>       0.16837651       0.49999973       0.99847076 </v>
    <v>       0.16693034       0.00000024       0.50025046 </v>
    <v>       0.33359162       0.00000031       0.99946899 </v>
    <v>       0.33348604       0.16838377       0.16829690 </v>
    <v>       0.33348602       0.83161656       0.16829682 </v>
    <v>       0.33308733       0.33385505       0.33363743 </v>
    <v>       0.33308727       0.66614479       0.33363731 </v>
    <v>       0.33312044       0.16739765       0.83288770 </v>
    <v>       0.33063302       0.32601648       0.66936707 </v>
    <v>       0.33063281       0.67398311       0.66936671 </v>
    <v>       0.33312040       0.83260268       0.83288763 </v>
    <v>       0.33321710       0.33350205      -0.00027773 </v>
    <v>       0.33342609       0.49999973       0.16790824 </v>
    <v>       0.33321707       0.66649769      -0.00027770 </v>
    <v>       0.33358522       0.00000027       0.33359702 </v>
    <v>       0.33307834       0.16788025       0.49974409 </v>
    <v>       0.33307829       0.83212005       0.49974402 </v>
    <v>       0.33343176       0.00000028       0.66656814 </v>
    <v>       0.33420885       0.49999972       0.83245066 </v>
    <v>       0.49974333       0.00000028       0.16719880 </v>
    <v>       0.49984906       0.16838447       0.99836991 </v>
    <v>       0.50011742       0.33350212       0.16694549 </v>
    <v>       0.49990860       0.49999969       0.99875945 </v>
    <v>       0.50011741       0.66649761       0.16694546 </v>
    <v>       0.49984906       0.83161588       0.99836985 </v>
    <v>       0.49990274       0.00000022       0.50009736 </v>
    <v>       0.50021399       0.16739847       0.33377966 </v>
    <v>       0.50270004       0.32601691       0.49730031 </v>
    <v>       0.49912498       0.49999982       0.33421571 </v>
    <v>       0.50270009       0.67398228       0.49730031 </v>
    <v>       0.50021399       0.83260185       0.33377956 </v>
    <v>       0.49974971       0.00000027       0.83306954 </v>
    <v>       0.50025608       0.16788015       0.66692165 </v>
    <v>       0.50024662       0.33385533       0.83302817 </v>
    <v>       0.50024662       0.66614447       0.83302823 </v>
    <v>       0.50025606       0.83212024       0.66692162 </v>
    <v>       0.66663930       0.33342291       0.00004973 </v>
    <v>       0.66495664       0.49999968       0.16819658 </v>
    <v>       0.66663932       0.66657684       0.00004974 </v>
    <v>       0.66629601       0.00000023       0.33370414 </v>
    <v>       0.66622066       0.16739805       0.49978611 </v>
    <v>       0.66622055       0.83260176       0.49978602 </v>
    <v>       0.66640324       0.00000022       0.66641476 </v>
    <v>       0.66582644       0.49999964       0.83249240 </v>
    <v>       0.66655338       0.16670042       0.16654007 </v>
    <v>       0.66655338       0.83329984       0.16654003 </v>
    <v>       0.66689560       0.33289213       0.33310469 </v>
    <v>       0.66689569       0.66710760       0.33310458 </v>
    <v>       0.66689872       0.16645422       0.83356448 </v>
    <v>       0.66636290       0.33385490       0.66691249 </v>
    <v>       0.66636304       0.66614487       0.66691256 </v>
    <v>       0.66689876       0.83354608       0.83356455 </v>
    <v>       0.66650867       0.00000028       0.99978436 </v>
    <v>       0.66578529       0.49999933       0.50087488 </v>
    <v>       0.83151079       0.49999975       0.99817826 </v>
    <v>       0.83280119       0.00000023       0.50025682 </v>
    <v>       0.83326315       0.33380441       0.16673693 </v>
    <v>       0.83326320       0.66619535       0.16673689 </v>
    <v>       0.83345999       0.16670045       0.33344682 </v>
    <v>       0.83346000       0.83329983       0.33344683 </v>
    <v>       0.83170327       0.16838369       0.66651390 </v>
    <v>       0.83338216       0.33342266       0.83330557 </v>
    <v>       0.83338222       0.66657709       0.83330559 </v>
[...]
       <r>    4.3196    1.0000 </r>
       <r>    4.3333    1.0000 </r>
       <r>    4.3428    1.0000 </r>
       <r>    4.3580    1.0000 </r>
       <r>    4.3690    1.0000 </r>
       <r>    4.3801    1.0000 </r>
       <r>    4.3862    1.0000 </r>
       <r>    4.3925    1.0000 </r>
       <r>    4.4103    1.0000 </r>
       <r>    4.4193    1.0000 </r>
       <r>    4.4338    1.0000 </r>
       <r>    4.4514    1.0000 </r>
       <r>    4.4616    1.0000 </r>
       <r>    4.4745    1.0000 </r>
       <r>    4.4849    1.0000 </r>
       <r>    4.4949    1.0000 </r>
       <r>    4.5001    1.0000 </r>
       <r>    4.5071    1.0000 </r>
       <r>    4.5235    1.0000 </r>
       <r>    4.5340    1.0000 </r>
       <r>    4.5402    1.0000 </r>
       <r>    4.5490    1.0000 </r>
       <r>    4.5658    1.0000 </r>
       <r>    4.5721    1.0000 </r>
       <r>    4.5891    1.0000 </r>
       <r>    4.5973    1.0000 </r>
       <r>    4.6049    1.0000 </r>
       <r>    4.6090    1.0000 </r>
       <r>    4.6231    1.0000 </r>
       <r>    4.6370    1.0000 </r>
       <r>    4.6547    1.0000 </r>
       <r>    4.6954    1.0000 </r>
       <r>    4.7054    1.0000 </r>
       <r>    4.7182    1.0000 </r>
       <r>    4.7283    1.0000 </r>
       <r>    4.7334    1.0000 </r>
       <r>    4.7600    1.0000 </r>
       <r>    4.7652    1.0000 </r>
       <r>    4.7708    1.0000 </r>
       <r>    4.7863    1.0000 </r>
       <r>    4.7948    1.0000 </r>
       <r>    4.8017    1.0000 </r>
       <r>    4.8082    1.0000 </r>
       <r>    4.8129    1.0000 </r>
       <r>    4.8186    1.0000 </r>
       <r>    4.8272    1.0000 </r>
       <r>    4.8308    1.0000 </r>
       <r>    4.8358    1.0000 </r>
       <r>    4.8450    1.0000 </r>
       <r>    4.8579    1.0000 </r>
       <r>    4.8644    1.0000 </r>
       <r>    4.8703    1.0000 </r>
       <r>    4.8798    1.0000 </r>
       <r>    4.8923    1.0000 </r>
       <r>    4.8970    1.0000 </r>
       <r>    4.9059    1.0000 </r>
       <r>    4.9107    1.0000 </r>
       <r>    4.9242    1.0000 </r>
       <r>    4.9310    1.0000 </r>
       <r>    4.9393    1.0000 </r>
       <r>    4.9493    1.0000 </r>
       <r>    4.9565    1.0000 </r>
       <r>    4.9592    1.0000 </r>
       <r>    4.9696    1.0000 </r>
       <r>    4.9821    1.0000 </r>
       <r>    4.9943    1.0000 </r>
       <r>    5.0010    1.0000 </r>
       <r>    5.0073    1.0000 </r>
       <r>    5.0125    1.0000 </r>
       <r>    5.0302    1.0000 </r>
       <r>    5.0371    1.0000 </r>
       <r>    5.0461    1.0000 </r>
       <r>    5.0632    1.0000 </r>
       <r>    5.0806    1.0000 </r>
       <r>    5.0860    1.0000 </r>
       <r>    5.1004    1.0000 </r>
       <r>    5.1166    1.0000 </r>
       <r>    5.1254    1.0000 </r>
       <r>    5.1350    1.0000 </r>
       <r>    5.1378    1.0000 </r>
       <r>    5.1467    1.0000 </r>
       <r>    5.1552    1.0000 </r>
       <r>    5.1652    1.0000 </r>
       <r>    5.1714    1.0000 </r>
       <r>    5.1800    1.0000 </r>
       <r>    5.1911    1.0000 </r>
       <r>    5.1994    1.0000 </r>
       <r>    5.2053    1.0000 </r>
       <r>    5.2105    1.0000 </r>
       <r>    5.2173    1.0000 </r>
       <r>    5.2229    1.0000 </r>
       <r>    5.2322    1.0000 </r>
       <r>    5.2350    1.0000 </r>
       <r>    5.2411    1.0000 </r>
       <r>    5.2476    1.0000 </r>
       <r>    5.2608    1.0000 </r>
       <r>    5.2707    1.0000 </r>
       <r>    5.2809    1.0000 </r>
       <r>    5.2950    1.0000 </r>
       <r>    5.2984    1.0000 </r>
       <r>    5.3165    1.0000 </r>
       <r>    5.3229    1.0000 </r>
       <r>    5.3278    1.0000 </r>
       <r>    5.3341    1.0000 </r>
       <r>    5.3427    1.0000 </r>
       <r>    5.3471    1.0000 </r>
       <r>    5.3527    1.0000 </r>
       <r>    5.3572    1.0000 </r>
       <r>    5.3679    1.0000 </r>
       <r>    5.3709    1.0000 </r>
       <r>    5.3775    1.0000 </r>
       <r>    5.3847    1.0000 </r>
       <r>    5.3898    1.0000 </r>
       <r>    5.3937    1.0000 </r>
       <r>    5.3965    1.0000 </r>
       <r>    5.4003    1.0000 </r>
       <r>    5.4186    1.0000 </r>
       <r>    5.4225    1.0000 </r>
       <r>    5.4279    1.0000 </r>
       <r>    5.4357    1.0000 </r>
       <r>    5.4419    1.0000 </r>
       <r>    5.4450    1.0000 </r>
       <r>    5.4533    1.0000 </r>
       <r>    5.4618    1.0000 </r>
       <r>    5.4709    1.0000 </r>
       <r>    5.4749    1.0000 </r>
       <r>    5.4833    1.0000 </r>
       <r>    5.4922    1.0000 </r>
       <r>    5.4939    1.0000 </r>
       <r>    5.5093    1.0000 </r>
       <r>    5.5153    1.0000 </r>
       <r>    5.5238    1.0000 </r>
       <r>    5.5284    1.0000 </r>
       <r>    5.5415    1.0000 </r>
       <r>    5.5513    1.0000 </r>
       <r>    5.5570    1.0000 </r>
       <r>    5.5696    1.0000 </r>
       <r>    5.5783    1.0000 </r>
       <r>    5.5843    1.0000 </r>
       <r>    5.5996    1.0000 </r>
       <r>    5.6105    1.0000 </r>
       <r>    5.6276    1.0000 </r>
       <r>    5.6363    1.0000 </r>
       <r>    5.6463    1.0000 </r>
       <r>    5.6690    1.0000 </r>
       <r>    5.6885    1.0000 </r>
       <r>    5.7029    1.0000 </r>
       <r>    5.7218    1.0000 </r>
       <r>    5.7325    1.0000 </r>
       <r>    5.7496    1.0000 </r>
       <r>    5.7578    1.0000 </r>
       <r>    5.7667    1.0000 </r>
       <r>    5.7803    1.0000 </r>
       <r>    5.7866    1.0000 </r>
       <r>    5.7888    1.0000 </r>
       <r>    5.8042    1.0000 </r>
       <r>    5.8148    1.0000 </r>
       <r>    5.8367    1.0000 </r>
       <r>    5.8600    1.0000 </r>
       <r>    5.8843    1.0000 </r>
       <r>    5.9116    1.0000 </r>
       <r>    5.9197    1.0000 </r>
       <r>    5.9496    1.0000 </r>
       <r>    5.9793    1.0000 </r>
       <r>    5.9890    1.0000 </r>
       <r>    5.9954    1.0000 </r>
       <r>    6.0025    1.0000 </r>
       <r>    6.0224    1.0000 </r>
       <r>    6.0286    1.0000 </r>
       <r>    6.0344    1.0000 </r>
       <r>    6.0551    1.0000 </r>
       <r>    6.0670    1.0000 </r>
       <r>    6.0739    1.0000 </r>
       <r>    6.0891    1.0001 </r>
       <r>    6.0994    1.0001 </r>
       <r>    6.1154    1.0001 </r>
       <r>    6.1292    1.0002 </r>
       <r>    6.1340    1.0002 </r>
       <r>    6.1417    1.0002 </r>
       <r>    6.1525    1.0003 </r>
       <r>    6.1599    1.0004 </r>
       <r>    6.1657    1.0004 </r>
       <r>    6.1704    1.0005 </r>
       <r>    6.1753    1.0005 </r>
       <r>    6.1875    1.0007 </r>
       <r>    6.1939    1.0008 </r>
       <r>    6.2036    1.0010 </r>
       <r>    6.2099    1.0012 </r>
       <r>    6.2145    1.0013 </r>
       <r>    6.2273    1.0017 </r>
       <r>    6.2344    1.0020 </r>
       <r>    6.2404    1.0022 </r>
       <r>    6.2445    1.0024 </r>
       <r>    6.2459    1.0025 </r>
       <r>    6.2551    1.0030 </r>
       <r>    6.2659    1.0037 </r>
       <r>    6.2720    1.0041 </r>
       <r>    6.2844    1.0052 </r>
       <r>    6.2971    1.0065 </r>
       <r>    6.2995    1.0067 </r>
       <r>    6.3115    1.0082 </r>
       <r>    6.3216    1.0096 </r>
       <r>    6.3303    1.0110 </r>
       <r>    6.3467    1.0138 </r>
       <r>    6.3506    1.0146 </r>
       <r>    6.3567    1.0158 </r>
       <r>    6.3665    1.0178 </r>
       <r>    6.3749    1.0197 </r>
       <r>    6.3853    1.0220 </r>
       <r>    6.4113    1.0280 </r>
       <r>    6.4164    1.0291 </r>
       <r>    6.4308    1.0319 </r>
       <r>    6.4351    1.0327 </r>
       <r>    6.4507    1.0348 </r>
       <r>    6.4598    1.0354 </r>
       <r>    6.4696    1.0354 </r>
       <r>    6.4830    1.0340 </r>
       <r>    6.5011    1.0291 </r>
       <r>    6.5055    1.0272 </r>
       <r>    6.5208    1.0185 </r>
       <r>    6.5336    1.0080 </r>
       <r>    6.5501    0.9898 </r>
       <r>    6.5607    0.9749 </r>
       <r>    6.5711    0.9577 </r>
       <r>    6.5942    0.9099 </r>
       <r>    6.6054    0.8821 </r>
       <r>    6.6069    0.8781 </r>
       <r>    6.6309    0.8069 </r>
       <r>    6.6477    0.7495 </r>
       <r>    6.6503    0.7399 </r>
       <r>    6.6650    0.6844 </r>
       <r>    6.6711    0.6605 </r>
       <r>    6.6763    0.6397 </r>
       <r>    6.6913    0.5779 </r>
       <r>    6.6955    0.5605 </r>
       <r>    6.7047    0.5219 </r>
       <r>    6.7176    0.4673 </r>
       <r>    6.7247    0.4375 </r>
       <r>    6.7352    0.3937 </r>
       <r>    6.7382    0.3812 </r>
       <r>    6.7465    0.3479 </r>
       <r>    6.7604    0.2932 </r>
       <r>    6.7769    0.2331 </r>
       <r>    6.7961    0.1699 </r>
       <r>    6.8116    0.1250 </r>
       <r>    6.8228    0.0963 </r>
       <r>    6.8347    0.0693 </r>
       <r>    6.8476    0.0441 </r>
       <r>    6.8785   -0.0003 </r>
       <r>    6.8868   -0.0086 </r>
       <r>    6.8941   -0.0149 </r>
       <r>    6.9225   -0.0305 </r>
       <r>    6.9309   -0.0329 </r>
       <r>    6.9493   -0.0353 </r>
       <r>    6.9633   -0.0352 </r>
       <r>    6.9700   -0.0347 </r>
       <r>    6.9744   -0.0342 </r>
       <r>    6.9788   -0.0336 </r>
       <r>    6.9869   -0.0323 </r>
       <r>    6.9940   -0.0310 </r>
       <r>    7.0013   -0.0295 </r>
       <r>    7.0160   -0.0263 </r>
       <r>    7.0199   -0.0254 </r>
       <r>    7.0275   -0.0236 </r>
       <r>    7.0456   -0.0195 </r>
       <r>    7.0576   -0.0169 </r>
       <r>    7.0611   -0.0162 </r>
       <r>    7.0797   -0.0126 </r>
       <r>    7.0844   -0.0118 </r>
       <r>    7.0915   -0.0106 </r>
       <r>    7.1100   -0.0080 </r>
       <r>    7.1195   -0.0068 </r>
       <r>    7.1474   -0.0042 </r>
       <r>    7.1536   -0.0037 </r>
       <r>    7.1699   -0.0027 </r>
       <r>    7.1881   -0.0019 </r>
       <r>    7.1924   -0.0017 </r>
       <r>    7.2053   -0.0013 </r>
       <r>    7.2141   -0.0011 </r>
       <r>    7.2201   -0.0009 </r>
       <r>    7.2393   -0.0006 </r>
       <r>    7.2522   -0.0004 </r>
       <r>    7.2635   -0.0003 </r>
       <r>    7.2722   -0.0003 </r>
       <r>    7.2827   -0.0002 </r>
       <r>    7.2887   -0.0002 </r>
       <r>    7.2957   -0.0001 </r>
       <r>    7.3039   -0.0001 </r>
       <r>    7.3147   -0.0001 </r>
       <r>    7.3232   -0.0001 </r>
       <r>    7.3300   -0.0001 </r>
       <r>    7.3344   -0.0000 </r>
       <r>    7.3429   -0.0000 </r>
       <r>    7.3546   -0.0000 </r>
       <r>    7.3681   -0.0000 </r>
       <r>    7.3814   -0.0000 </r>
       <r>    7.3881   -0.0000 </r>
       <r>    7.4002   -0.0000 </r>
       <r>    7.4059   -0.0000 </r>
       <r>    7.4194   -0.0000 </r>
       <r>    7.4295   -0.0000 </r>
       <r>    7.4456   -0.0000 </r>
       <r>    7.4556   -0.0000 </r>
       <r>    7.4678   -0.0000 </r>
       <r>    7.4753   -0.0000 </r>
       <r>    7.4799   -0.0000 </r>
       <r>    7.4876   -0.0000 </r>
       <r>    7.4970   -0.0000 </r>
       <r>    7.5074   -0.0000 </r>
       <r>    7.5134   -0.0000 </r>
       <r>    7.5153   -0.0000 </r>
       <r>    7.5214   -0.0000 </r>
       <r>    7.5303   -0.0000 </r>
       <r>    7.5378   -0.0000 </r>
       <r>    7.5429   -0.0000 </r>
       <r>    7.5523   -0.0000 </r>
       <r>    7.5597   -0.0000 </r>
       <r>    7.5643   -0.0000 </r>
       <r>    7.5742   -0.0000 </r>
       <r>    7.5770   -0.0000 </r>
       <r>    7.5844   -0.0000 </r>
       <r>    7.5920   -0.0000 </r>
      </set>
     </set>
    </set>
   </array>
  </eigenvalues>
  <separator name="orbital magnetization" >
   <v name="MAGDIPOLOUT">      0.00000000      0.00000000      0.00000000</v>
  </separator>
 </calculation>
 <structure name="finalpos" >
  <crystal>
   <varray name="basis" >
    <v>      10.33484705       0.00000000       0.00000000 </v>
    <v>       0.00000000      10.33484705       0.00000000 </v>
    <v>       0.00000000       0.00000000      10.33484705 </v>
   </varray>
   <i name="volume">   1103.85533447 </i>
   <varray name="rec_basis" >
    <v>       0.09676002       0.00000000       0.00000000 </v>
    <v>       0.00000000       0.09676002       0.00000000 </v>
    <v>       0.00000000       0.00000000       0.09676002 </v>
   </varray>
  </crystal>
  <varray name="positions" >
   <v>       1.00018391       0.00000006       0.00034722 </v>
   <v>       0.99987504       0.16624171       0.16654160 </v>
   <v>       0.00019413       0.33447682       1.00057134 </v>
   <v>       0.00257595       0.49999990       0.16924236 </v>
   <v>       0.00019407       0.66552311       1.00057125 </v>
   <v>       0.99987504       0.83375831       0.16654164 </v>
   <v>       0.00090226       0.00000004       0.33363245 </v>
   <v>       0.00194449       0.16926757       0.50046448 </v>
   <v>       1.00015156       0.33340236       0.33391732 </v>
   <v>       0.00150177       0.49999997       0.50012473 </v>
   <v>       1.00015158       0.66659756       0.33391731 </v>
   <v>       0.00194452       0.83073245       0.50046434 </v>
   <v>      -0.00135997       0.00000010       0.66677262 </v>
   <v>       0.99993877       0.16707971       0.83347548 </v>
   <v>       1.00135666       0.33478040       0.66691565 </v>
   <v>       0.00169946       0.49999999       0.83271104 </v>
   <v>       1.00135674       0.66521954       0.66691552 </v>
   <v>       0.99993873       0.83292027       0.83347548 </v>
   <v>       0.16696597       0.00000008       0.16756874 </v>
   <v>       0.16664479       0.16684102       0.00079540 </v>
   <v>       0.16664477       0.83315899       0.00079535 </v>
   <v>       0.16980978       0.33593264       0.50068062 </v>
   <v>       0.16690025       0.50000000       0.33356669 </v>
   <v>       0.16980978       0.66406738       0.50068057 </v>
   <v>       0.16651631       0.00000011       0.83327147 </v>
   <v>       0.17069159       0.49999989       0.66462472 </v>
   <v>       0.16725088       0.33340230       0.16681808 </v>
   <v>       0.16725081       0.66659763       0.16681802 </v>
   <v>       0.16629790       0.16694970       0.33296438 </v>
   <v>       0.16629793       0.83305030       0.33296438 </v>
   <v>       0.16643441       0.16639627       0.66688698 </v>
   <v>       0.16685171       0.33247691       0.83386895 </v>
   <v>       0.16685174       0.66752306       0.83386898 </v>
   <v>       0.16643431       0.83360390       0.66688711 </v>
   <v>       0.16959929       0.49999998       0.99633549 </v>
   <v>       0.16576065       0.00000004       0.50042614 </v>
   <v>       0.33345853       0.00000010       1.00163474 </v>
   <v>       0.33379788       0.16926741       0.16861098 </v>
   <v>       0.33379785       0.83073261       0.16861077 </v>
   <v>       0.33401403       0.33593233       0.33647603 </v>
   <v>       0.33401388       0.66406785       0.33647554 </v>
   <v>       0.33327490       0.16472228       0.83581301 </v>
   <v>       0.33318296       0.32410619       0.66903779 </v>
   <v>       0.33318274       0.67589381       0.66903782 </v>
   <v>       0.33327489       0.83527773       0.83581310 </v>
   <v>       0.33353371       0.33407243      -0.00055563 </v>
   <v>       0.33345827       0.49999993       0.16816821 </v>
   <v>       0.33353372       0.66592746      -0.00055574 </v>
   <v>       0.33375972       0.00000002       0.33242717 </v>
   <v>       0.33283842       0.16599477       0.49950491 </v>
   <v>       0.33283837       0.83400518       0.49950494 </v>
   <v>       0.33365904       0.00000001       0.66698354 </v>
   <v>       0.33654102       0.49999983       0.82861973 </v>
   <v>       0.50010592       0.00000003       0.16530656 </v>
   <v>       0.50009391       0.16935996       0.99840520 </v>
   <v>       0.50024872       0.33478072       0.16802311 </v>
   <v>       0.49993484       0.49999997       0.99822001 </v>
   <v>       0.50024872       0.66521926       0.16802303 </v>
   <v>       0.50009392       0.83064003       0.99840508 </v>
   <v>       0.50031686       0.00000000       0.50032552 </v>
   <v>       0.50022023       0.16639624       0.33310094 </v>
   <v>       0.50237113       0.32410637       0.49984950 </v>
   <v>       0.49795783       0.49999998       0.33735821 </v>
   <v>       0.50237105       0.67589363       0.49984939 </v>
   <v>       0.50022020       0.83360378       0.33310092 </v>
   <v>       0.50042022       0.00000004       0.83496436 </v>
   <v>       0.50142137       0.16613916       0.66808803 </v>
   <v>       0.50058024       0.33396765       0.83273616 </v>
   <v>       0.50058022       0.66603231       0.83273608 </v>
   <v>       0.50142133       0.83386083       0.66808805 </v>
   <v>       0.66698856       0.33332354       0.00067993 </v>
   <v>       0.66604405       0.49999998       0.16836597 </v>
   <v>       0.66698861       0.66667642       0.00067990 </v>
   <v>       0.66660453      -0.00000002       0.33318278 </v>
   <v>       0.66914614       0.16472226       0.49994154 </v>
   <v>       0.66914615       0.83527775       0.49994158 </v>
   <v>       0.66829757       0.00000004       0.66708698 </v>
   <v>       0.66597784       0.49999998       0.83264462 </v>
   <v>       0.66680861       0.16707977       0.16660531 </v>
   <v>       0.66680863       0.83292023       0.16660528 </v>
   <v>       0.66720206       0.33247709       0.33351825 </v>
   <v>       0.66720209       0.66752293       0.33351829 </v>
   <v>       0.66750020       0.16673273       0.83416714 </v>
   <v>       0.66606952       0.33396751       0.66724712 </v>
   <v>       0.66606953       0.66603247       0.66724698 </v>
   <v>       0.66750021       0.83326729       0.83416706 </v>
   <v>       0.66672582       0.00000004       0.99996042 </v>
   <v>       0.66195289       0.49999998       0.50320773 </v>
   <v>       0.83103507       0.49999988       0.99770164 </v>
   <v>       0.83496780       0.00000012       0.50012503 </v>
   <v>       0.83390452       0.33447690       0.16686068 </v>
   <v>       0.83390454       0.66552304       0.16686059 </v>
   <v>       0.83412863       0.16684104       0.33331127 </v>
   <v>       0.83412861       0.83315897       0.33331124 </v>
   <v>       0.83173831       0.16935988       0.66676069 </v>
   <v>       0.83401322       0.33332345       0.83365548 </v>
   <v>       0.83401322       0.66667651       0.83365547 </v>
   <v>       0.83173837       0.83064012       0.66676056 </v>
   <v>       0.83368048       0.00000005       0.16685044 </v>
   <v>       0.83410009       0.16660640       0.00076689 </v>
   <v>       0.83410005       0.83339364       0.00076692 </v>
   <v>       0.83277759       0.33407227       0.50019982 </v>
   <v>       0.82966871       0.49999997       0.33626572 </v>
   <v>       0.83277762       0.66592773       0.50019973 </v>
   <v>       0.83329358       0.00000006       0.83339262 </v>
   <v>       0.83155331       0.50000001       0.66660148 </v>
   <v>       0.37363782       0.50000005       0.54030462 </v>
  </varray>
 </structure>
</modeling>
 </structure>
</modeling>
83377197       0.33328461       0.83324887 </v>
   <v>       0.83377197       0.66671535       0.83324886 </v>
   <v>       0.83115045       0.83008680       0.66660328 </v>
   <v>       0.83337276       0.00000006       0.16662633 </v>
   <v>       0.83382117       0.16637444       0.00048826 </v>
   <v>       0.83382107       0.83362563       0.00048836 </v>
   <v>       0.83226856       0.33463692       0.49986488 </v>
   <v>       0.83015257       0.49999990       0.33540936 </v>
   <v>       0.83226862       0.66536312       0.49986476 </v>
   <v>       0.83272728       0.00000004       0.83323389 </v>
   <v>       0.83179482       0.49999995       0.66668019 </v>
   <v>       0.41666601       0.50000008       0.58333378 </v>
  </varray>
 </structure>
</modeling>
