 108 108   0   0
  0.1022088E+02  0.1033485E-08  0.1033485E-08  0.1033485E-08  0.5000000E-15
  1.000000000000000E-004
  CAR 
 Opt                                     
      9.67610405     -3.93729347  301      6.77782304      1.00000000
     -3.937  0.0000E+00  0.0000E+00
     -3.892  0.0000E+00  0.0000E+00
     -3.847  0.0000E+00  0.0000E+00
     -3.801  0.0000E+00  0.0000E+00
     -3.756  0.0000E+00  0.0000E+00
     -3.710  0.0000E+00  0.0000E+00
     -3.665  0.0000E+00  0.0000E+00
     -3.620  0.0000E+00  0.0000E+00
     -3.574 -0.1024E-29 -0.4645E-31
     -3.529 -0.3776E-28 -0.1760E-29
     -3.484 -0.1286E-26 -0.6009E-28
     -3.438 -0.3944E-25 -0.1850E-26
     -3.393 -0.1090E-23 -0.5133E-25
     -3.347 -0.2715E-22 -0.1283E-23
     -3.302 -0.6092E-21 -0.2893E-22
     -3.257 -0.1231E-19 -0.5875E-21
     -3.211 -0.2240E-18 -0.1075E-19
     -3.166 -0.3670E-17 -0.1773E-18
     -3.120 -0.5107E-16 -0.2495E-17
     -3.075 -0.6973E-15 -0.3414E-16
     -3.030 -0.8302E-14 -0.4109E-15
     -2.984 -0.8895E-13 -0.4447E-14
     -2.939 -0.8568E-12 -0.4333E-13
     -2.894 -0.7417E-11 -0.3799E-12
     -2.848 -0.5766E-10 -0.2996E-11
     -2.803 -0.4023E-09 -0.2125E-10
     -2.757 -0.2518E-08 -0.1355E-09
     -2.712 -0.1412E-07 -0.7764E-09
     -2.667 -0.7091E-07 -0.3994E-08
     -2.621 -0.3183E-06 -0.1844E-07
     -2.576 -0.1275E-05 -0.7630E-07
     -2.531 -0.4549E-05 -0.2827E-06
     -2.485 -0.1441E-04 -0.9368E-06
     -2.440 -0.4040E-04 -0.2770E-05
     -2.394 -0.9960E-04 -0.7290E-05
     -2.349 -0.2143E-03 -0.1701E-04
     -2.304 -0.3967E-03 -0.3502E-04
     -2.258 -0.6165E-03 -0.6299E-04
     -2.213 -0.7591E-03 -0.9744E-04
     -2.168 -0.6099E-03 -0.1251E-03
     -2.122  0.9949E-04 -0.1206E-03
     -2.077  0.1587E-02 -0.4859E-04
     -2.031  0.3936E-02  0.1300E-03
     -1.986  0.7125E-02  0.4533E-03
     -1.941  0.1114E-01  0.9590E-03
     -1.895  0.1602E-01  0.1686E-02
     -1.850  0.2166E-01  0.2669E-02
     -1.805  0.2754E-01  0.3918E-02
     -1.759  0.3279E-01  0.5406E-02
     -1.714  0.3656E-01  0.7065E-02
     -1.668  0.3858E-01  0.8816E-02
     -1.623  0.3932E-01  0.1060E-01
     -1.578  0.3962E-01  0.1240E-01
     -1.532  0.4028E-01  0.1423E-01
     -1.487  0.4183E-01  0.1612E-01
     -1.442  0.4455E-01  0.1815E-01
     -1.396  0.4858E-01  0.2035E-01
     -1.351  0.5388E-01  0.2280E-01
     -1.305  0.6014E-01  0.2552E-01
     -1.260  0.6653E-01  0.2854E-01
     -1.215  0.7153E-01  0.3179E-01
     -1.169  0.7330E-01  0.3512E-01
     -1.124  0.7071E-01  0.3832E-01
     -1.078  0.6437E-01  0.4125E-01
     -1.033  0.5678E-01  0.4382E-01
     -0.988  0.5132E-01  0.4615E-01
     -0.942  0.5067E-01  0.4845E-01
     -0.897  0.5585E-01  0.5098E-01
     -0.852  0.6610E-01  0.5398E-01
     -0.806  0.7953E-01  0.5759E-01
     -0.761  0.9373E-01  0.6185E-01
     -0.715  0.1060E+00  0.6665E-01
     -0.670  0.1133E+00  0.7179E-01
     -0.625  0.1131E+00  0.7693E-01
     -0.579  0.1046E+00  0.8167E-01
     -0.534  0.9023E-01  0.8577E-01
     -0.489  0.7510E-01  0.8917E-01
     -0.443  0.6503E-01  0.9213E-01
     -0.398  0.6383E-01  0.9502E-01
     -0.352  0.7183E-01  0.9828E-01
     -0.307  0.8616E-01  0.1022E+00
     -0.262  0.1024E+00  0.1068E+00
     -0.216  0.1162E+00  0.1121E+00
     -0.171  0.1247E+00  0.1178E+00
     -0.126  0.1267E+00  0.1235E+00
     -0.080  0.1232E+00  0.1291E+00
     -0.035  0.1173E+00  0.1344E+00
      0.011  0.1127E+00  0.1395E+00
      0.056  0.1120E+00  0.1446E+00
      0.101  0.1159E+00  0.1499E+00
      0.147  0.1228E+00  0.1555E+00
      0.192  0.1302E+00  0.1614E+00
      0.237  0.1362E+00  0.1675E+00
      0.283  0.1401E+00  0.1739E+00
      0.328  0.1416E+00  0.1803E+00
      0.374  0.1409E+00  0.1867E+00
      0.419  0.1378E+00  0.1930E+00
      0.464  0.1326E+00  0.1990E+00
      0.510  0.1264E+00  0.2047E+00
      0.555  0.1212E+00  0.2102E+00
      0.601  0.1207E+00  0.2157E+00
      0.646  0.1282E+00  0.2215E+00
      0.691  0.1453E+00  0.2281E+00
      0.737  0.1692E+00  0.2358E+00
      0.782  0.1936E+00  0.2446E+00
      0.827  0.2108E+00  0.2541E+00
      0.873  0.2166E+00  0.2640E+00
      0.918  0.2121E+00  0.2736E+00
      0.964  0.2028E+00  0.2828E+00
      1.009  0.1938E+00  0.2916E+00
      1.054  0.1868E+00  0.3001E+00
      1.100  0.1799E+00  0.3082E+00
      1.145  0.1713E+00  0.3160E+00
      1.190  0.1632E+00  0.3234E+00
      1.236  0.1622E+00  0.3308E+00
      1.281  0.1758E+00  0.3388E+00
      1.327  0.2066E+00  0.3481E+00
      1.372  0.2498E+00  0.3595E+00
      1.417  0.2941E+00  0.3728E+00
      1.463  0.3262E+00  0.3876E+00
      1.508  0.3365E+00  0.4029E+00
      1.553  0.3235E+00  0.4176E+00
      1.599  0.2950E+00  0.4309E+00
      1.644  0.2661E+00  0.4430E+00
      1.690  0.2546E+00  0.4546E+00
      1.735  0.2753E+00  0.4671E+00
      1.780  0.3354E+00  0.4823E+00
      1.826  0.4318E+00  0.5019E+00
      1.871  0.5525E+00  0.5270E+00
      1.916  0.6811E+00  0.5579E+00
      1.962  0.8026E+00  0.5943E+00
      2.007  0.9061E+00  0.6354E+00
      2.053  0.9851E+00  0.6801E+00
      2.098  0.1036E+01  0.7271E+00
      2.143  0.1056E+01  0.7750E+00
      2.189  0.1051E+01  0.8227E+00
      2.234  0.1031E+01  0.8695E+00
      2.279  0.1013E+01  0.9155E+00
      2.325  0.1012E+01  0.9614E+00
      2.370  0.1032E+01  0.1008E+01
      2.416  0.1069E+01  0.1057E+01
      2.461  0.1110E+01  0.1107E+01
      2.506  0.1143E+01  0.1159E+01
      2.552  0.1166E+01  0.1212E+01
      2.597  0.1189E+01  0.1266E+01
      2.643  0.1225E+01  0.1322E+01
      2.688  0.1279E+01  0.1380E+01
      2.733  0.1344E+01  0.1441E+01
      2.779  0.1408E+01  0.1504E+01
      2.824  0.1462E+01  0.1571E+01
      2.869  0.1509E+01  0.1639E+01
      2.915  0.1556E+01  0.1710E+01
      2.960  0.1609E+01  0.1783E+01
      3.006  0.1663E+01  0.1858E+01
      3.051  0.1702E+01  0.1936E+01
      3.096  0.1714E+01  0.2013E+01
      3.142  0.1696E+01  0.2090E+01
      3.187  0.1659E+01  0.2166E+01
      3.232  0.1616E+01  0.2239E+01
      3.278  0.1575E+01  0.2310E+01
      3.323  0.1541E+01  0.2380E+01
      3.369  0.1513E+01  0.2449E+01
      3.414  0.1496E+01  0.2517E+01
      3.459  0.1492E+01  0.2585E+01
      3.505  0.1502E+01  0.2653E+01
      3.550  0.1513E+01  0.2721E+01
      3.595  0.1512E+01  0.2790E+01
      3.641  0.1489E+01  0.2858E+01
      3.686  0.1445E+01  0.2923E+01
      3.732  0.1393E+01  0.2986E+01
      3.777  0.1350E+01  0.3048E+01
      3.822  0.1328E+01  0.3108E+01
      3.868  0.1328E+01  0.3168E+01
      3.913  0.1334E+01  0.3229E+01
      3.958  0.1331E+01  0.3289E+01
      4.004  0.1308E+01  0.3348E+01
      4.049  0.1274E+01  0.3406E+01
      4.095  0.1251E+01  0.3463E+01
      4.140  0.1260E+01  0.3520E+01
      4.185  0.1305E+01  0.3579E+01
      4.231  0.1375E+01  0.3642E+01
      4.276  0.1455E+01  0.3708E+01
      4.322  0.1537E+01  0.3778E+01
      4.367  0.1625E+01  0.3851E+01
      4.412  0.1719E+01  0.3929E+01
      4.458  0.1809E+01  0.4011E+01
      4.503  0.1873E+01  0.4096E+01
      4.548  0.1890E+01  0.4182E+01
      4.594  0.1855E+01  0.4266E+01
      4.639  0.1788E+01  0.4347E+01
      4.685  0.1722E+01  0.4426E+01
      4.730  0.1698E+01  0.4503E+01
      4.775  0.1739E+01  0.4582E+01
      4.821  0.1849E+01  0.4665E+01
      4.866  0.2002E+01  0.4756E+01
      4.911  0.2157E+01  0.4854E+01
      4.957  0.2276E+01  0.4957E+01
      5.002  0.2334E+01  0.5063E+01
      5.048  0.2336E+01  0.5169E+01
      5.093  0.2301E+01  0.5274E+01
      5.138  0.2258E+01  0.5376E+01
      5.184  0.2231E+01  0.5477E+01
      5.229  0.2237E+01  0.5579E+01
      5.274  0.2289E+01  0.5683E+01
      5.320  0.2385E+01  0.5791E+01
      5.365  0.2510E+01  0.5905E+01
      5.411  0.2628E+01  0.6024E+01
      5.456  0.2691E+01  0.6146E+01
      5.501  0.2661E+01  0.6267E+01
      5.547  0.2528E+01  0.6382E+01
      5.592  0.2323E+01  0.6487E+01
      5.637  0.2098E+01  0.6582E+01
      5.683  0.1905E+01  0.6669E+01
      5.728  0.1763E+01  0.6749E+01
      5.774  0.1666E+01  0.6824E+01
      5.819  0.1590E+01  0.6897E+01
      5.864  0.1518E+01  0.6966E+01
      5.910  0.1451E+01  0.7031E+01
      5.955  0.1405E+01  0.7095E+01
      6.000  0.1400E+01  0.7159E+01
      6.046  0.1443E+01  0.7224E+01
      6.091  0.1523E+01  0.7293E+01
      6.137  0.1621E+01  0.7367E+01
      6.182  0.1714E+01  0.7445E+01
      6.227  0.1789E+01  0.7526E+01
      6.273  0.1850E+01  0.7610E+01
      6.318  0.1908E+01  0.7696E+01
      6.364  0.1973E+01  0.7786E+01
      6.409  0.2044E+01  0.7879E+01
      6.454  0.2103E+01  0.7974E+01
      6.500  0.2131E+01  0.8071E+01
      6.545  0.2121E+01  0.8167E+01
      6.590  0.2087E+01  0.8262E+01
      6.636  0.2053E+01  0.8355E+01
      6.681  0.2033E+01  0.8447E+01
      6.727  0.2017E+01  0.8539E+01
      6.772  0.1980E+01  0.8629E+01
      6.817  0.1906E+01  0.8715E+01
      6.863  0.1804E+01  0.8797E+01
      6.908  0.1708E+01  0.8874E+01
      6.953  0.1653E+01  0.8949E+01
      6.999  0.1657E+01  0.9025E+01
      7.044  0.1704E+01  0.9102E+01
      7.090  0.1766E+01  0.9182E+01
      7.135  0.1814E+01  0.9264E+01
      7.180  0.1841E+01  0.9348E+01
      7.226  0.1853E+01  0.9432E+01
      7.271  0.1869E+01  0.9517E+01
      7.316  0.1901E+01  0.9603E+01
      7.362  0.1957E+01  0.9692E+01
      7.407  0.2033E+01  0.9784E+01
      7.453  0.2110E+01  0.9880E+01
      7.498  0.2152E+01  0.9978E+01
      7.543  0.2116E+01  0.1007E+02
      7.589  0.1963E+01  0.1016E+02
      7.634  0.1683E+01  0.1024E+02
      7.679  0.1305E+01  0.1030E+02
      7.725  0.8884E+00  0.1034E+02
      7.770  0.5056E+00  0.1036E+02
      7.816  0.2118E+00  0.1037E+02
      7.861  0.2842E-01  0.1037E+02
      7.906 -0.5681E-01  0.1037E+02
      7.952 -0.7574E-01  0.1037E+02
      7.997 -0.6213E-01  0.1036E+02
      8.042 -0.4017E-01  0.1036E+02
      8.088 -0.2187E-01  0.1036E+02
      8.133 -0.1031E-01  0.1036E+02
      8.179 -0.4264E-02  0.1036E+02
      8.224 -0.1560E-02  0.1036E+02
      8.269 -0.5074E-03  0.1036E+02
      8.315 -0.1472E-03  0.1036E+02
      8.360 -0.3819E-04  0.1036E+02
      8.406 -0.8872E-05  0.1036E+02
      8.451 -0.1848E-05  0.1036E+02
      8.496 -0.3456E-06  0.1036E+02
      8.542 -0.5807E-07  0.1036E+02
      8.587 -0.8770E-08  0.1036E+02
      8.632 -0.1191E-08  0.1036E+02
      8.678 -0.1456E-09  0.1036E+02
      8.723 -0.1602E-10  0.1036E+02
      8.769 -0.1587E-11  0.1036E+02
      8.814 -0.1417E-12  0.1036E+02
      8.859 -0.1141E-13  0.1036E+02
      8.905 -0.8441E-15  0.1036E+02
      8.950  0.0000E+00  0.1036E+02
      8.995  0.0000E+00  0.1036E+02
      9.041  0.0000E+00  0.1036E+02
      9.086  0.0000E+00  0.1036E+02
      9.132  0.0000E+00  0.1036E+02
      9.177  0.0000E+00  0.1036E+02
      9.222  0.0000E+00  0.1036E+02
      9.268  0.0000E+00  0.1036E+02
      9.313  0.0000E+00  0.1036E+02
      9.358  0.0000E+00  0.1036E+02
      9.404  0.0000E+00  0.1036E+02
      9.449  0.0000E+00  0.1036E+02
      9.495  0.0000E+00  0.1036E+02
      9.540  0.0000E+00  0.1036E+02
      9.585  0.0000E+00  0.1036E+02
      9.631  0.0000E+00  0.1036E+02
      9.676  0.0000E+00  0.1036E+02
