  108  108  100    1
  0.1022088E+02  0.1033485E-08  0.1033485E-08  0.1033485E-08  0.5000000E-15
  1.000000000000000E-004
  CAR 
 Opt                                     
    864      4    518
 
  0.1250000E+00  0.1250000E+00  0.1250000E+00  0.1250000E+00
    1       -1.937293   1.000000
    2       -0.806631   1.000000
    3       -0.806631   1.000000
    4       -0.806631   1.000000
    5       -0.124052   1.000000
    6       -0.124052   1.000000
    7       -0.124052   1.000000
    8        0.208097   1.000000
    9        0.208097   1.000000
   10        0.208097   1.000000
   11        0.814267   1.000000
   12        0.814267   1.000000
   13        0.814267   1.000000
   14        0.814268   1.000000
   15        0.814268   1.000000
   16        0.814268   1.000000
   17        0.921023   1.000000
   18        1.316613   1.000000
   19        1.316613   1.000000
   20        1.316613   1.000000
   21        1.363192   1.000000
   22        1.363192   1.000000
   23        1.363192   1.000000
   24        1.584872   1.000000
   25        1.584873   1.000000
   26        1.584873   1.000000
   27        1.718475   1.000000
   28        1.790175   1.000000
   29        1.790175   1.000000
   30        1.790175   1.000000
   31        1.891349   1.000000
   32        1.891353   1.000000
   33        1.891353   1.000000
   34        1.986332   1.000000
   35        1.986332   1.000000
   36        1.986332   1.000000
   37        2.343184   1.000000
   38        2.343188   1.000000
   39        2.343188   1.000000
   40        2.465427   1.000000
   41        2.465427   1.000000
   42        2.465427   1.000000
   43        2.465429   1.000000
   44        2.465429   1.000000
   45        2.465429   1.000000
   46        2.480097   1.000000
   47        2.480097   1.000000
   48        2.480097   1.000000
   49        2.525497   1.000000
   50        2.525497   1.000000
   51        2.525498   1.000000
   52        2.525502   1.000000
   53        2.525502   1.000000
   54        2.525502   1.000000
   55        2.548984   1.000000
   56        2.548984   1.000000
   57        2.548984   1.000000
   58        2.548985   1.000000
   59        2.548985   1.000000
   60        2.548985   1.000000
   61        2.625490   1.000000
   62        2.625490   1.000000
   63        2.625490   1.000000
   64        2.628198   1.000000
   65        2.628198   1.000000
   66        2.628198   1.000000
   67        2.720128   1.000000
   68        2.720128   1.000000
   69        2.720128   1.000000
   70        2.720128   1.000000
   71        2.720128   1.000000
   72        2.720129   1.000000
   73        2.759383   1.000000
   74        2.759383   1.000000
   75        2.759383   1.000000
   76        2.759387   1.000000
   77        2.759387   1.000000
   78        2.759387   1.000000
   79        2.762290   1.000000
   80        2.762296   1.000000
   81        2.762296   1.000000
   82        2.817561   1.000000
   83        2.817561   1.000000
   84        2.817561   1.000000
   85        2.817567   1.000000
   86        2.817568   1.000000
   87        2.817568   1.000000
   88        2.927912   1.000000
   89        2.927912   1.000000
   90        2.927912   1.000000
   91        2.927914   1.000000
   92        2.927914   1.000000
   93        2.927914   1.000000
   94        3.042694   1.000000
   95        3.042694   1.000000
   96        3.042694   1.000000
   97        3.060228   1.000000
   98        3.060228   1.000000
   99        3.060228   1.000000
  100        3.092203   1.000000
  101        3.092203   1.000000
  102        3.092203   1.000000
  103        3.092203   1.000000
  104        3.092203   1.000000
  105        3.092203   1.000000
  106        3.153948   1.000000
  107        3.153948   1.000000
  108        3.153948   1.000000
  109        3.153948   1.000000
  110        3.153948   1.000000
  111        3.153948   1.000000
  112        3.318044   1.000000
  113        3.318044   1.000000
  114        3.318044   1.000000
  115        3.318049   1.000000
  116        3.318049   1.000000
  117        3.318049   1.000000
  118        3.326669   1.000000
  119        3.326670   1.000000
  120        3.326670   1.000000
  121        3.430046   1.000000
  122        3.430046   1.000000
  123        3.430046   1.000000
  124        3.432997   1.000000
  125        3.432997   1.000000
  126        3.432997   1.000000
  127        3.478178   1.000000
  128        3.478178   1.000000
  129        3.478179   1.000000
  130        3.478182   1.000000
  131        3.478182   1.000000
  132        3.478182   1.000000
  133        3.502752   1.000000
  134        3.502753   1.000000
  135        3.502753   1.000000
  136        3.502753   1.000000
  137        3.502753   1.000000
  138        3.502753   1.000000
  139        3.556431   1.000000
  140        3.556431   1.000000
  141        3.556431   1.000000
  142        3.556433   1.000000
  143        3.556433   1.000000
  144        3.556433   1.000000
  145        3.675099   1.000000
  146        3.675099   1.000000
  147        3.675099   1.000000
  148        3.675099   1.000000
  149        3.675099   1.000000
  150        3.675099   1.000000
  151        3.713661   1.000000
  152        3.713661   1.000000
  153        3.713661   1.000000
  154        3.737337   1.000000
  155        3.737337   1.000000
  156        3.737337   1.000000
  157        3.737337   1.000000
  158        3.737337   1.000000
  159        3.737337   1.000000
  160        3.890354   1.000000
  161        3.890354   1.000000
  162        3.890354   1.000000
  163        3.890360   1.000000
  164        3.890360   1.000000
  165        3.890360   1.000000
  166        3.907230   1.000000
  167        3.907236   1.000000
  168        3.907236   1.000000
  169        4.098096   1.000000
  170        4.098096   1.000000
  171        4.098096   1.000000
  172        4.098101   1.000000
  173        4.098101   1.000000
  174        4.098102   1.000000
  175        4.237802   1.000000
  176        4.237802   1.000000
  177        4.237802   1.000000
  178        4.256224   1.000000
  179        4.256224   1.000000
  180        4.256224   1.000000
  181        4.289262   1.000000
  182        4.289262   1.000000
  183        4.289262   1.000000
  184        4.303910   1.000000
  185        4.303910   1.000000
  186        4.303910   1.000000
  187        4.303911   1.000000
  188        4.303911   1.000000
  189        4.303911   1.000000
  190        4.312287   1.000000
  191        4.312287   1.000000
  192        4.312287   1.000000
  193        4.436632   1.000000
  194        4.436632   1.000000
  195        4.436632   1.000000
  196        4.436633   1.000000
  197        4.436633   1.000000
  198        4.436633   1.000000
  199        4.457092   1.000000
  200        4.457092   1.000000
  201        4.457092   1.000000
  202        4.463545   1.000000
  203        4.463545   1.000000
  204        4.463545   1.000000
  205        4.463553   1.000000
  206        4.463553   1.000000
  207        4.463554   1.000000
  208        4.475832   1.000000
  209        4.475832   1.000000
  210        4.475832   1.000000
  211        4.475832   1.000000
  212        4.475832   1.000000
  213        4.475832   1.000000
  214        4.593948   1.000000
  215        4.593948   1.000000
  216        4.593948   1.000000
  217        4.618699   1.000000
  218        4.618701   1.000000
  219        4.618701   1.000000
  220        4.632827   1.000000
  221        4.632827   1.000000
  222        4.632828   1.000000
  223        4.723569   1.000000
  224        4.804828   1.000000
  225        4.804828   1.000000
  226        4.804828   1.000000
  227        4.804829   1.000000
  228        4.804829   1.000000
  229        4.804829   1.000000
  230        4.812800   1.000000
  231        4.812800   1.000000
  232        4.812801   1.000000
  233        4.812802   1.000000
  234        4.812803   1.000000
  235        4.812803   1.000000
  236        4.818913   1.000000
  237        4.818913   1.000000
  238        4.818914   1.000000
  239        4.955009   1.000000
  240        4.955010   1.000000
  241        4.955010   1.000000
  242        4.955018   1.000000
  243        4.955018   1.000000
  244        4.955019   1.000000
  245        5.049730   1.000000
  246        5.049730   1.000000
  247        5.049730   1.000000
  248        5.054855   1.000000
  249        5.054855   1.000000
  250        5.054867   1.000000
  251        5.059160   1.000000
  252        5.059160   1.000000
  253        5.059160   1.000000
  254        5.059160   1.000000
  255        5.059161   1.000000
  256        5.059161   1.000000
  257        5.085255   1.000000
  258        5.085255   1.000000
  259        5.085255   1.000000
  260        5.112482   1.000000
  261        5.112482   1.000000
  262        5.112482   1.000000
  263        5.112491   1.000000
  264        5.112491   1.000000
  265        5.112491   1.000000
  266        5.127425   1.000000
  267        5.155894   1.000000
  268        5.155894   1.000000
  269        5.155894   1.000000
  270        5.156191   1.000000
  271        5.156191   1.000000
  272        5.156192   1.000000
  273        5.177678   1.000000
  274        5.177678   1.000000
  275        5.195591   1.000000
  276        5.195591   1.000000
  277        5.212602   1.000000
  278        5.212602   1.000000
  279        5.212602   1.000000
  280        5.212606   1.000000
  281        5.212606   1.000000
  282        5.212606   1.000000
  283        5.228510   1.000000
  284        5.228513   1.000000
  285        5.228513   1.000000
  286        5.274562   1.000000
  287        5.274562   1.000000
  288        5.274589   1.000000
  289        5.276534   1.000000
  290        5.276560   1.000000
  291        5.276560   1.000000
  292        5.293963   1.000000
  293        5.293963   1.000000
  294        5.293963   1.000000
  295        5.293963   1.000000
  296        5.293963   1.000000
  297        5.293963   1.000000
  298        5.321944   1.000000
  299        5.321944   1.000000
  300        5.321944   1.000000
  301        5.352731   1.000000
  302        5.352731   1.000000
  303        5.352732   1.000000
  304        5.365530   1.000000
  305        5.365530   1.000000
  306        5.406096   1.000000
  307        5.406107   1.000000
  308        5.406107   1.000000
  309        5.408279   1.000000
  310        5.408279   1.000000
  311        5.408279   1.000000
  312        5.543896   1.000000
  313        5.560172   1.000000
  314        5.560172   1.000000
  315        5.560179   1.000000
  316        5.576203   1.000000
  317        5.576203   1.000000
  318        5.576203   1.000000
  319        5.583716   1.000000
  320        5.583717   1.000000
  321        5.583717   1.000000
  322        5.583722   1.000000
  323        5.583722   1.000000
  324        5.583723   1.000000
  325        5.585656   1.000000
  326        5.585656   1.000000
  327        5.585656   1.000000
  328        5.610268   1.000000
  329        5.610268   1.000000
  330        5.610268   1.000000
  331        5.725570   1.000000
  332        5.725570   1.000000
  333        5.725570   1.000000
  334        5.728578   1.000000
  335        5.728578   1.000000
  336        5.728578   1.000000
  337        5.734841   1.000000
  338        5.734841   1.000000
  339        5.734841   1.000000
  340        5.734841   1.000000
  341        5.734841   1.000000
  342        5.734842   1.000000
  343        5.752583   1.000000
  344        5.752583   1.000000
  345        5.752583   1.000000
  346        5.802320   1.000000
  347        5.802321   1.000000
  348        5.802321   1.000000
  349        5.802330   1.000000
  350        5.802330   1.000000
  351        5.802331   1.000000
  352        5.846591   1.000000
  353        5.846591   1.000000
  354        5.846591   1.000000
  355        5.884131   1.000000
  356        5.884131   1.000000
  357        5.884131   1.000000
  358        5.884132   1.000000
  359        5.884132   1.000000
  360        5.884132   1.000000
  361        5.916403   1.000000
  362        5.916403   1.000000
  363        5.916403   1.000000
  364        5.962506   1.000000
  365        5.962517   1.000000
  366        5.962517   1.000000
  367        6.064251   1.000003
  368        6.064251   1.000003
  369        6.064252   1.000003
  370        6.091401   1.000007
  371        6.091401   1.000007
  372        6.091401   1.000007
  373        6.225642   1.000334
  374        6.225642   1.000334
  375        6.225642   1.000334
  376        6.225763   1.000335
  377        6.225763   1.000335
  378        6.225763   1.000335
  379        6.227205   1.000347
  380        6.227205   1.000347
  381        6.227205   1.000347
  382        6.230509   1.000377
  383        6.230509   1.000377
  384        6.230509   1.000377
  385        6.232185   1.000394
  386        6.232185   1.000394
  387        6.232185   1.000394
  388        6.309305   1.002272
  389        6.309306   1.002272
  390        6.309306   1.002272
  391        6.412324   1.013397
  392        6.412324   1.013397
  393        6.412325   1.013397
  394        6.412327   1.013398
  395        6.412328   1.013398
  396        6.412328   1.013398
  397        6.480076   1.028151
  398        6.480076   1.028151
  399        6.480077   1.028151
  400        6.480077   1.028151
  401        6.480077   1.028151
  402        6.480077   1.028151
  403        6.604526   1.005156
  404        6.604526   1.005156
  405        6.604526   1.005156
  406        6.604527   1.005155
  407        6.604527   1.005155
  408        6.604527   1.005155
  409        6.624502   0.981004
  410        6.624502   0.981004
  411        6.624502   0.981004
  412        6.624503   0.981003
  413        6.624503   0.981003
  414        6.624503   0.981003
  415        6.670511   0.889513
  416        6.670511   0.889513
  417        6.670527   0.889473
  418        6.680497   0.862665
  419        6.680512   0.862625
  420        6.680512   0.862625
  421        6.699654   0.804415
  422        6.699654   0.804415
  423        6.785046   0.469459
  424        6.785046   0.469459
  425        6.785046   0.469459
  426        6.785059   0.469404
  427        6.785059   0.469404
  428        6.785059   0.469404
  429        6.857387   0.191057
  430        6.857388   0.191055
  431        6.857388   0.191055
  432        6.857389   0.191051
  433        6.857389   0.191051
  434        6.857389   0.191049
  435        6.866937   0.161244
  436        6.866938   0.161242
  437        6.866938   0.161242
  438        6.903516   0.067622
  439        6.903516   0.067622
  440        6.903516   0.067622
  441        7.014960  -0.035210
  442        7.014960  -0.035210
  443        7.014960  -0.035210
  444        7.014968  -0.035211
  445        7.014968  -0.035211
  446        7.014968  -0.035211
  447        7.025668  -0.035426
  448        7.025668  -0.035426
  449        7.025668  -0.035426
  450        7.029760  -0.035279
  451        7.029760  -0.035279
  452        7.053839  -0.032475
  453        7.053839  -0.032475
  454        7.053839  -0.032475
  455        7.053839  -0.032475
  456        7.053839  -0.032475
  457        7.053839  -0.032475
  458        7.079529  -0.027269
  459        7.079529  -0.027269
  460        7.079530  -0.027269
  461        7.079540  -0.027267
  462        7.079541  -0.027267
  463        7.079541  -0.027267
  464        7.117449  -0.018629
  465        7.117449  -0.018629
  466        7.117450  -0.018629
  467        7.129780  -0.016024
  468        7.129780  -0.016024
  469        7.129780  -0.016024
  470        7.192284  -0.006285
  471        7.192286  -0.006285
  472        7.192286  -0.006285
  473        7.211898  -0.004438
  474        7.211899  -0.004438
  475        7.211899  -0.004438
  476        7.240040  -0.002582
  477        7.240040  -0.002582
  478        7.240040  -0.002582
  479        7.244962  -0.002337
  480        7.244963  -0.002337
  481        7.244963  -0.002337
  482        7.302769  -0.000651
  483        7.302773  -0.000651
  484        7.302774  -0.000651
  485        7.341470  -0.000249
  486        7.341471  -0.000249
  487        7.341474  -0.000249
  488        7.341481  -0.000249
  489        7.341492  -0.000249
  490        7.341527  -0.000248
  491        7.373714  -0.000105
  492        7.373720  -0.000105
  493        7.373729  -0.000105
  494        7.373738  -0.000105
  495        7.373746  -0.000105
  496        7.373798  -0.000104
  497        7.436101  -0.000017
  498        7.436102  -0.000017
  499        7.436114  -0.000017
  500        7.436128  -0.000017
  501        7.436180  -0.000017
  502        7.436277  -0.000017
  503        7.453625  -0.000010
  504        7.453782  -0.000010
  505        7.456221  -0.000009
  506        7.456239  -0.000009
  507        7.456475  -0.000009
  508        7.545600  -0.000000
  509        7.545867  -0.000000
  510        7.547075  -0.000000
  511        7.548812  -0.000000
  512        7.548879  -0.000000
  513        7.548998  -0.000000
  514        7.549024  -0.000000
  515        7.549330  -0.000000
  516        7.550335  -0.000000
  517        7.552407  -0.000000
  518        7.561398  -0.000000
 
  0.3750000E+00  0.1250000E+00  0.1250000E+00  0.3750000E+00
    1       -1.741305   1.000000
    2       -1.357920   1.000000
    3       -0.629660   1.000000
    4       -0.629660   1.000000
    5       -0.284799   1.000000
    6       -0.284799   1.000000
    7        0.041171   1.000000
    8        0.041171   1.000000
    9        0.337263   1.000000
   10        0.361314   1.000000
   11        0.361314   1.000000
   12        0.583093   1.000000
   13        0.622298   1.000000
   14        0.908349   1.000000
   15        0.908349   1.000000
   16        1.083260   1.000000
   17        1.083260   1.000000
   18        1.312867   1.000000
   19        1.404295   1.000000
   20        1.476091   1.000000
   21        1.476091   1.000000
   22        1.480168   1.000000
   23        1.731066   1.000000
   24        1.871016   1.000000
   25        1.871019   1.000000
   26        1.886353   1.000000
   27        1.930661   1.000000
   28        1.930661   1.000000
   29        1.936339   1.000000
   30        1.953186   1.000000
   31        1.953186   1.000000
   32        1.993608   1.000000
   33        2.011394   1.000000
   34        2.011397   1.000000
   35        2.094078   1.000000
   36        2.099884   1.000000
   37        2.099884   1.000000
   38        2.121864   1.000000
   39        2.121864   1.000000
   40        2.128530   1.000000
   41        2.166319   1.000000
   42        2.166320   1.000000
   43        2.195593   1.000000
   44        2.195593   1.000000
   45        2.235017   1.000000
   46        2.235021   1.000000
   47        2.278585   1.000000
   48        2.278588   1.000000
   49        2.377641   1.000000
   50        2.377641   1.000000
   51        2.479972   1.000000
   52        2.479972   1.000000
   53        2.508789   1.000000
   54        2.508789   1.000000
   55        2.508953   1.000000
   56        2.508953   1.000000
   57        2.533197   1.000000
   58        2.533197   1.000000
   59        2.535339   1.000000
   60        2.535339   1.000000
   61        2.590199   1.000000
   62        2.590199   1.000000
   63        2.623276   1.000000
   64        2.623277   1.000000
   65        2.629285   1.000000
   66        2.629287   1.000000
   67        2.684806   1.000000
   68        2.684806   1.000000
   69        2.700828   1.000000
   70        2.713904   1.000000
   71        2.713904   1.000000
   72        2.739393   1.000000
   73        2.739394   1.000000
   74        2.756193   1.000000
   75        2.756197   1.000000
   76        2.757346   1.000000
   77        2.757349   1.000000
   78        2.803240   1.000000
   79        2.803240   1.000000
   80        2.804037   1.000000
   81        2.804038   1.000000
   82        2.848067   1.000000
   83        2.890424   1.000000
   84        2.890424   1.000000
   85        2.898391   1.000000
   86        2.898391   1.000000
   87        2.907968   1.000000
   88        2.907968   1.000000
   89        2.918710   1.000000
   90        2.918710   1.000000
   91        2.933664   1.000000
   92        2.953903   1.000000
   93        3.011440   1.000000
   94        3.011447   1.000000
   95        3.024919   1.000000
   96        3.024919   1.000000
   97        3.029007   1.000000
   98        3.029007   1.000000
   99        3.033382   1.000000
  100        3.033382   1.000000
  101        3.038350   1.000000
  102        3.103042   1.000000
  103        3.103042   1.000000
  104        3.130990   1.000000
  105        3.130990   1.000000
  106        3.201160   1.000000
  107        3.201160   1.000000
  108        3.209854   1.000000
  109        3.209854   1.000000
  110        3.226665   1.000000
  111        3.235341   1.000000
  112        3.235349   1.000000
  113        3.241979   1.000000
  114        3.241979   1.000000
  115        3.271468   1.000000
  116        3.271468   1.000000
  117        3.296331   1.000000
  118        3.296332   1.000000
  119        3.319493   1.000000
  120        3.319493   1.000000
  121        3.386156   1.000000
  122        3.386156   1.000000
  123        3.409890   1.000000
  124        3.409891   1.000000
  125        3.410872   1.000000
  126        3.410872   1.000000
  127        3.480378   1.000000
  128        3.502246   1.000000
  129        3.502247   1.000000
  130        3.503637   1.000000
  131        3.503637   1.000000
  132        3.511023   1.000000
  133        3.511023   1.000000
  134        3.542386   1.000000
  135        3.542386   1.000000
  136        3.549296   1.000000
  137        3.549300   1.000000
  138        3.575430   1.000000
  139        3.575431   1.000000
  140        3.616627   1.000000
  141        3.616627   1.000000
  142        3.619860   1.000000
  143        3.619860   1.000000
  144        3.625495   1.000000
  145        3.625496   1.000000
  146        3.632982   1.000000
  147        3.639377   1.000000
  148        3.700178   1.000000
  149        3.700181   1.000000
  150        3.761027   1.000000
  151        3.761027   1.000000
  152        3.782462   1.000000
  153        3.782462   1.000000
  154        3.809986   1.000000
  155        3.809986   1.000000
  156        3.823580   1.000000
  157        3.889551   1.000000
  158        3.889551   1.000000
  159        3.891359   1.000000
  160        3.891359   1.000000
  161        3.905014   1.000000
  162        3.905015   1.000000
  163        3.928489   1.000000
  164        3.928489   1.000000
  165        3.935288   1.000000
  166        3.935289   1.000000
  167        3.960976   1.000000
  168        3.986614   1.000000
  169        3.986614   1.000000
  170        4.013628   1.000000
  171        4.013631   1.000000
  172        4.032463   1.000000
  173        4.039828   1.000000
  174        4.039828   1.000000
  175        4.080619   1.000000
  176        4.080620   1.000000
  177        4.107666   1.000000
  178        4.107666   1.000000
  179        4.165200   1.000000
  180        4.165200   1.000000
  181        4.200521   1.000000
  182        4.200522   1.000000
  183        4.200557   1.000000
  184        4.200564   1.000000
  185        4.214927   1.000000
  186        4.214927   1.000000
  187        4.246328   1.000000
  188        4.246329   1.000000
  189        4.301088   1.000000
  190        4.301088   1.000000
  191        4.312743   1.000000
  192        4.312743   1.000000
  193        4.389457   1.000000
  194        4.389464   1.000000
  195        4.394094   1.000000
  196        4.417152   1.000000
  197        4.417153   1.000000
  198        4.458783   1.000000
  199        4.458785   1.000000
  200        4.461838   1.000000
  201        4.461838   1.000000
  202        4.462161   1.000000
  203        4.462161   1.000000
  204        4.506966   1.000000
  205        4.509552   1.000000
  206        4.509552   1.000000
  207        4.549813   1.000000
  208        4.549813   1.000000
  209        4.564673   1.000000
  210        4.564674   1.000000
  211        4.570244   1.000000
  212        4.586689   1.000000
  213        4.586689   1.000000
  214        4.602421   1.000000
  215        4.619788   1.000000
  216        4.619795   1.000000
  217        4.638786   1.000000
  218        4.638786   1.000000
  219        4.663890   1.000000
  220        4.663890   1.000000
  221        4.674894   1.000000
  222        4.677626   1.000000
  223        4.677626   1.000000
  224        4.719714   1.000000
  225        4.719718   1.000000
  226        4.773740   1.000000
  227        4.773741   1.000000
  228        4.797060   1.000000
  229        4.815900   1.000000
  230        4.850325   1.000000
  231        4.851490   1.000000
  232        4.851490   1.000000
  233        4.871537   1.000000
  234        4.871537   1.000000
  235        4.880935   1.000000
  236        4.880935   1.000000
  237        4.883761   1.000000
  238        4.883766   1.000000
  239        4.885248   1.000000
  240        4.885249   1.000000
  241        4.894463   1.000000
  242        4.910666   1.000000
  243        4.910666   1.000000
  244        4.934159   1.000000
  245        4.934159   1.000000
  246        4.936185   1.000000
  247        4.936185   1.000000
  248        4.943101   1.000000
  249        4.943101   1.000000
  250        4.979345   1.000000
  251        4.979354   1.000000
  252        4.995926   1.000000
  253        4.995926   1.000000
  254        5.015478   1.000000
  255        5.015486   1.000000
  256        5.022701   1.000000
  257        5.022701   1.000000
  258        5.035458   1.000000
  259        5.047409   1.000000
  260        5.047411   1.000000
  261        5.066604   1.000000
  262        5.069736   1.000000
  263        5.083986   1.000000
  264        5.090263   1.000000
  265        5.090263   1.000000
  266        5.091021   1.000000
  267        5.125622   1.000000
  268        5.140056   1.000000
  269        5.179828   1.000000
  270        5.185210   1.000000
  271        5.185219   1.000000
  272        5.191190   1.000000
  273        5.212241   1.000000
  274        5.215370   1.000000
  275        5.215370   1.000000
  276        5.242698   1.000000
  277        5.246793   1.000000
  278        5.253343   1.000000
  279        5.253343   1.000000
  280        5.254590   1.000000
  281        5.254591   1.000000
  282        5.262980   1.000000
  283        5.271514   1.000000
  284        5.271515   1.000000
  285        5.298490   1.000000
  286        5.298490   1.000000
  287        5.299516   1.000000
  288        5.299516   1.000000
  289        5.312842   1.000000
  290        5.312842   1.000000
  291        5.313876   1.000000
  292        5.313886   1.000000
  293        5.380723   1.000000
  294        5.382155   1.000000
  295        5.382155   1.000000
  296        5.383867   1.000000
  297        5.399506   1.000000
  298        5.407807   1.000000
  299        5.410750   1.000000
  300        5.418471   1.000000
  301        5.418471   1.000000
  302        5.419693   1.000000
  303        5.419693   1.000000
  304        5.429863   1.000000
  305        5.443336   1.000000
  306        5.443345   1.000000
  307        5.443911   1.000000
  308        5.443911   1.000000
  309        5.445540   1.000000
  310        5.467476   1.000000
  311        5.467476   1.000000
  312        5.472093   1.000000
  313        5.472094   1.000000
  314        5.505152   1.000000
  315        5.505152   1.000000
  316        5.506517   1.000000
  317        5.506517   1.000000
  318        5.514455   1.000000
  319        5.514455   1.000000
  320        5.526182   1.000000
  321        5.526182   1.000000
  322        5.537387   1.000000
  323        5.550196   1.000000
  324        5.550196   1.000000
  325        5.577462   1.000000
  326        5.577462   1.000000
  327        5.580683   1.000000
  328        5.590367   1.000000
  329        5.590367   1.000000
  330        5.629126   1.000000
  331        5.629126   1.000000
  332        5.639246   1.000000
  333        5.639246   1.000000
  334        5.647557   1.000000
  335        5.654500   1.000000
  336        5.654509   1.000000
  337        5.667332   1.000000
  338        5.667333   1.000000
  339        5.707843   1.000000
  340        5.710547   1.000000
  341        5.710559   1.000000
  342        5.734178   1.000000
  343        5.756964   1.000000
  344        5.809101   1.000000
  345        5.810110   1.000000
  346        5.810115   1.000000
  347        5.829442   1.000000
  348        5.829444   1.000000
  349        5.837738   1.000000
  350        5.837738   1.000000
  351        5.849762   1.000000
  352        5.849762   1.000000
  353        5.857266   1.000000
  354        5.951041   1.000000
  355        5.951041   1.000000
  356        5.990153   1.000000
  357        5.990153   1.000000
  358        6.053754   1.000002
  359        6.053754   1.000002
  360        6.065920   1.000003
  361        6.065920   1.000003
  362        6.077066   1.000004
  363        6.077066   1.000004
  364        6.108228   1.000012
  365        6.108229   1.000012
  366        6.114373   1.000014
  367        6.124954   1.000020
  368        6.124955   1.000020
  369        6.157691   1.000053
  370        6.172798   1.000081
  371        6.172798   1.000081
  372        6.202980   1.000185
  373        6.202981   1.000185
  374        6.205081   1.000196
  375        6.205086   1.000196
  376        6.227473   1.000350
  377        6.243723   1.000523
  378        6.243723   1.000523
  379        6.253087   1.000655
  380        6.253087   1.000655
  381        6.254073   1.000670