       N       E                     dE             d eps       ncg     rms          rms(c)
DAV:   1     0.804469428150E+04    0.80447E+04   -0.31243E+05  4144   0.200E+03
DAV:   2     0.582852748302E+02   -0.79864E+04   -0.78205E+04  4144   0.475E+02
DAV:   3    -0.840442409750E+03   -0.89873E+03   -0.76740E+03  4160   0.203E+02
DAV:   4    -0.102896200949E+04   -0.18852E+03   -0.17674E+03  7504   0.596E+01
DAV:   5    -0.104524511210E+04   -0.16283E+02   -0.15396E+02  6624   0.229E+01    0.935E+01
RMM:   6    -0.877489691596E+03    0.16776E+03   -0.13548E+03  4144   0.110E+02    0.892E+00
RMM:   7    -0.880320022509E+03   -0.28303E+01   -0.11018E+02  4528   0.236E+01    0.337E+00
RMM:   8    -0.879429859695E+03    0.89016E+00   -0.12971E+01  4413   0.102E+01    0.457E+00
RMM:   9    -0.879771981489E+03   -0.34212E+00   -0.47052E+00  5739   0.196E+00    0.345E+00
RMM:  10    -0.879582608191E+03    0.18937E+00   -0.10264E+00  5054   0.152E+00    0.802E-01
RMM:  11    -0.879590336219E+03   -0.77280E-02   -0.17035E-01  5351   0.581E-01    0.493E-01
RMM:  12    -0.879587970728E+03    0.23655E-02   -0.38833E-02  4917   0.365E-01    0.109E-01
RMM:  13    -0.879588514164E+03   -0.54344E-03   -0.11421E-02  5960   0.872E-02    0.154E-02
RMM:  14    -0.879588564888E+03   -0.50724E-04   -0.38162E-04  5710   0.313E-02    0.145E-02
RMM:  15    -0.879588507956E+03    0.56932E-04    0.32634E-04  5253   0.139E-02    0.205E-03
RMM:  16    -0.879588471093E+03    0.36862E-04    0.30500E-04  4124   0.401E-03    0.830E-04
RMM:  17    -0.879588439937E+03    0.31156E-04    0.26556E-04  2940   0.219E-03    0.103E-03
RMM:  18    -0.879588424142E+03    0.15795E-04    0.14681E-04  2754   0.223E-03    0.432E-04
RMM:  19    -0.879588411263E+03    0.12880E-04    0.12398E-04  2670   0.171E-03    0.768E-04
RMM:  20    -0.879588400357E+03    0.10906E-04    0.10660E-04  2611   0.154E-03    0.209E-04
RMM:  21    -0.879588381518E+03    0.18839E-04    0.17375E-04  2471   0.111E-03    0.487E-04
RMM:  22    -0.879588369350E+03    0.12168E-04    0.10781E-04  2421   0.107E-03    0.134E-04
RMM:  23    -0.879588361378E+03    0.79724E-05    0.73519E-05  2022   0.723E-04    0.258E-04
RMM:  24    -0.879588354857E+03    0.65213E-05    0.61182E-05  2005   0.712E-04    0.326E-05
RMM:  25    -0.879588349282E+03    0.55750E-05    0.53640E-05  1695   0.558E-04    0.190E-04
RMM:  26    -0.879588344193E+03    0.50883E-05    0.49047E-05  1829   0.544E-04    0.132E-04
RMM:  27    -0.879588339583E+03    0.46105E-05    0.44878E-05  1478   0.472E-04    0.220E-04
RMM:  28    -0.879588335303E+03    0.42800E-05    0.41675E-05  1288   0.452E-04    0.113E-04
RMM:  29    -0.879588331377E+03    0.39263E-05    0.38338E-05  1120   0.400E-04    0.181E-04
RMM:  30    -0.879588327738E+03    0.36390E-05    0.35614E-05  1065   0.389E-04    0.142E-04
RMM:  31    -0.879588324392E+03    0.33460E-05    0.32774E-05   955   0.368E-04    0.190E-04
RMM:  32    -0.879588321290E+03    0.31011E-05    0.30377E-05   873   0.356E-04    0.163E-04
RMM:  33    -0.879588318455E+03    0.28356E-05    0.27925E-05   848   0.342E-04    0.168E-04
RMM:  34    -0.879588315824E+03    0.26307E-05    0.25812E-05   914   0.336E-04    0.127E-04
RMM:  35    -0.879588313410E+03    0.24141E-05    0.23698E-05   759   0.311E-04    0.141E-04
RMM:  36    -0.879588311187E+03    0.22229E-05    0.21852E-05   842   0.305E-04    0.113E-04
RMM:  37    -0.879588309152E+03    0.20348E-05    0.20035E-05   748   0.282E-04    0.115E-04
RMM:  38    -0.879588307278E+03    0.18740E-05    0.18439E-05   700   0.278E-04    0.113E-04
RMM:  39    -0.879588305566E+03    0.17121E-05    0.16887E-05   674   0.269E-04    0.116E-04
RMM:  40    -0.879588303986E+03    0.15807E-05    0.15512E-05   827   0.259E-04    0.846E-05
RMM:  41    -0.879588302541E+03    0.14442E-05    0.14194E-05   655   0.230E-04    0.850E-05
RMM:  42    -0.879588301248E+03    0.12932E-05    0.13021E-05   632   0.269E-04    0.113E-04
RMM:  43    -0.879588300057E+03    0.11909E-05    0.11901E-05   793   0.316E-04    0.160E-04
RMM:  44    -0.879588298964E+03    0.10931E-05    0.10903E-05  1076   0.334E-04    0.235E-04
RMM:  45    -0.879588297968E+03    0.99649E-06    0.99616E-06   988   0.289E-04
   1 F= -.87958830E+03 E0= -.87956444E+03  d E =-.879588E+03
       N       E                     dE             d eps       ncg     rms          rms(c)
DAV:   1    -0.879833150793E+03   -0.24485E+00   -0.64690E+00  4720   0.796E+00    0.380E+00
RMM:   2    -0.879589557214E+03    0.24359E+00   -0.21319E+00  4153   0.398E+00    0.469E-01
RMM:   3    -0.879587556343E+03    0.20009E-02   -0.16703E-01  4589   0.736E-01    0.372E-01
RMM:   4    -0.879584328324E+03    0.32280E-02   -0.69062E-02  4144   0.853E-01    0.434E-01
RMM:   5    -0.879585658779E+03   -0.13305E-02   -0.96667E-03  4238   0.224E-01    0.716E-01
RMM:   6    -0.879582167893E+03    0.34909E-02   -0.16120E-02  4156   0.346E-01    0.605E-02
RMM:   7    -0.879582287824E+03   -0.11993E-03   -0.20340E-03  5168   0.490E-02    0.804E-02
RMM:   8    -0.879582237330E+03    0.50493E-04   -0.22865E-04  4176   0.434E-02    0.435E-02
RMM:   9    -0.879582249924E+03   -0.12594E-04   -0.20728E-04  4189   0.342E-02    0.729E-03
RMM:  10    -0.879582251925E+03   -0.20008E-05   -0.39019E-05  4660   0.594E-03    0.411E-03
RMM:  11    -0.879582250827E+03    0.10983E-05    0.13702E-08  2275   0.233E-03    0.363E-03
RMM:  12    -0.879582248590E+03    0.22369E-05   -0.37683E-06  3072   0.568E-03    0.321E-03
RMM:  13    -0.879582249608E+03   -0.10175E-05    0.22730E-07  2226   0.277E-03    0.133E-03
RMM:  14    -0.879582250075E+03   -0.46762E-06   -0.39301E-08  2156   0.685E-04
   2 F= -.87958225E+03 E0= -.87955967E+03  d E =0.604789E-02
       N       E                     dE             d eps       ncg     rms          rms(c)
DAV:   1    -0.879682355991E+03   -0.10011E+00   -0.23231E+00  4624   0.476E+00    0.227E+00
RMM:   2    -0.879595081094E+03    0.87275E-01   -0.75783E-01  4153   0.238E+00    0.282E-01
RMM:   3    -0.879594882594E+03    0.19850E-03   -0.61229E-02  4587   0.438E-01    0.221E-01
RMM:   4    -0.879593816625E+03    0.10660E-02   -0.23677E-02  4144   0.499E-01    0.309E-01
RMM:   5    -0.879593969875E+03   -0.15325E-03   -0.30205E-03  4279   0.125E-01    0.345E-01
RMM:   6    -0.879592978736E+03    0.99114E-03   -0.64974E-03  4162   0.217E-01    0.365E-02
RMM:   7    -0.879593015996E+03   -0.37260E-04   -0.79658E-04  4840   0.296E-02    0.535E-02
RMM:   8    -0.879592954077E+03    0.61919E-04   -0.13801E-04  4156   0.353E-02    0.247E-02
RMM:   9    -0.879592921875E+03    0.32201E-04   -0.78752E-05  4209   0.200E-02    0.284E-03
RMM:  10    -0.879592924899E+03   -0.30239E-05   -0.11573E-05  3513   0.326E-03    0.212E-03
RMM:  11    -0.879592925115E+03   -0.21577E-06   -0.74150E-07  2186   0.235E-03
   3 F= -.87959293E+03 E0= -.87956962E+03  d E =-.462715E-02
