 vasp.5.4.4.18Apr17-6-g9f103f2a35 (build Aug 17 2017 06:00:38) complex          
  
 executed on             LinuxIFC date 2019.07.12  14:47:20
 running on    8 total cores
 distrk:  each k-point on    8 cores,    1 groups
 distr:  one band on NCORES_PER_BAND=   4 cores,    2 groups


--------------------------------------------------------------------------------------------------------


 INCAR:
 POTCAR:   PAW_PBE Fe 06Sep2000                   
 POTCAR:   PAW_PBE Fe 06Sep2000                   
   VRHFIN =Fe:  d7 s1                                                           
   LEXCH  = PE                                                                  
   EATOM  =   594.4687 eV,   43.6922 Ry                                         
                                                                                
   TITEL  = PAW_PBE Fe 06Sep2000                                                
   LULTRA =        F    use ultrasoft PP ?                                      
   IUNSCR =        1    unscreen: 0-lin 1-nonlin 2-no                           
   RPACOR =    2.000    partial core radius                                     
   POMASS =   55.847; ZVAL   =    8.000    mass and valenz                      
   RCORE  =    2.300    outmost cutoff radius                                   
   RWIGS  =    2.460; RWIGS  =    1.302    wigner-seitz radius (au A)           
   ENMAX  =  267.883; ENMIN  =  200.912 eV                                      
   RCLOC  =    1.701    cutoff for local pot                                    
   LCOR   =        T    correct aug charges                                     
   LPAW   =        T    paw PP                                                  
   EAUG   =  511.368                                                            
   DEXC   =    -.022                                                            
   RMAX   =    2.817    core radius for proj-oper                               
   RAUG   =    1.300    factor for augmentation sphere                          
   RDEP   =    2.442    radius for radial grids                                 
   QCUT   =   -4.437; QGAM   =    8.874    optimization parameters              
                                                                                
   Description                                                                  
     l     E      TYP  RCUT    TYP  RCUT                                        
     2   .000     23  2.300                                                     
     2   .000     23  2.300                                                     
     0   .000     23  2.300                                                     
     0   .000     23  2.300                                                     
     1  -.200     23  2.300                                                     
     1   .000     23  2.300                                                     
     3   .000      7   .000                                                     
  local pseudopotential read in
  partial core-charges read in
  atomic valenz-charges read in
  non local Contribution for L=           2  read in
    real space projection operators read in
  non local Contribution for L=           2  read in
    real space projection operators read in
  non local Contribution for L=           0  read in
    real space projection operators read in
  non local Contribution for L=           0  read in
    real space projection operators read in
  non local Contribution for L=           1  read in
    real space projection operators read in
  non local Contribution for L=           1  read in
    real space projection operators read in
    PAW grid and wavefunctions read in
 
   number of l-projection  operators is LMAX  =           6
   number of lm-projection operators is LMMAX =          18
 
 Optimization of the real space projectors (new method)

 maximal supplied QI-value         = 16.25
 optimisation between [QCUT,QGAM] = [ 10.73, 21.61] = [ 32.22,130.83] Ry 
 Optimized for a Real-space Cutoff    1.38 Angstroem

   l    n(q)    QCUT    max X(q) W(low)/X(q) W(high)/X(q)  e(spline) 
   2      8    10.726     4.378    0.85E-04    0.13E-04    0.43E-07
   2      8    10.726    23.237    0.27E-03    0.52E-03    0.20E-06
   0      9    10.726    17.641    0.29E-04    0.12E-04    0.49E-08
   0      9    10.726    50.908    0.30E-03    0.18E-03    0.48E-07
   1      8    10.726     6.148    0.34E-04    0.52E-04    0.31E-07
   1      8    10.726     8.345    0.18E-03    0.14E-03    0.14E-06
 PAW_PBE Fe 06Sep2000                   :
 energy of atom  1       EATOM= -594.4687
 kinetic energy error for atom=    0.0034 (will be added to EATOM!!)
 
 
 POSCAR: fcc_Fe_CON_333                          
  positions in direct lattice
  velocities in cartesian coordinates
 exchange correlation table for  LEXCH =        8
   RHO(1)=    0.500       N(1)  =     2000
   RHO(2)=  100.500       N(2)  =     4000
 


--------------------------------------------------------------------------------------------------------


 ion  position               nearest neighbor table
   1  0.000  0.000  0.000-   2 2.44   3 2.44   4 2.44  11 2.44  12 2.44  26 2.44  28 2.44  74 2.44
                            75 2.44  36 2.44  83 2.44  98 2.44
   2  0.000  0.167  0.167-  49 2.44  37 2.44  13 2.44  40 2.44  15 2.44  48 2.44  23 2.44   3 2.44
                             4 2.44   1 2.44  12 2.44  11 2.44
   3  0.167  0.000  0.167-  41 2.44  37 2.44   5 2.44  40 2.44   6 2.44  30 2.44  64 2.44   2 2.44
                             4 2.44   1 2.44  28 2.44  26 2.44
   4  0.167  0.167  0.000-  17 2.44  13 2.44   5 2.44  15 2.44   6 2.44  78 2.44  87 2.44   2 2.44
                             3 2.44   1 2.44  74 2.44  75 2.44
   5  0.333  0.000  0.000-   3 2.44   4 2.44  28 2.44  75 2.44   6 2.44   7 2.44   8 2.44  30 2.44
                            78 2.44  32 2.44  79 2.44 102 2.44
   6  0.333  0.167  0.167-  15 2.44  40 2.44  53 2.44  17 2.44  19 2.44   4 2.44  41 2.44  44 2.44
                             3 2.44   7 2.44   8 2.44   5 2.44
   7  0.500  0.000  0.167-  41 2.44  44 2.44  45 2.44  68 2.44   6 2.44   5 2.44   8 2.44  10 2.44
                            30 2.44   9 2.44  32 2.44  34 2.44
   8  0.500  0.167  0.000-  17 2.44  19 2.44  21 2.44  91 2.44   6 2.44   5 2.44   7 2.44  78 2.44
                            10 2.44  79 2.44   9 2.44  82 2.44
   9  0.667  0.000  0.000-  11 2.44  12 2.44  36 2.44  83 2.44  10 2.44  82 2.44  34 2.44   8 2.44
                             7 2.44 106 2.44  79 2.44  32 2.44
  10  0.667  0.167  0.167-  23 2.44  48 2.44  57 2.44  12 2.44  11 2.44  21 2.44  45 2.44  44 2.44
                            19 2.44   9 2.44   7 2.44   8 2.44
  11  0.833  0.000  0.167-  45 2.44   9 2.44  10 2.44  34 2.44  48 2.44  37 2.44  72 2.44  12 2.44
                             2 2.44  36 2.44   1 2.44  26 2.44
  12  0.833  0.167  0.000-  21 2.44   9 2.44  10 2.44  82 2.44  23 2.44  13 2.44  95 2.44  11 2.44
                             1 2.44  83 2.44   2 2.44  74 2.44
  13  0.000  0.333  0.000-   2 2.44   4 2.44  12 2.44  74 2.44  15 2.44  16 2.44  14 2.44  23 2.44
                            87 2.44  86 2.44  24 2.44  95 2.44
  14  0.000  0.500  0.167-  49 2.44  52 2.44  60 2.44  61 2.44  15 2.44  13 2.44  16 2.44  23 2.44
                            27 2.44  25 2.44  24 2.44  35 2.44
  15  0.167  0.333  0.167-   6 2.44  40 2.44  53 2.44  17 2.44  18 2.44   4 2.44  49 2.44  52 2.44
                             2 2.44  13 2.44  14 2.44  16 2.44
  16  0.167  0.500  0.000-  17 2.44  18 2.44  29 2.44  90 2.44  15 2.44  14 2.44  13 2.44  87 2.44
                            27 2.44  25 2.44  86 2.44  99 2.44
  17  0.333  0.333  0.000-   4 2.44   8 2.44  16 2.44  15 2.44   6 2.44  78 2.44  87 2.44  20 2.44
                            18 2.44  19 2.44  90 2.44  91 2.44
  18  0.333  0.500  0.167-  52 2.44  16 2.44  56 2.44  53 2.44  15 2.44  27 2.44  65 2.44  20 2.44
                            17 2.44  19 2.44  29 2.44  31 2.44
  19  0.500  0.333  0.167-  44 2.44   8 2.44  56 2.44  53 2.44   6 2.44  10 2.44  57 2.44  18 2.44
                            20 2.44  17 2.44  21 2.44  22 2.44
  20  0.500  0.500  0.000-  17 2.44  18 2.44  19 2.44  21 2.44  22 2.44  29 2.44  31 2.44  90 2.44
                            91 2.44  33 2.44  94 2.44 103 2.44
  21  0.667  0.333  0.000-  12 2.44  24 2.44  23 2.44  95 2.44  10 2.44   8 2.44  82 2.44  22 2.44
                            20 2.44  94 2.44  19 2.44  91 2.44
  22  0.667  0.500  0.167-  60 2.44  24 2.44  23 2.44  35 2.44  57 2.44  56 2.44  69 2.44  21 2.44
                            33 2.44  20 2.44  19 2.44  31 2.44
  23  0.833  0.333  0.167-  10 2.44  57 2.44  48 2.44  21 2.44  22 2.44  12 2.44  60 2.44   2 2.44
                            49 2.44  24 2.44  14 2.44  13 2.44
  24  0.833  0.500  0.000-  21 2.44  22 2.44  33 2.44  94 2.44  23 2.44  35 2.44  95 2.44  14 2.44
                            13 2.44 107 2.44  86 2.44  25 2.44
  25  0.000  0.667  0.000-  26 2.44  28 2.44  36 2.44  98 2.44  27 2.44  35 2.44  99 2.44  16 2.44
                            14 2.44 107 2.44  86 2.44  24 2.44
  26  0.000  0.833  0.167-  61 2.44  25 2.44  27 2.44  35 2.44  64 2.44  37 2.44  72 2.44  28 2.44
                             3 2.44  36 2.44   1 2.44  11 2.44
  27  0.167  0.667  0.167-  30 2.44  64 2.44  65 2.44  28 2.44  26 2.44  29 2.44  61 2.44  52 2.44
                            18 2.44  25 2.44  14 2.44  16 2.44
  28  0.167  0.833  0.000-  29 2.44  25 2.44  27 2.44  99 2.44  30 2.44   5 2.44 102 2.44  26 2.44
                            98 2.44   1 2.44   3 2.44  75 2.44
  29  0.333  0.667  0.000-  28 2.44  32 2.44  30 2.44 102 2.44  27 2.44  16 2.44  99 2.44  31 2.44
                            20 2.44  18 2.44 103 2.44  90 2.44
  30  0.333  0.833  0.167-  27 2.44  65 2.44  64 2.44  29 2.44  31 2.44  28 2.44  68 2.44  41 2.44
                             3 2.44  32 2.44   7 2.44   5 2.44
  31  0.500  0.667  0.167-  68 2.44  32 2.44  30 2.44  34 2.44  65 2.44  56 2.44  69 2.44  29 2.44
                            33 2.44  20 2.44  18 2.44  22 2.44
  32  0.500  0.833  0.000-  29 2.44  31 2.44  33 2.44 103 2.44  30 2.44 102 2.44  34 2.44   7 2.44
                             5 2.44 106 2.44  79 2.44   9 2.44
  33  0.667  0.667  0.000-  36 2.44  35 2.44  34 2.44  32 2.44  24 2.44 106 2.44 107 2.44  22 2.44
                            31 2.44 103 2.44  20 2.44  94 2.44
  34  0.667  0.833  0.167-  35 2.44  69 2.44  72 2.44  33 2.44  36 2.44  31 2.44  11 2.44  45 2.44
                            68 2.44  32 2.44   9 2.44   7 2.44
  35  0.833  0.667  0.167-  34 2.44  69 2.44  72 2.44  33 2.44  36 2.44  26 2.44  22 2.44  60 2.44
                            61 2.44  24 2.44  25 2.44  14 2.44
  36  0.833  0.833  0.000-  33 2.44  34 2.44  35 2.44  25 2.44   9 2.44 106 2.44 107 2.44  26 2.44
                            11 2.44  98 2.44   1 2.44  83 2.44
  37  0.000  0.000  0.333-   2 2.44   3 2.44  11 2.44  26 2.44  40 2.44  39 2.44  38 2.44  48 2.44
                            64 2.44  62 2.44  47 2.44  72 2.44
  38  0.000  0.167  0.500-  49 2.44  51 2.44  59 2.44  85 2.44  40 2.44  39 2.44  37 2.44  76 2.44
                            48 2.44  47 2.44  73 2.44  84 2.44
  39  0.167  0.000  0.500-  41 2.44  42 2.44  66 2.44  77 2.44  40 2.44  38 2.44  37 2.44  76 2.44
                            64 2.44  62 2.44  73 2.44 100 2.44
  40  0.167  0.167  0.333-   6 2.44  15 2.44  53 2.44   3 2.44  41 2.44  42 2.44  49 2.44  51 2.44
                             2 2.44  39 2.44  37 2.44  38 2.44
  41  0.333  0.000  0.333-   3 2.44   7 2.44  39 2.44   6 2.44  40 2.44  30 2.44  64 2.44  43 2.44
                            44 2.44  42 2.44  66 2.44  68 2.44
  42  0.333  0.167  0.500-  51 2.44  39 2.44  55 2.44  53 2.44  40 2.44  76 2.44  89 2.44  44 2.44
                            41 2.44  43 2.44  80 2.44  77 2.44
  43  0.500  0.000  0.500-  41 2.44  42 2.44  44 2.44  45 2.44  46 2.44  66 2.44  68 2.44  77 2.44
                            80 2.44  70 2.44  81 2.44 104 2.44
  44  0.500  0.167  0.333-  19 2.44   7 2.44  55 2.44  53 2.44   6 2.44  10 2.44  57 2.44  41 2.44
                            42 2.44  43 2.44  46 2.44  45 2.44
  45  0.667  0.000  0.333-  11 2.44  47 2.44  48 2.44  72 2.44  10 2.44   7 2.44  34 2.44  46 2.44
                            43 2.44  70 2.44  44 2.44  68 2.44
  46  0.667  0.167  0.500-  59 2.44  47 2.44  48 2.44  84 2.44  57 2.44  55 2.44  93 2.44  45 2.44
                            81 2.44  43 2.44  44 2.44  80 2.44
  47  0.833  0.000  0.500-  45 2.44  46 2.44  70 2.44  81 2.44  48 2.44  72 2.44  84 2.44  38 2.44
                            37 2.44 108 2.44  73 2.44  62 2.44
  48  0.833  0.167  0.333-  10 2.44  57 2.44  23 2.44  46 2.44  45 2.44  11 2.44  59 2.44   2 2.44
                            49 2.44  47 2.44  37 2.44  38 2.44
  49  0.000  0.333  0.333-   2 2.44  14 2.44  38 2.44  15 2.44  40 2.44  23 2.44  48 2.44  50 2.44
                            51 2.44  52 2.44  59 2.44  60 2.44
  50  0.000  0.500  0.500-  49 2.44  51 2.44  52 2.44  59 2.44  60 2.44  61 2.44  63 2.44  85 2.44
                            88 2.44  71 2.44  96 2.44  97 2.44
  51  0.167  0.333  0.500-  42 2.44  38 2.44  54 2.44  53 2.44  40 2.44  76 2.44  89 2.44  50 2.44
                            52 2.44  49 2.44  88 2.44  85 2.44
  52  0.167  0.500  0.333-  18 2.44  14 2.44  54 2.44  53 2.44  15 2.44  27 2.44  65 2.44  49 2.44
                            50 2.44  51 2.44  63 2.44  61 2.44
  53  0.333  0.333  0.333-   6 2.44  15 2.44  40 2.44  19 2.44  18 2.44  42 2.44  44 2.44  51 2.44
                            52 2.44  54 2.44  55 2.44  56 2.44
  54  0.333  0.500  0.500-  51 2.44  52 2.44  63 2.44  88 2.44  53 2.44  55 2.44  56 2.44  65 2.44
                            89 2.44  67 2.44  92 2.44 101 2.44
  55  0.500  0.333  0.500-  42 2.44  44 2.44  46 2.44  80 2.44  53 2.44  56 2.44  54 2.44  57 2.44
                            89 2.44  58 2.44  92 2.44  93 2.44
  56  0.500  0.500  0.333-  18 2.44  19 2.44  22 2.44  31 2.44  53 2.44  54 2.44  55 2.44  57 2.44
                            65 2.44  58 2.44  67 2.44  69 2.44
  57  0.667  0.333  0.333-  23 2.44  48 2.44  10 2.44  59 2.44  60 2.44  46 2.44  22 2.44  19 2.44
                            44 2.44  58 2.44  56 2.44  55 2.44
  58  0.667  0.500  0.500-  59 2.44  60 2.44  71 2.44  96 2.44  57 2.44  93 2.44  69 2.44  56 2.44
                            55 2.44 105 2.44  92 2.44  67 2.44
  59  0.833  0.333  0.500-  46 2.44  58 2.44  57 2.44  93 2.44  48 2.44  38 2.44  84 2.44  60 2.44
                            50 2.44  49 2.44  96 2.44  85 2.44
  60  0.833  0.500  0.333-  22 2.44  58 2.44  57 2.44  69 2.44  23 2.44  14 2.44  35 2.44  59 2.44
                            49 2.44  50 2.44  71 2.44  61 2.44
  61  0.000  0.667  0.333-  26 2.44  62 2.44  64 2.44  72 2.44  27 2.44  14 2.44  35 2.44  63 2.44
                            50 2.44  71 2.44  52 2.44  60 2.44
  62  0.000  0.833  0.500-  61 2.44  63 2.44  71 2.44  97 2.44  64 2.44  72 2.44 100 2.44  39 2.44
                            37 2.44 108 2.44  73 2.44  47 2.44
  63  0.167  0.667  0.500-  66 2.44  62 2.44  64 2.44 100 2.44  65 2.44  54 2.44 101 2.44  61 2.44
                            97 2.44  50 2.44  52 2.44  88 2.44
  64  0.167  0.833  0.333-  27 2.44  65 2.44  30 2.44  63 2.44  61 2.44  26 2.44  66 2.44   3 2.44
                            41 2.44  62 2.44  37 2.44  39 2.44
  65  0.333  0.667  0.333-  30 2.44  64 2.44  27 2.44  66 2.44  68 2.44  63 2.44  31 2.44  18 2.44
                            52 2.44  67 2.44  56 2.44  54 2.44
  66  0.333  0.833  0.500-  63 2.44  67 2.44  65 2.44 101 2.44  64 2.44  39 2.44 100 2.44  68 2.44
                            43 2.44  41 2.44 104 2.44  77 2.44
  67  0.500  0.667  0.500-  66 2.44  68 2.44  70 2.44 104 2.44  65 2.44 101 2.44  69 2.44  56 2.44
                            54 2.44 105 2.44  92 2.44  58 2.44
  68  0.500  0.833  0.333-  31 2.44  67 2.44  65 2.44  69 2.44  30 2.44   7 2.44  34 2.44  66 2.44
                            41 2.44  43 2.44  70 2.44  45 2.44
  69  0.667  0.667  0.333-  72 2.44  35 2.44  34 2.44  71 2.44  70 2.44  68 2.44  60 2.44  31 2.44
                            22 2.44  58 2.44  67 2.44  56 2.44
  70  0.667  0.833  0.500-  71 2.44  69 2.44  72 2.44  67 2.44  47 2.44 105 2.44 108 2.44  68 2.44
                            45 2.44 104 2.44  43 2.44  81 2.44
  71  0.833  0.667  0.500-  70 2.44  69 2.44  72 2.44  62 2.44  58 2.44 105 2.44 108 2.44  60 2.44
                            61 2.44  97 2.44  50 2.44  96 2.44
  72  0.833  0.833  0.333-  69 2.44  35 2.44  34 2.44  70 2.44  71 2.44  61 2.44  45 2.44  26 2.44
                            11 2.44  62 2.44  47 2.44  37 2.44
  73  0.000  0.000  0.667-  74 2.44  75 2.44  83 2.44  98 2.44  76 2.44  84 2.44 100 2.44  39 2.44
                            38 2.44 108 2.44  47 2.44  62 2.44
  74  0.000  0.167  0.833-  85 2.44  73 2.44  76 2.44  84 2.44  87 2.44  13 2.44  95 2.44  75 2.44
                             4 2.44  83 2.44   1 2.44  12 2.44
  75  0.167  0.000  0.833-  77 2.44  73 2.44  76 2.44 100 2.44  78 2.44   5 2.44 102 2.44  74 2.44
                            98 2.44   1 2.44   4 2.44  28 2.44
  76  0.167  0.167  0.667-  78 2.44  87 2.44  89 2.44  75 2.44  74 2.44  77 2.44  85 2.44  51 2.44
                            42 2.44  73 2.44  38 2.44  39 2.44
  77  0.333  0.000  0.667-  75 2.44  79 2.44  78 2.44 102 2.44  76 2.44  39 2.44 100 2.44  80 2.44
                            43 2.44  42 2.44 104 2.44  66 2.44
  78  0.333  0.167  0.833-  76 2.44  89 2.44  87 2.44  77 2.44  80 2.44  75 2.44  91 2.44  17 2.44
                             4 2.44  79 2.44   8 2.44   5 2.44
  79  0.500  0.000  0.833-  77 2.44  80 2.44  81 2.44 104 2.44  78 2.44 102 2.44  82 2.44   8 2.44
                             5 2.44 106 2.44   9 2.44  32 2.44
  80  0.500  0.167  0.667-  91 2.44  79 2.44  78 2.44  82 2.44  89 2.44  55 2.44  93 2.44  77 2.44
                            43 2.44  81 2.44  42 2.44  46 2.44
  81  0.667  0.000  0.667-  83 2.44  82 2.44  84 2.44  79 2.44  47 2.44 106 2.44 108 2.44  80 2.44
                            46 2.44 104 2.44  70 2.44  43 2.44
  82  0.667  0.167  0.833-  84 2.44  93 2.44  95 2.44  83 2.44  81 2.44  80 2.44  12 2.44  21 2.44
                            91 2.44  79 2.44   9 2.44   8 2.44
  83  0.833  0.000  0.833-  81 2.44  82 2.44  84 2.44  73 2.44   9 2.44 106 2.44 108 2.44  74 2.44
                            12 2.44  98 2.44  36 2.44   1 2.44
  84  0.833  0.167  0.667-  82 2.44  93 2.44  95 2.44  81 2.44  83 2.44  74 2.44  46 2.44  59 2.44
                            85 2.44  73 2.44  47 2.44  38 2.44
  85  0.000  0.333  0.667-  74 2.44  86 2.44  87 2.44  95 2.44  76 2.44  38 2.44  84 2.44  88 2.44
                            51 2.44  50 2.44  96 2.44  59 2.44
  86  0.000  0.500  0.833-  85 2.44  88 2.44  96 2.44  97 2.44  87 2.44  95 2.44  99 2.44  16 2.44
                            13 2.44 107 2.44  24 2.44  25 2.44
  87  0.167  0.333  0.833-  76 2.44  89 2.44  78 2.44  88 2.44  85 2.44  74 2.44  90 2.44  17 2.44
                             4 2.44  86 2.44  16 2.44  13 2.44
  88  0.167  0.500  0.667-  90 2.44  86 2.44  87 2.44  99 2.44  89 2.44  54 2.44 101 2.44  85 2.44
                            97 2.44  50 2.44  51 2.44  63 2.44
  89  0.333  0.333  0.667-  78 2.44  87 2.44  76 2.44  90 2.44  91 2.44  80 2.44  88 2.44  51 2.44
                            42 2.44  92 2.44  54 2.44  55 2.44
  90  0.333  0.500  0.833-  88 2.44  92 2.44  89 2.44 101 2.44  87 2.44  16 2.44  99 2.44  91 2.44
                            20 2.44  17 2.44 103 2.44  29 2.44
  91  0.500  0.333  0.833-  80 2.44  92 2.44  89 2.44  93 2.44  78 2.44   8 2.44  82 2.44  90 2.44
                            20 2.44  17 2.44  94 2.44  21 2.44
  92  0.500  0.500  0.667-  90 2.44  91 2.44  94 2.44 103 2.44  89 2.44 101 2.44  93 2.44  55 2.44
                            54 2.44 105 2.44  58 2.44  67 2.44
  93  0.667  0.333  0.667-  95 2.44  84 2.44  82 2.44  94 2.44  96 2.44  91 2.44  59 2.44  46 2.44
                            80 2.44  92 2.44  58 2.44  55 2.44
  94  0.667  0.500  0.833-  96 2.44  95 2.44  93 2.44  92 2.44  24 2.44 105 2.44 107 2.44  21 2.44
                            91 2.44 103 2.44  33 2.44  20 2.44
  95  0.833  0.333  0.833-  93 2.44  84 2.44  82 2.44  94 2.44  96 2.44  85 2.44  21 2.44  12 2.44
                            74 2.44  86 2.44  24 2.44  13 2.44
  96  0.833  0.500  0.667-  94 2.44  93 2.44  95 2.44  86 2.44  58 2.44 105 2.44 107 2.44  59 2.44
                            85 2.44  97 2.44  71 2.44  50 2.44
  97  0.000  0.667  0.667-  98 2.44  99 2.44 100 2.44  86 2.44  62 2.44 107 2.44 108 2.44  88 2.44
                            63 2.44  96 2.44  50 2.44  71 2.44
  98  0.000  0.833  0.833-  97 2.44  99 2.44 100 2.44  73 2.44  25 2.44 107 2.44 108 2.44  75 2.44
                            28 2.44  83 2.44   1 2.44  36 2.44
  99  0.167  0.667  0.833- 100 2.44 101 2.44 102 2.44  98 2.44  97 2.44  88 2.44  28 2.44  90 2.44
                            29 2.44  86 2.44  25 2.44  16 2.44
 100  0.167  0.833  0.667-  99 2.44 101 2.44 102 2.44  98 2.44  97 2.44  75 2.44  63 2.44  77 2.44
                            66 2.44  73 2.44  62 2.44  39 2.44
 101  0.333  0.667  0.667- 102 2.44 100 2.44  99 2.44 103 2.44 104 2.44  90 2.44  66 2.44  63 2.44
                            88 2.44  92 2.44  67 2.44  54 2.44
 102  0.333  0.833  0.833- 101 2.44 100 2.44  99 2.44 103 2.44 104 2.44  77 2.44  29 2.44  28 2.44
                            75 2.44  79 2.44  32 2.44   5 2.44
 103  0.500  0.667  0.833- 104 2.44 102 2.44 101 2.44  92 2.44  32 2.44 105 2.44 106 2.44  29 2.44
                            90 2.44  94 2.44  20 2.44  33 2.44
 104  0.500  0.833  0.667- 103 2.44 102 2.44 101 2.44  79 2.44  67 2.44 105 2.44 106 2.44  66 2.44
                            77 2.44  81 2.44  43 2.44  70 2.44
 105  0.667  0.667  0.667- 106 2.44 107 2.44 108 2.44  96 2.44 103 2.44 104 2.44  70 2.44  71 2.44
                            94 2.44  67 2.44  92 2.44  58 2.44
 106  0.667  0.833  0.833- 105 2.44 107 2.44 108 2.44  83 2.44 103 2.44 104 2.44  33 2.44  36 2.44
                            81 2.44  32 2.44  79 2.44   9 2.44
 107  0.833  0.667  0.833- 105 2.44 106 2.44 108 2.44  96 2.44  97 2.44  98 2.44  33 2.44  36 2.44
                            94 2.44  25 2.44  86 2.44  24 2.44
 108  0.833  0.833  0.667- 105 2.44 106 2.44 107 2.44  83 2.44  97 2.44  98 2.44  70 2.44  71 2.44
                            81 2.44  62 2.44  73 2.44  47 2.44
 
  LATTYP: Found a simple cubic cell.
 ALAT       =    10.3348470474
  
  Lattice vectors:
  
 A1 = (  10.3348470474,   0.0000000000,   0.0000000000)
 A2 = (   0.0000000000,  10.3348470474,   0.0000000000)
 A3 = (   0.0000000000,   0.0000000000,  10.3348470474)


Analysis of symmetry for initial positions (statically):
=====================================================================
 Subroutine PRICEL returns following result:
 
  LATTYP: Found a simple cubic cell.
 ALAT       =     3.4449252899
  
  Lattice vectors:
  
 A1 = (   3.4449252899,   0.0000000000,   0.0000000000)
 A2 = (   0.0000000000,   3.4449252899,   0.0000000000)
 A3 = (   0.0000000000,   0.0000000000,   3.4449252443)
 
  27 primitive cells build up your supercell.
 

 Routine SETGRP: Setting up the symmetry group for a 
 simple cubic supercell.


 Subroutine GETGRP returns: Found 48 space group operations
 (whereof 48 operations were pure point group operations)
 out of a pool of 48 trial point group operations.


The static configuration has the point symmetry O_h .


Analysis of symmetry for dynamics (positions and initial velocities):
=====================================================================
 Subroutine PRICEL returns following result:
 
  LATTYP: Found a simple cubic cell.
 ALAT       =     3.4449252899
  
  Lattice vectors:
  
 A1 = (   3.4449252899,   0.0000000000,   0.0000000000)
 A2 = (   0.0000000000,   3.4449252899,   0.0000000000)
 A3 = (   0.0000000000,   0.0000000000,   3.4449252443)
 
  27 primitive cells build up your supercell.
 

 Routine SETGRP: Setting up the symmetry group for a 
 simple cubic supercell.


 Subroutine GETGRP returns: Found 48 space group operations
 (whereof 48 operations were pure point group operations)
 out of a pool of 48 trial point group operations.


The dynamic configuration has the point symmetry O_h .


 Subroutine INISYM returns: Found 48 space group operations
 (whereof 48 operations are pure point group operations),
 and found    27 'primitive' translations

 
 
 KPOINTS: pymatgen generated KPOINTS with grid den

Automatic generation of k-mesh.
Space group operators:
 irot       det(A)        alpha          n_x          n_y          n_z        tau_x        tau_y        tau_z
    1     1.000000     0.000000     1.000000     0.000000     0.000000     0.000000     0.000000     0.000000
    2    -1.000000     0.000000     1.000000     0.000000     0.000000     0.000000     0.000000     0.000000
    3     1.000000   120.000000    -0.577350    -0.577350    -0.577350     0.000000     0.000000     0.000000
    4    -1.000000   120.000000    -0.577350    -0.577350    -0.577350     0.000000     0.000000     0.000000
    5     1.000000   120.000000     0.577350     0.577350     0.577350     0.000000     0.000000     0.000000
    6    -1.000000   120.000000     0.577350     0.577350     0.577350     0.000000     0.000000     0.000000
    7     1.000000    90.000000     0.000000     0.000000    -1.000000     0.000000     0.000000     0.000000
    8    -1.000000    90.000000     0.000000     0.000000    -1.000000     0.000000     0.000000     0.000000
    9     1.000000   180.000000     0.000000     0.707107     0.707107     0.000000     0.000000     0.000000
   10    -1.000000   180.000000     0.000000     0.707107     0.707107     0.000000     0.000000     0.000000
   11     1.000000    90.000000     0.000000     1.000000     0.000000     0.000000     0.000000     0.000000
   12    -1.000000    90.000000     0.000000     1.000000     0.000000     0.000000     0.000000     0.000000
   13     1.000000   180.000000     0.000000     0.000000     1.000000     0.000000     0.000000     0.000000
   14    -1.000000   180.000000     0.000000     0.000000     1.000000     0.000000     0.000000     0.000000
   15     1.000000   120.000000    -0.577350     0.577350     0.577350     0.000000     0.000000     0.000000
   16    -1.000000   120.000000    -0.577350     0.577350     0.577350     0.000000     0.000000     0.000000
   17     1.000000   120.000000    -0.577350     0.577350    -0.577350     0.000000     0.000000     0.000000
   18    -1.000000   120.000000    -0.577350     0.577350    -0.577350     0.000000     0.000000     0.000000
   19     1.000000    90.000000     0.000000     0.000000     1.000000     0.000000     0.000000     0.000000
   20    -1.000000    90.000000     0.000000     0.000000     1.000000     0.000000     0.000000     0.000000
   21     1.000000    90.000000    -1.000000     0.000000     0.000000     0.000000     0.000000     0.000000
   22    -1.000000    90.000000    -1.000000     0.000000     0.000000     0.000000     0.000000     0.000000
   23     1.000000   180.000000     0.707107     0.000000     0.707107     0.000000     0.000000     0.000000
   24    -1.000000   180.000000     0.707107     0.000000     0.707107     0.000000     0.000000     0.000000
   25     1.000000   120.000000     0.577350    -0.577350     0.577350     0.000000     0.000000     0.000000
   26    -1.000000   120.000000     0.577350    -0.577350     0.577350     0.000000     0.000000     0.000000
   27     1.000000   120.000000    -0.577350    -0.577350     0.577350     0.000000     0.000000     0.000000
   28    -1.000000   120.000000    -0.577350    -0.577350     0.577350     0.000000     0.000000     0.000000
   29     1.000000   180.000000     1.000000     0.000000     0.000000     0.000000     0.000000     0.000000
   30    -1.000000   180.000000     1.000000     0.000000     0.000000     0.000000     0.000000     0.000000
   31     1.000000    90.000000     0.000000    -1.000000     0.000000     0.000000     0.000000     0.000000
   32    -1.000000    90.000000     0.000000    -1.000000     0.000000     0.000000     0.000000     0.000000
   33     1.000000   180.000000     0.707107     0.707107     0.000000     0.000000     0.000000     0.000000
   34    -1.000000   180.000000     0.707107     0.707107     0.000000     0.000000     0.000000     0.000000
   35     1.000000    90.000000     1.000000     0.000000     0.000000     0.000000     0.000000     0.000000
   36    -1.000000    90.000000     1.000000     0.000000     0.000000     0.000000     0.000000     0.000000
   37     1.000000   120.000000     0.577350    -0.577350    -0.577350     0.000000     0.000000     0.000000
   38    -1.000000   120.000000     0.577350    -0.577350    -0.577350     0.000000     0.000000     0.000000
   39     1.000000   180.000000     0.000000     1.000000     0.000000     0.000000     0.000000     0.000000
   40    -1.000000   180.000000     0.000000     1.000000     0.000000     0.000000     0.000000     0.000000
   41     1.000000   120.000000     0.577350     0.577350    -0.577350     0.000000     0.000000     0.000000
   42    -1.000000   120.000000     0.577350     0.577350    -0.577350     0.000000     0.000000     0.000000
   43     1.000000   180.000000     0.000000    -0.707107     0.707107     0.000000     0.000000     0.000000
   44    -1.000000   180.000000     0.000000    -0.707107     0.707107     0.000000     0.000000     0.000000
   45     1.000000   180.000000     0.707107    -0.707107     0.000000     0.000000     0.000000     0.000000
   46    -1.000000   180.000000     0.707107    -0.707107     0.000000     0.000000     0.000000     0.000000
   47     1.000000   180.000000     0.707107     0.000000    -0.707107     0.000000     0.000000     0.000000
   48    -1.000000   180.000000     0.707107     0.000000    -0.707107     0.000000     0.000000     0.000000
 
 Subroutine IBZKPT returns following result:
 ===========================================
 
 Found      4 irreducible k-points:
 
 Following reciprocal coordinates:
            Coordinates               Weight
  0.125000  0.125000  0.125000      8.000000
  0.375000  0.125000  0.125000     24.000000
  0.375000  0.375000  0.125000     24.000000
  0.375000  0.375000  0.375000      8.000000
 
 Following cartesian coordinates:
            Coordinates               Weight
  0.012095  0.012095  0.012095      8.000000
  0.036285  0.012095  0.012095     24.000000
  0.036285  0.036285  0.012095     24.000000
  0.036285  0.036285  0.036285      8.000000
 


--------------------------------------------------------------------------------------------------------




 Dimension of arrays:
   k-points           NKPTS =      4   k-points in BZ     NKDIM =      4   number of bands    NBANDS=    518
   number of dos      NEDOS =    301   number of ions     NIONS =    108
   non local maximal  LDIM  =      6   non local SUM 2l+1 LMDIM =     18
   total plane-waves  NPLWV = 373248
   max r-space proj   IRMAX =   3779   max aug-charges    IRDMAX=  12243
   dimension x,y,z NGX =    72 NGY =   72 NGZ =   72
   dimension x,y,z NGXF=   144 NGYF=  144 NGZF=  144
   support grid    NGXF=   144 NGYF=  144 NGZF=  144
   ions per type =             108
   NGX,Y,Z   is equivalent  to a cutoff of  11.58, 11.58, 11.58 a.u.
   NGXF,Y,Z  is equivalent  to a cutoff of  23.16, 23.16, 23.16 a.u.

 Based on PREC, I would recommend the following setting:
   dimension x,y,z NGX =    54 NGY =   54 NGZ =   54

 SYSTEM =  Opt                                     
 POSCAR =  fcc_Fe_CON_333                          

 Startparameter for this run:
   NWRITE =      2    write-flag & timer
   PREC   = normal    normal or accurate (medium, high low for compatibility)
   ISTART =      0    job   : 0-new  1-cont  2-samecut
   ICHARG =      2    charge: 1-file 2-atom 10-const
   ISPIN  =      1    spin polarized calculation?
   LNONCOLLINEAR =      F non collinear calculations
   LSORBIT =      F    spin-orbit coupling
   INIWAV =      1    electr: 0-lowe 1-rand  2-diag
   LASPH  =      F    aspherical Exc in radial PAW
   METAGGA=      F    non-selfconsistent MetaGGA calc.

 Electronic Relaxation 1
   ENCUT  =  450.0 eV  33.07 Ry    5.75 a.u.  17.88 17.88 17.88*2*pi/ulx,y,z
   ENINI  =  450.0     initial cutoff
   ENAUG  =  511.4 eV  augmentation charge cutoff
   NELM   =    400;   NELMIN=  2; NELMDL= -5     # of ELM steps 
   EDIFF  = 0.1E-05   stopping-criterion for ELM
   LREAL  =      T    real-space projection
   NLSPLINE    = F    spline interpolate recip. space projectors
   LCOMPAT=      F    compatible to vasp.4.4
   GGA_COMPAT  = T    GGA compatible to vasp.4.4-vasp.4.6
   LMAXPAW     = -100 max onsite density
   LMAXMIX     =    2 max onsite mixed and CHGCAR
   VOSKOWN=      0    Vosko Wilk Nusair interpolation
   ROPT   =   -0.00050
 Ionic relaxation
   EDIFFG = -.1E-01   stopping-criterion for IOM
   NSW    =    100    number of steps for IOM
   NBLOCK =      1;   KBLOCK =    100    inner block; outer block 
   IBRION =      2    ionic relax: 0-MD 1-quasi-New 2-CG
   NFREE  =      1    steps in history (QN), initial steepest desc. (CG)
   ISIF   =      3    stress and relaxation
   IWAVPR =     11    prediction:  0-non 1-charg 2-wave 3-comb
   ISYM   =      2    0-nonsym 1-usesym 2-fastsym
   LCORR  =      T    Harris-Foulkes like correction to forces

   POTIM  = 0.5000    time-step for ionic-motion
   TEIN   =    0.0    initial temperature
   TEBEG  =    0.0;   TEEND  =   0.0 temperature during run
   SMASS  =  -3.00    Nose mass-parameter (am)
   estimated Nose-frequenzy (Omega)   =  0.10E-29 period in steps =****** mass=  -0.244E-26a.u.
   SCALEE = 1.0000    scale energy and forces
   NPACO  =    256;   APACO  = 16.0  distance and # of slots for P.C.
   PSTRESS=    0.0 pullay stress

  Mass of Ions in am
   POMASS =  55.85
  Ionic Valenz
   ZVAL   =   8.00
  Atomic Wigner-Seitz radii
   RWIGS  =  -1.00
  virtual crystal weights 
   VCA    =   1.00
   NELECT =     864.0000    total number of electrons
   NUPDOWN=      -1.0000    fix difference up-down

 DOS related values:
   EMIN   =  10.00;   EMAX   =-10.00  energy-range for DOS
   EFERMI =   0.00
   ISMEAR =     1;   SIGMA  =   0.20  broadening in eV -4-tet -1-fermi 0-gaus

 Electronic relaxation 2 (details)
   IALGO  =     68    algorithm
   LDIAG  =      T    sub-space diagonalisation (order eigenvalues)
   LSUBROT=      F    optimize rotation matrix (better conditioning)
   TURBO    =      0    0=normal 1=particle mesh
   IRESTART =      0    0=no restart 2=restart with 2 vectors
   NREBOOT  =      0    no. of reboots
   NMIN     =      0    reboot dimension
   EREF     =   0.00    reference energy to select bands
   IMIX   =      4    mixing-type and parameters
     AMIX     =   0.40;   BMIX     =  1.00
     AMIX_MAG =   1.60;   BMIX_MAG =  1.00
     AMIN     =   0.10
     WC   =   100.;   INIMIX=   1;  MIXPRE=   1;  MAXMIX= -45

 Intra band minimization:
   WEIMIN = 0.0010     energy-eigenvalue tresh-hold
   EBREAK =  0.48E-09  absolut break condition
   DEPER  =   0.30     relativ break condition  

   TIME   =   0.40     timestep for ELM

  volume/ion in A,a.u.               =      10.22        68.97
  Fermi-wavevector in a.u.,A,eV,Ry     =   1.508720  2.851068 30.970078  2.276236
  Thomas-Fermi vector in A             =   2.619137
 
 Write flags
   LWAVE        =      F    write WAVECAR
   LDOWNSAMPLE  =      F    k-point downsampling of WAVECAR
   LCHARG       =      F    write CHGCAR
   LVTOT        =      F    write LOCPOT, total local potential
   LVHAR        =      F    write LOCPOT, Hartree potential only
   LELF         =      F    write electronic localiz. function (ELF)
   LORBIT       =      0    0 simple, 1 ext, 2 COOP (PROOUT), +10 PAW based schemes


 Dipole corrections
   LMONO  =      F    monopole corrections only (constant potential shift)
   LDIPOL =      F    correct potential (dipole corrections)
   IDIPOL =      0    1-x, 2-y, 3-z, 4-all directions 
   EPSILON=  1.0000000 bulk dielectric constant

 Exchange correlation treatment:
   GGA     =    --    GGA type
   LEXCH   =     8    internal setting for exchange type
   VOSKOWN=      0    Vosko Wilk Nusair interpolation
   LHFCALC =     F    Hartree Fock is set to
   LHFONE  =     F    Hartree Fock one center treatment
   AEXX    =    0.0000 exact exchange contribution

 Linear response parameters
   LEPSILON=     F    determine dielectric tensor
   LRPA    =     F    only Hartree local field effects (RPA)
   LNABLA  =     F    use nabla operator in PAW spheres
   LVEL    =     F    velocity operator in full k-point grid
   LINTERFAST=   F  fast interpolation
   KINTER  =     0    interpolate to denser k-point grid
   CSHIFT  =0.1000    complex shift for real part using Kramers Kronig
   OMEGAMAX=  -1.0    maximum frequency
   DEG_THRESHOLD= 0.2000000E-02 threshold for treating states as degnerate
   RTIME   =   -0.100 relaxation time in fs
  (WPLASMAI=    0.000 imaginary part of plasma frequency in eV, 0.658/RTIME)
   DFIELD  = 0.0000000 0.0000000 0.0000000 field for delta impulse in time
 
 Orbital magnetization related:
   ORBITALMAG=     F  switch on orbital magnetization
   LCHIMAG   =     F  perturbation theory with respect to B field
   DQ        =  0.001000  dq finite difference perturbation B field
   LLRAUG    =     F  two centre corrections for induced B field



--------------------------------------------------------------------------------------------------------


 conjugate gradient relaxation of ions
 charge density and potential will be updated during run
 non-spin polarized calculation
 RMM-DIIS sequential band-by-band and
  variant of blocked Davidson during initial phase
 perform sub-space diagonalisation
    before iterative eigenvector-optimisation
 modified Broyden-mixing scheme, WC =      100.0
 initial mixing is a Kerker type mixing with AMIX =  0.4000 and BMIX =      1.0000
 Hartree-type preconditioning will be used
 using additional bands           86
 real space projection scheme for non local part
 use partial core corrections
 calculate Harris-corrections to forces 
   (improved forces if not selfconsistent)
 use gradient corrections 
 use of overlap-Matrix (Vanderbilt PP)
 Methfessel and Paxton  Order N= 1 SIGMA  =   0.20


--------------------------------------------------------------------------------------------------------


  energy-cutoff  :      450.00
  volume of cell :     1103.86
      direct lattice vectors                 reciprocal lattice vectors
    10.334847047  0.000000000  0.000000000     0.096760019  0.000000000  0.000000000
     0.000000000 10.334847047  0.000000000     0.000000000  0.096760019  0.000000000
     0.000000000  0.000000000 10.334847047     0.000000000  0.000000000  0.096760019

  length of vectors
    10.334847047 10.334847047 10.334847047     0.096760019  0.096760019  0.096760019


 
 k-points in units of 2pi/SCALE and weight: pymatgen generated KPOINTS with grid den
   0.01209500  0.01209500  0.01209500       0.125
   0.03628501  0.01209500  0.01209500       0.375
   0.03628501  0.03628501  0.01209500       0.375
   0.03628501  0.03628501  0.03628501       0.125
 
 k-points in reciprocal lattice and weights: pymatgen generated KPOINTS with grid den
   0.12500000  0.12500000  0.12500000       0.125
   0.37500000  0.12500000  0.12500000       0.375
   0.37500000  0.37500000  0.12500000       0.375
   0.37500000  0.37500000  0.37500000       0.125
 
 position of ions in fractional coordinates (direct lattice) 
   0.00000000  0.00000000  0.00000000
   0.00000000  0.16666893  0.16666893
   0.16666893  0.00000000  0.16666893
   0.16666893  0.16666893  0.00000000
   0.33333106  0.00000000  0.00000000
   0.33333107  0.16666893  0.16666893
   0.50000000  0.00000000  0.16666894
   0.50000000  0.16666894  0.00000000
   0.66666897  0.00000000  0.00000000
   0.66666896  0.16666893  0.16666893
   0.83333104  0.00000000  0.16666893
   0.83333104  0.16666893  0.00000000
   0.00000000  0.33333106  0.00000000
   0.00000000  0.50000000  0.16666894
   0.16666893  0.33333107  0.16666893
   0.16666894  0.50000000  0.00000000
   0.33333107  0.33333107  0.00000000
   0.33333107  0.50000000  0.16666893
   0.50000000  0.33333107  0.16666893
   0.50000000  0.50000000  0.00000000
   0.66666896  0.33333107  0.00000000
   0.66666896  0.50000000  0.16666893
   0.83333104  0.33333107  0.16666893
   0.83333103  0.50000000  0.00000000
   0.00000000  0.66666897  0.00000000
   0.00000000  0.83333104  0.16666893
   0.16666893  0.66666896  0.16666893
   0.16666893  0.83333104  0.00000000
   0.33333107  0.66666896  0.00000000
   0.33333107  0.83333104  0.16666893
   0.50000000  0.66666896  0.16666893
   0.50000000  0.83333103  0.00000000
   0.66666896  0.66666896  0.00000000
   0.66666896  0.83333104  0.16666893
   0.83333104  0.66666896  0.16666893
   0.83333104  0.83333104  0.00000000
   0.00000000  0.00000000  0.33333106
   0.00000000  0.16666894  0.50000000
   0.16666894  0.00000000  0.50000000
   0.16666893  0.16666893  0.33333107
   0.33333107  0.00000000  0.33333107
   0.33333107  0.16666893  0.50000000
   0.50000000  0.00000000  0.50000000
   0.50000000  0.16666893  0.33333107
   0.66666896  0.00000000  0.33333107
   0.66666896  0.16666893  0.50000000
   0.83333103  0.00000000  0.50000000
   0.83333104  0.16666893  0.33333107
   0.00000000  0.33333107  0.33333107
   0.00000000  0.50000000  0.50000000
   0.16666893  0.33333107  0.50000000
   0.16666893  0.50000000  0.33333107
   0.33333107  0.33333107  0.33333107
   0.33333106  0.50000000  0.50000000
   0.50000000  0.33333106  0.50000000
   0.50000000  0.50000000  0.33333106
   0.66666896  0.33333107  0.33333107
   0.66666897  0.50000000  0.50000000
   0.83333104  0.33333107  0.50000000
   0.83333104  0.50000000  0.33333107
   0.00000000  0.66666896  0.33333107
   0.00000000  0.83333103  0.50000000
   0.16666893  0.66666896  0.50000000
   0.16666893  0.83333104  0.33333107
   0.33333107  0.66666896  0.33333107
   0.33333107  0.83333104  0.50000000
   0.50000000  0.66666897  0.50000000
   0.50000000  0.83333104  0.33333107
   0.66666896  0.66666896  0.33333107
   0.66666896  0.83333104  0.50000000
   0.83333104  0.66666896  0.50000000
   0.83333104  0.83333104  0.33333107
   0.00000000  0.00000000  0.66666897
   0.00000000  0.16666893  0.83333104
   0.16666893  0.00000000  0.83333104
   0.16666893  0.16666893  0.66666896
   0.33333107  0.00000000  0.66666896
   0.33333107  0.16666893  0.83333104
   0.50000000  0.00000000  0.83333103
   0.50000000  0.16666893  0.66666896
   0.66666896  0.00000000  0.66666896
   0.66666896  0.16666893  0.83333104
   0.83333104  0.00000000  0.83333104
   0.83333104  0.16666893  0.66666896
   0.00000000  0.33333107  0.66666896
   0.00000000  0.50000000  0.83333103
   0.16666893  0.33333107  0.83333104
   0.16666893  0.50000000  0.66666896
   0.33333107  0.33333107  0.66666896
   0.33333107  0.50000000  0.83333104
   0.50000000  0.33333107  0.83333104
   0.50000000  0.50000000  0.66666897
   0.66666896  0.33333107  0.66666896
   0.66666896  0.50000000  0.83333104
   0.83333104  0.33333107  0.83333104
   0.83333104  0.50000000  0.66666896
   0.00000000  0.66666896  0.66666896
   0.00000000  0.83333104  0.83333104
   0.16666893  0.66666896  0.83333104
   0.16666893  0.83333104  0.66666896
   0.33333107  0.66666896  0.66666896
   0.33333107  0.83333104  0.83333104
   0.50000000  0.66666896  0.83333104
   0.50000000  0.83333104  0.66666896
   0.66666896  0.66666896  0.66666896
   0.66666896  0.83333104  0.83333104
   0.83333104  0.66666896  0.83333104
   0.83333104  0.83333104  0.66666896
 
 position of ions in cartesian coordinates  (Angst):
   0.00000000  0.00000000  0.00000000
   0.00000000  1.72249793  1.72249793
   1.72249793  0.00000000  1.72249793
   1.72249793  1.72249793  0.00000000
   3.44492554  0.00000000  0.00000000
   3.44492559  1.72249794  1.72249794
   5.16742352  0.00000000  1.72249798
   5.16742352  1.72249798  0.00000000
   6.88992180  0.00000000  0.00000000
   6.88992176  1.72249794  1.72249794
   8.61234881  0.00000000  1.72249793
   8.61234881  1.72249793  0.00000000
   0.00000000  3.44492554  0.00000000
   0.00000000  5.16742352  1.72249798
   1.72249794  3.44492559  1.72249794
   1.72249798  5.16742352  0.00000000
   3.44492559  3.44492559  0.00000000
   3.44492559  5.16742352  1.72249793
   5.16742352  3.44492559  1.72249793
   5.16742352  5.16742352  0.00000000
   6.88992176  3.44492559  0.00000000
   6.88992176  5.16742352  1.72249793
   8.61234881  3.44492559  1.72249794
   8.61234877  5.16742352  0.00000000
   0.00000000  6.88992180  0.00000000
   0.00000000  8.61234881  1.72249793
   1.72249794  6.88992176  1.72249794
   1.72249793  8.61234881  0.00000000
   3.44492559  6.88992176  0.00000000
   3.44492559  8.61234881  1.72249794
   5.16742352  6.88992176  1.72249793
   5.16742352  8.61234877  0.00000000
   6.88992176  6.88992176  0.00000000
   6.88992176  8.61234881  1.72249794
   8.61234881  6.88992176  1.72249794
   8.61234881  8.61234881  0.00000000
   0.00000000  0.00000000  3.44492554
   0.00000000  1.72249798  5.16742352
   1.72249798  0.00000000  5.16742352
   1.72249794  1.72249794  3.44492559
   3.44492559  0.00000000  3.44492559
   3.44492559  1.72249793  5.16742352
   5.16742352  0.00000000  5.16742352
   5.16742352  1.72249793  3.44492559
   6.88992176  0.00000000  3.44492559
   6.88992176  1.72249793  5.16742352
   8.61234877  0.00000000  5.16742352
   8.61234881  1.72249794  3.44492559
   0.00000000  3.44492559  3.44492559
   0.00000000  5.16742352  5.16742352
   1.72249793  3.44492559  5.16742352
   1.72249793  5.16742352  3.44492559
   3.44492559  3.44492559  3.44492559
   3.44492554  5.16742352  5.16742352
   5.16742352  3.44492554  5.16742352
   5.16742352  5.16742352  3.44492554
   6.88992176  3.44492559  3.44492559
   6.88992180  5.16742352  5.16742352
   8.61234881  3.44492559  5.16742352
   8.61234881  5.16742352  3.44492559
   0.00000000  6.88992176  3.44492559
   0.00000000  8.61234877  5.16742352
   1.72249793  6.88992176  5.16742352
   1.72249794  8.61234881  3.44492559
   3.44492559  6.88992176  3.44492559
   3.44492559  8.61234881  5.16742352
   5.16742352  6.88992180  5.16742352
   5.16742352  8.61234881  3.44492559
   6.88992176  6.88992176  3.44492559
   6.88992176  8.61234881  5.16742352
   8.61234881  6.88992176  5.16742352
   8.61234881  8.61234881  3.44492559
   0.00000000  0.00000000  6.88992180
   0.00000000  1.72249793  8.61234881
   1.72249793  0.00000000  8.61234881
   1.72249794  1.72249794  6.88992176
   3.44492559  0.00000000  6.88992176
   3.44492559  1.72249794  8.61234881
   5.16742352  0.00000000  8.61234877
   5.16742352  1.72249793  6.88992176
   6.88992176  0.00000000  6.88992176
   6.88992176  1.72249794  8.61234881
   8.61234881  0.00000000  8.61234881
   8.61234881  1.72249794  6.88992176
   0.00000000  3.44492559  6.88992176
   0.00000000  5.16742352  8.61234877
   1.72249794  3.44492559  8.61234881
   1.72249793  5.16742352  6.88992176
   3.44492559  3.44492559  6.88992176
   3.44492559  5.16742352  8.61234881
   5.16742352  3.44492559  8.61234881
   5.16742352  5.16742352  6.88992180
   6.88992176  3.44492559  6.88992176
   6.88992176  5.16742352  8.61234881
   8.61234881  3.44492559  8.61234881
   8.61234881  5.16742352  6.88992176
   0.00000000  6.88992176  6.88992176
   0.00000000  8.61234881  8.61234881
   1.72249794  6.88992176  8.61234881
   1.72249794  8.61234881  6.88992176
   3.44492559  6.88992176  6.88992176
   3.44492559  8.61234881  8.61234881
   5.16742352  6.88992176  8.61234881
   5.16742352  8.61234881  6.88992176
   6.88992176  6.88992176  6.88992176
   6.88992176  8.61234881  8.61234881
   8.61234881  6.88992176  8.61234881
   8.61234881  8.61234881  6.88992176
 


--------------------------------------------------------------------------------------------------------


 k-point  1 :   0.1250 0.1250 0.1250  plane waves:   23886
 k-point  2 :   0.3750 0.1250 0.1250  plane waves:   23908
 k-point  3 :   0.3750 0.3750 0.1250  plane waves:   23919
 k-point  4 :   0.3750 0.3750 0.3750  plane waves:   23924

 maximum and minimum number of plane-waves per node :      6023     5955

 maximum number of plane-waves:     23924
 maximum index in each direction: 
   IXMAX=   17   IYMAX=   17   IZMAX=   17
   IXMIN=  -18   IYMIN=  -18   IZMIN=  -18


 real space projection operators:
  total allocation   :      56117.81 KBytes
  max/ min on nodes  :      14473.69      13790.25


 parallel 3D FFT for wavefunctions:
    minimum data exchange during FFTs selected (reduces bandwidth)
 parallel 3D FFT for charge:
    minimum data exchange during FFTs selected (reduces bandwidth)


 total amount of memory used by VASP MPI-rank0   200418. kBytes
=======================================================================

   base      :      30000. kBytes
   nonlr-proj:      24807. kBytes
   fftplans  :      15448. kBytes
   grid      :      21835. kBytes
   one-center:        419. kBytes
   wavefun   :     107909. kBytes
 
     INWAV:  cpu time    0.0000: real time    0.0001
 Broyden mixing: mesh for mixing (old mesh)
   NGX = 35   NGY = 35   NGZ = 35
  (NGX  =144   NGY  =144   NGZ  =144)
  gives a total of  42875 points

 initial charge density was supplied:
 charge density of overlapping atoms calculated
 number of electron     864.0000000 magnetization 
 keeping initial charge density in first step


--------------------------------------------------------------------------------------------------------


 Maximum index for non-local projection operator          953
 Maximum index for augmentation-charges         1463 (set IRDMAX)


--------------------------------------------------------------------------------------------------------


 First call to EWALD:  gamma=   0.172
 Maximum number of real-space cells 3x 3x 3
 Maximum number of reciprocal cells 3x 3x 3

    FEWALD:  cpu time    0.0102: real time    0.0102


--------------------------------------- Iteration      1(   1)  ---------------------------------------


    POTLOK:  cpu time    0.3066: real time    0.3072
    SETDIJ:  cpu time    0.0554: real time    0.0554
     EDDAV:  cpu time   41.5222: real time   41.5523
       DOS:  cpu time    0.0042: real time    0.0042
    --------------------------------------------
      LOOP:  cpu time   41.8884: real time   41.9191

 eigenvalue-minimisations  :  4144
 total energy-change (2. order) : 0.8044694E+04  (-0.3124279E+05)
 number of electron     864.0000000 magnetization 
 augmentation part      864.0000000 magnetization 

 Free energy of the ion-electron system (eV)
  ---------------------------------------------------
  alpha Z        PSCENC =      7300.31925852
  Ewald energy   TEWEN  =    -66232.83996889
  -Hartree energ DENC   =    -11197.02572337
  -exchange      EXHF   =         0.00000000
  -V(xc)+E(xc)   XCENC  =       446.63038354
  PAW double counting   =     51723.88885462   -52548.28121372
  entropy T*S    EENTRO =         0.01262226
  eigenvalues    EBANDS =     14349.73436195
  atomic energy  EATOM  =     64202.25570658
  Solvation  Ediel_sol  =         0.00000000
  ---------------------------------------------------
  free energy    TOTEN  =      8044.69428150 eV

  energy without entropy =     8044.68165924  energy(sigma->0) =     8044.69007408


--------------------------------------------------------------------------------------------------------




--------------------------------------- Iteration      1(   2)  ---------------------------------------


     EDDAV:  cpu time   41.4536: real time   41.4665
       DOS:  cpu time    0.0060: real time    0.0060
    --------------------------------------------
      LOOP:  cpu time   41.4595: real time   41.4724

 eigenvalue-minimisations  :  4144
 total energy-change (2. order) :-0.7986409E+04  (-0.7820524E+04)
 number of electron     864.0000000 magnetization 
 augmentation part      864.0000000 magnetization 

 Free energy of the ion-electron system (eV)
  ---------------------------------------------------
  alpha Z        PSCENC =      7300.31925852
  Ewald energy   TEWEN  =    -66232.83996889
  -Hartree energ DENC   =    -11197.02572337
  -exchange      EXHF   =         0.00000000
  -V(xc)+E(xc)   XCENC  =       446.63038354
  PAW double counting   =     51723.88885462   -52548.28121372
  entropy T*S    EENTRO =         0.00342486
  eigenvalues    EBANDS =      6363.33455268
  atomic energy  EATOM  =     64202.25570658
  Solvation  Ediel_sol  =         0.00000000
  ---------------------------------------------------
  free energy    TOTEN  =        58.28527483 eV

  energy without entropy =       58.28184997  energy(sigma->0) =       58.28413321


--------------------------------------------------------------------------------------------------------




--------------------------------------- Iteration      1(   3)  ---------------------------------------


     EDDAV:  cpu time   41.5770: real time   41.6047
       DOS:  cpu time    0.0070: real time    0.0070
    --------------------------------------------
      LOOP:  cpu time   41.5840: real time   41.6117

 eigenvalue-minimisations  :  4160
 total energy-change (2. order) :-0.8987277E+03  (-0.7674047E+03)
 number of electron     864.0000000 magnetization 
 augmentation part      864.0000000 magnetization 

 Free energy of the ion-electron system (eV)
  ---------------------------------------------------
  alpha Z        PSCENC =      7300.31925852
  Ewald energy   TEWEN  =    -66232.83996889
  -Hartree energ DENC   =    -11197.02572337
  -exchange      EXHF   =         0.00000000
  -V(xc)+E(xc)   XCENC  =       446.63038354
  PAW double counting   =     51723.88885462   -52548.28121372
  entropy T*S    EENTRO =        -0.02994494
  eigenvalues    EBANDS =      5464.64023790
  atomic energy  EATOM  =     64202.25570658
  Solvation  Ediel_sol  =         0.00000000
  ---------------------------------------------------
  free energy    TOTEN  =      -840.44240975 eV

  energy without entropy =     -840.41246481  energy(sigma->0) =     -840.43242810


--------------------------------------------------------------------------------------------------------




--------------------------------------- Iteration      1(   4)  ---------------------------------------


     EDDAV:  cpu time   67.3111: real time   67.3421
       DOS:  cpu time    0.0073: real time    0.0073
    --------------------------------------------
      LOOP:  cpu time   67.3184: real time   67.3494

 eigenvalue-minimisations  :  7504
 total energy-change (2. order) :-0.1885196E+03  (-0.1767352E+03)
 number of electron     864.0000000 magnetization 
 augmentation part      864.0000000 magnetization 

 Free energy of the ion-electron system (eV)
  ---------------------------------------------------
  alpha Z        PSCENC =      7300.31925852
  Ewald energy   TEWEN  =    -66232.83996889
  -Hartree energ DENC   =    -11197.02572337
  -exchange      EXHF   =         0.00000000
  -V(xc)+E(xc)   XCENC  =       446.63038354
  PAW double counting   =     51723.88885462   -52548.28121372
  entropy T*S    EENTRO =        -0.07727192
  eigenvalues    EBANDS =      5276.16796514
  atomic energy  EATOM  =     64202.25570658
  Solvation  Ediel_sol  =         0.00000000
  ---------------------------------------------------
  free energy    TOTEN  =     -1028.96200949 eV

  energy without entropy =    -1028.88473758  energy(sigma->0) =    -1028.93625219


--------------------------------------------------------------------------------------------------------




--------------------------------------- Iteration      1(   5)  ---------------------------------------


     EDDAV:  cpu time   60.1269: real time   60.1617
       DOS:  cpu time    0.0075: real time    0.0075
    CHARGE:  cpu time    2.2716: real time    2.2718
    MIXING:  cpu time    0.0068: real time    0.0068
    --------------------------------------------
      LOOP:  cpu time   62.4128: real time   62.4477

 eigenvalue-minimisations  :  6624
 total energy-change (2. order) :-0.1628310E+02  (-0.1539607E+02)
 number of electron     864.0000692 magnetization 
 augmentation part      382.7904166 magnetization 

 Broyden mixing:
  rms(total) = 0.93463E+01    rms(broyden)= 0.93456E+01
  rms(prec ) = 0.11652E+02
  weight for this iteration     100.00

 Free energy of the ion-electron system (eV)
  ---------------------------------------------------
  alpha Z        PSCENC =      7300.31925852
  Ewald energy   TEWEN  =    -66232.83996889
  -Hartree energ DENC   =    -11197.02572337
  -exchange      EXHF   =         0.00000000
  -V(xc)+E(xc)   XCENC  =       446.63038354
  PAW double counting   =     51723.88885462   -52548.28121372
  entropy T*S    EENTRO =        -0.10437021
  eigenvalues    EBANDS =      5259.91196082
  atomic energy  EATOM  =     64202.25570658
  Solvation  Ediel_sol  =         0.00000000
  ---------------------------------------------------
  free energy    TOTEN  =     -1045.24511210 eV

  energy without entropy =    -1045.14074189  energy(sigma->0) =    -1045.21032203


--------------------------------------------------------------------------------------------------------




--------------------------------------- Iteration      1(   6)  ---------------------------------------


    POTLOK:  cpu time    0.2962: real time    0.2966
    SETDIJ:  cpu time    0.0535: real time    0.0535
    EDDIAG:  cpu time    5.7219: real time    5.7226
  RMM-DIIS:  cpu time   24.3854: real time   24.3888
    ORTHCH:  cpu time    1.0886: real time    1.0887
       DOS:  cpu time    0.0081: real time    0.0081
    CHARGE:  cpu time    2.1864: real time    2.1866
    MIXING:  cpu time    0.0079: real time    0.0079
    --------------------------------------------
      LOOP:  cpu time   33.7479: real time   33.7528

 eigenvalue-minimisations  :  4144
 total energy-change (2. order) : 0.1677554E+03  (-0.1354752E+03)
 number of electron     864.0000778 magnetization 
 augmentation part      447.7588987 magnetization 

 Broyden mixing:
  rms(total) = 0.89178E+00    rms(broyden)= 0.89069E+00
  rms(prec ) = 0.96368E+00
  weight for this iteration     100.00

 eigenvalues of (default mixing * dielectric matrix)
  average eigenvalue GAMMA=   0.9490
  0.9490

 Free energy of the ion-electron system (eV)
  ---------------------------------------------------
  alpha Z        PSCENC =      7300.31925852
  Ewald energy   TEWEN  =    -66232.83996889
  -Hartree energ DENC   =     -9342.39526862
  -exchange      EXHF   =         0.00000000
  -V(xc)+E(xc)   XCENC  =       355.78504164
  PAW double counting   =     52454.48046771   -53034.93645814
  entropy T*S    EENTRO =        -0.05636601
  eigenvalues    EBANDS =      3419.89789561
  atomic energy  EATOM  =     64202.25570658
  Solvation  Ediel_sol  =         0.00000000
  ---------------------------------------------------
  free energy    TOTEN  =      -877.48969160 eV

  energy without entropy =     -877.43332559  energy(sigma->0) =     -877.47090293


--------------------------------------------------------------------------------------------------------




--------------------------------------- Iteration      1(   7)  ---------------------------------------


    POTLOK:  cpu time    0.2823: real time    0.2829
    SETDIJ:  cpu time    0.0538: real time    0.0538
    EDDIAG:  cpu time    5.6355: real time    5.6363
  RMM-DIIS:  cpu time   26.7881: real time   26.7986
    ORTHCH:  cpu time    1.1105: real time    1.1107
       DOS:  cpu time    0.0081: real time    0.0081
    CHARGE:  cpu time    2.0744: real time    2.0746
    MIXING:  cpu time    0.0088: real time    0.0088
    --------------------------------------------
      LOOP:  cpu time   35.9617: real time   35.9738

 eigenvalue-minimisations  :  4528
 total energy-change (2. order) :-0.2830331E+01  (-0.1101774E+02)
 number of electron     864.0000752 magnetization 
 augmentation part      446.9835311 magnetization 

 Broyden mixing:
  rms(total) = 0.33726E+00    rms(broyden)= 0.33615E+00
  rms(prec ) = 0.37493E+00
  weight for this iteration     100.00

 eigenvalues of (default mixing * dielectric matrix)
  average eigenvalue GAMMA=   1.0991
  1.0991  1.0991

 Free energy of the ion-electron system (eV)
  ---------------------------------------------------
  alpha Z        PSCENC =      7300.31925852
  Ewald energy   TEWEN  =    -66232.83996889
  -Hartree energ DENC   =     -9382.73630609
  -exchange      EXHF   =         0.00000000
  -V(xc)+E(xc)   XCENC  =       360.24096205
  PAW double counting   =     54339.41534335   -55116.11104542
  entropy T*S    EENTRO =        -0.13567825
  eigenvalues    EBANDS =      3649.27170565
  atomic energy  EATOM  =     64202.25570658
  Solvation  Ediel_sol  =         0.00000000
  ---------------------------------------------------
  free energy    TOTEN  =      -880.32002251 eV

  energy without entropy =     -880.18434426  energy(sigma->0) =     -880.27479643


--------------------------------------------------------------------------------------------------------




--------------------------------------- Iteration      1(   8)  ---------------------------------------


    POTLOK:  cpu time    0.2816: real time    0.2820
    SETDIJ:  cpu time    0.0540: real time    0.0540
    EDDIAG:  cpu time    5.5752: real time    5.5826
  RMM-DIIS:  cpu time   26.2569: real time   26.2812
    ORTHCH:  cpu time    1.1473: real time    1.1475
       DOS:  cpu time    0.0082: real time    0.0082
    CHARGE:  cpu time    2.1013: real time    2.1015
    MIXING:  cpu time    0.0078: real time    0.0078
    --------------------------------------------
      LOOP:  cpu time   35.4324: real time   35.4648

 eigenvalue-minimisations  :  4413
 total energy-change (2. order) : 0.8901628E+00  (-0.1297069E+01)
 number of electron     864.0000748 magnetization 
 augmentation part      443.0070058 magnetization 

 Broyden mixing:
  rms(total) = 0.45689E+00    rms(broyden)= 0.45680E+00
  rms(prec ) = 0.60690E+00
  weight for this iteration     100.00

 eigenvalues of (default mixing * dielectric matrix)
  average eigenvalue GAMMA=   0.8302
  1.0137  1.2159  0.2610

 Free energy of the ion-electron system (eV)
  ---------------------------------------------------
  alpha Z        PSCENC =      7300.31925852
  Ewald energy   TEWEN  =    -66232.83996889
  -Hartree energ DENC   =     -9418.41716379
  -exchange      EXHF   =         0.00000000
  -V(xc)+E(xc)   XCENC  =       363.07894291
  PAW double counting   =     56153.14836941   -57038.82656716
  entropy T*S    EENTRO =        -0.07039857
  eigenvalues    EBANDS =      3791.92196129
  atomic energy  EATOM  =     64202.25570658
  Solvation  Ediel_sol  =         0.00000000
  ---------------------------------------------------
  free energy    TOTEN  =      -879.42985970 eV

  energy without entropy =     -879.35946113  energy(sigma->0) =     -879.40639351


--------------------------------------------------------------------------------------------------------




--------------------------------------- Iteration      1(   9)  ---------------------------------------


    POTLOK:  cpu time    0.2876: real time    0.2880
    SETDIJ:  cpu time    0.0530: real time    0.0530
    EDDIAG:  cpu time    5.3948: real time    5.3965
  RMM-DIIS:  cpu time   33.4041: real time   33.4320
    ORTHCH:  cpu time    1.1531: real time    1.1557
       DOS:  cpu time    0.0082: real time    0.0082
    CHARGE:  cpu time    2.2490: real time    2.2492
    MIXING:  cpu time    0.0083: real time    0.0083
    --------------------------------------------
      LOOP:  cpu time   42.5581: real time   42.5908

 eigenvalue-minimisations  :  5739
 total energy-change (2. order) :-0.3421218E+00  (-0.4705236E+00)
 number of electron     864.0000751 magnetization 
 augmentation part      443.7326315 magnetization 

 Broyden mixing:
  rms(total) = 0.34453E+00    rms(broyden)= 0.34431E+00
  rms(prec ) = 0.45511E+00
  weight for this iteration     100.00

 eigenvalues of (default mixing * dielectric matrix)
  average eigenvalue GAMMA=   1.1477
  2.4311  1.0246  1.0246  0.1105

 Free energy of the ion-electron system (eV)
  ---------------------------------------------------
  alpha Z        PSCENC =      7300.31925852
  Ewald energy   TEWEN  =    -66232.83996889
  -Hartree energ DENC   =     -9408.72073046
  -exchange      EXHF   =         0.00000000
  -V(xc)+E(xc)   XCENC  =       362.68435048
  PAW double counting   =     56334.24515130   -57226.62750504
  entropy T*S    EENTRO =        -0.07319072
  eigenvalues    EBANDS =      3788.98494674
  atomic energy  EATOM  =     64202.25570658
  Solvation  Ediel_sol  =         0.00000000
  ---------------------------------------------------
  free energy    TOTEN  =      -879.77198149 eV

  energy without entropy =     -879.69879077  energy(sigma->0) =     -879.74758458


--------------------------------------------------------------------------------------------------------




--------------------------------------- Iteration      1(  10)  ---------------------------------------


    POTLOK:  cpu time    0.2870: real time    0.2874
    SETDIJ:  cpu time    0.0533: real time    0.0533
    EDDIAG:  cpu time    5.4695: real time    5.4720
  RMM-DIIS:  cpu time   30.0023: real time   30.0050
    ORTHCH:  cpu time    1.1902: real time    1.1903
       DOS:  cpu time    0.0083: real time    0.0083
    CHARGE:  cpu time    2.2481: real time    2.2483
    MIXING:  cpu time    0.0094: real time    0.0094
    --------------------------------------------
      LOOP:  cpu time   39.2682: real time   39.2740

 eigenvalue-minimisations  :  5054
 total energy-change (2. order) : 0.1893733E+00  (-0.1026391E+00)
 number of electron     864.0000752 magnetization 
 augmentation part      444.9647953 magnetization 

 Broyden mixing:
  rms(total) = 0.80240E-01    rms(broyden)= 0.80073E-01
  rms(prec ) = 0.10033E+00
  weight for this iteration     100.00

 eigenvalues of (default mixing * dielectric matrix)
  average eigenvalue GAMMA=   1.2537
  2.6878  1.5677  0.9514  0.9514  0.1102

 Free energy of the ion-electron system (eV)
  ---------------------------------------------------
  alpha Z        PSCENC =      7300.31925852
  Ewald energy   TEWEN  =    -66232.83996889
  -Hartree energ DENC   =     -9326.54849017
  -exchange      EXHF   =         0.00000000
  -V(xc)+E(xc)   XCENC  =       359.37248063
  PAW double counting   =     57848.48404689   -58789.49278425
  entropy T*S    EENTRO =        -0.08323814
  eigenvalues    EBANDS =      3758.95038064
  atomic energy  EATOM  =     64202.25570658
  Solvation  Ediel_sol  =         0.00000000
  ---------------------------------------------------
  free energy    TOTEN  =      -879.58260819 eV

  energy without entropy =     -879.49937005  energy(sigma->0) =     -879.55486214


--------------------------------------------------------------------------------------------------------




--------------------------------------- Iteration      1(  11)  ---------------------------------------


    POTLOK:  cpu time    0.2983: real time    0.2994
    SETDIJ:  cpu time    0.0550: real time    0.0550
    EDDIAG:  cpu time    5.3824: real time    5.3832
  RMM-DIIS:  cpu time   31.2579: real time   31.2841
    ORTHCH:  cpu time    1.1937: real time    1.1938
       DOS:  cpu time    0.0084: real time    0.0084
    CHARGE:  cpu time    2.3873: real time    2.3876
    MIXING:  cpu time    0.0088: real time    0.0088
    --------------------------------------------
      LOOP:  cpu time   40.5918: real time   40.6202

 eigenvalue-minimisations  :  5351
 total energy-change (2. order) :-0.7728028E-02  (-0.1703539E-01)
 number of electron     864.0000752 magnetization 
 augmentation part      444.8704023 magnetization 

 Broyden mixing:
  rms(total) = 0.49335E-01    rms(broyden)= 0.49334E-01
  rms(prec ) = 0.62282E-01
  weight for this iteration     100.00

 eigenvalues of (default mixing * dielectric matrix)
  average eigenvalue GAMMA=   1.2570
  2.7009  2.0108  0.9566  0.9566  0.8067  0.1102

 Free energy of the ion-electron system (eV)
  ---------------------------------------------------
  alpha Z        PSCENC =      7300.31925852
  Ewald energy   TEWEN  =    -66232.83996889
  -Hartree energ DENC   =     -9336.04646514
  -exchange      EXHF   =         0.00000000
  -V(xc)+E(xc)   XCENC  =       359.83199168
  PAW double counting   =     58049.23199007   -58990.12409621
  entropy T*S    EENTRO =        -0.07975586
  eigenvalues    EBANDS =      3767.86100302
  atomic energy  EATOM  =     64202.25570658
  Solvation  Ediel_sol  =         0.00000000
  ---------------------------------------------------
  free energy    TOTEN  =      -879.59033622 eV

  energy without entropy =     -879.51058036  energy(sigma->0) =     -879.56375093


--------------------------------------------------------------------------------------------------------




--------------------------------------- Iteration      1(  12)  ---------------------------------------


    POTLOK:  cpu time    0.3107: real time    0.3118
    SETDIJ:  cpu time    0.0550: real time    0.0550
    EDDIAG:  cpu time    5.5617: real time    5.5622
  RMM-DIIS:  cpu time   28.3204: real time   28.3313
    ORTHCH:  cpu time    1.1919: real time    1.1921
       DOS:  cpu time    0.0084: real time    0.0084
    CHARGE:  cpu time    2.3769: real time    2.3783
    MIXING:  cpu time    0.0098: real time    0.0098
    --------------------------------------------
      LOOP:  cpu time   37.8348: real time   37.8488

 eigenvalue-minimisations  :  4917
 total energy-change (2. order) : 0.2365491E-02  (-0.3883275E-02)
 number of electron     864.0000752 magnetization 
 augmentation part      444.6593279 magnetization 

 Broyden mixing:
  rms(total) = 0.10870E-01    rms(broyden)= 0.10868E-01
  rms(prec ) = 0.13758E-01
  weight for this iteration     100.00

 eigenvalues of (default mixing * dielectric matrix)
  average eigenvalue GAMMA=   1.2937
  2.4829  2.4829  1.1303  0.9734  0.9734  0.9026  0.1102

 Free energy of the ion-electron system (eV)
  ---------------------------------------------------
  alpha Z        PSCENC =      7300.31925852
  Ewald energy   TEWEN  =    -66232.83996889
  -Hartree energ DENC   =     -9346.12227205
  -exchange      EXHF   =         0.00000000
  -V(xc)+E(xc)   XCENC  =       360.27250470
  PAW double counting   =     58051.82989314   -58989.29063334
  entropy T*S    EENTRO =        -0.07652705
  eigenvalues    EBANDS =      3774.06406766
  atomic energy  EATOM  =     64202.25570658
  Solvation  Ediel_sol  =         0.00000000
  ---------------------------------------------------
  free energy    TOTEN  =      -879.58797073 eV

  energy without entropy =     -879.51144368  energy(sigma->0) =     -879.56246171


--------------------------------------------------------------------------------------------------------




--------------------------------------- Iteration      1(  13)  ---------------------------------------


    POTLOK:  cpu time    0.3149: real time    0.3159
    SETDIJ:  cpu time    0.0549: real time    0.0549
    EDDIAG:  cpu time    5.5429: real time    5.5435
  RMM-DIIS:  cpu time   34.2795: real time   34.2843
    ORTHCH:  cpu time    1.1934: real time    1.1935
       DOS:  cpu time    0.0083: real time    0.0083
    CHARGE:  cpu time    2.3838: real time    2.3840
    MIXING:  cpu time    0.0114: real time    0.0114
    --------------------------------------------
      LOOP:  cpu time   43.7892: real time   43.7959

 eigenvalue-minimisations  :  5960
 total energy-change (2. order) :-0.5434356E-03  (-0.1142106E-02)
 number of electron     864.0000752 magnetization 
 augmentation part      444.5927139 magnetization 

 Broyden mixing:
  rms(total) = 0.15356E-02    rms(broyden)= 0.15335E-02
  rms(prec ) = 0.20768E-02
  weight for this iteration     100.00

 eigenvalues of (default mixing * dielectric matrix)
  average eigenvalue GAMMA=   1.2958
  2.6104  2.1747  1.7220  0.1102  0.9753  0.9753  0.9407  0.8578

 Free energy of the ion-electron system (eV)
  ---------------------------------------------------
  alpha Z        PSCENC =      7300.31925852
  Ewald energy   TEWEN  =    -66232.83996889
  -Hartree energ DENC   =     -9349.02914485
  -exchange      EXHF   =         0.00000000
  -V(xc)+E(xc)   XCENC  =       360.39244443
  PAW double counting   =     58039.50449950   -58975.21590456
  entropy T*S    EENTRO =        -0.07523484
  eigenvalues    EBANDS =      3775.09982994
  atomic energy  EATOM  =     64202.25570658
  Solvation  Ediel_sol  =         0.00000000
  ---------------------------------------------------
  free energy    TOTEN  =      -879.58851416 eV

  energy without entropy =     -879.51327932  energy(sigma->0) =     -879.56343588


--------------------------------------------------------------------------------------------------------




--------------------------------------- Iteration      1(  14)  ---------------------------------------


    POTLOK:  cpu time    0.3193: real time    0.3205
    SETDIJ:  cpu time    0.0562: real time    0.0562
    EDDIAG:  cpu time    5.5963: real time    5.5969
  RMM-DIIS:  cpu time   32.7744: real time   32.7918
    ORTHCH:  cpu time    1.1856: real time    1.1857
       DOS:  cpu time    0.0085: real time    0.0085
    CHARGE:  cpu time    2.2585: real time    2.2587
    MIXING:  cpu time    0.0096: real time    0.0096
    --------------------------------------------
      LOOP:  cpu time   42.2084: real time   42.2277

 eigenvalue-minimisations  :  5710
 total energy-change (2. order) :-0.5072419E-04  (-0.3816246E-04)
 number of electron     864.0000752 magnetization 
 augmentation part      444.6088215 magnetization 

 Broyden mixing:
  rms(total) = 0.14523E-02    rms(broyden)= 0.14516E-02
  rms(prec ) = 0.18146E-02
  weight for this iteration     100.00

 eigenvalues of (default mixing * dielectric matrix)
  average eigenvalue GAMMA=   1.3727
  2.4906  2.4906  2.0196  0.1102  1.3226  0.9832  0.9832  1.0656  0.8887

 Free energy of the ion-electron system (eV)
  ---------------------------------------------------
  alpha Z        PSCENC =      7300.31925852
  Ewald energy   TEWEN  =    -66232.83996889
  -Hartree energ DENC   =     -9348.59182897
  -exchange      EXHF   =         0.00000000
  -V(xc)+E(xc)   XCENC  =       360.37399060
  PAW double counting   =     58038.84555834   -58974.57870173
  entropy T*S    EENTRO =        -0.07479026
  eigenvalues    EBANDS =      3774.70221091
  atomic energy  EATOM  =     64202.25570658
  Solvation  Ediel_sol  =         0.00000000
  ---------------------------------------------------
  free energy    TOTEN  =      -879.58856489 eV

  energy without entropy =     -879.51377463  energy(sigma->0) =     -879.56363480


--------------------------------------------------------------------------------------------------------




--------------------------------------- Iteration      1(  15)  ---------------------------------------


    POTLOK:  cpu time    0.2944: real time    0.2955
    SETDIJ:  cpu time    0.0529: real time    0.0529
    EDDIAG:  cpu time    5.5005: real time    5.5010
  RMM-DIIS:  cpu time   30.6386: real time   30.6525
    ORTHCH:  cpu time    1.1961: real time    1.1962
       DOS:  cpu time    0.0083: real time    0.0083
    CHARGE:  cpu time    2.3837: real time    2.3840
    MIXING:  cpu time    0.0120: real time    0.0119
    --------------------------------------------
      LOOP:  cpu time   40.0865: real time   40.1023

 eigenvalue-minimisations  :  5253
 total energy-change (2. order) : 0.5693217E-04  ( 0.3263405E-04)
 number of electron     864.0000752 magnetization 
 augmentation part      444.5996822 magnetization 

 Broyden mixing:
  rms(total) = 0.20547E-03    rms(broyden)= 0.20445E-03
  rms(prec ) = 0.25802E-03
  weight for this iteration     100.00

 eigenvalues of (default mixing * dielectric matrix)
  average eigenvalue GAMMA=   1.3728
  2.5911  2.3970  2.3970  0.1102  1.4913  0.9732  0.9732  1.0377  0.8787  0.8787

 Free energy of the ion-electron system (eV)
  ---------------------------------------------------
  alpha Z        PSCENC =      7300.31925852
  Ewald energy   TEWEN  =    -66232.83996889
  -Hartree energ DENC   =     -9348.90492007
  -exchange      EXHF   =         0.00000000
  -V(xc)+E(xc)   XCENC  =       360.38967116
  PAW double counting   =     58037.33661960   -58973.00288572
  entropy T*S    EENTRO =        -0.07422773
  eigenvalues    EBANDS =      3774.93223860
  atomic energy  EATOM  =     64202.25570658
  Solvation  Ediel_sol  =         0.00000000
  ---------------------------------------------------
  free energy    TOTEN  =      -879.58850796 eV

  energy without entropy =     -879.51428022  energy(sigma->0) =     -879.56376538


--------------------------------------------------------------------------------------------------------




--------------------------------------- Iteration      1(  16)  ---------------------------------------


    POTLOK:  cpu time    0.3112: real time    0.3123
    SETDIJ:  cpu time    0.0546: real time    0.0546
    EDDIAG:  cpu time    5.6932: real time    5.7015
  RMM-DIIS:  cpu time   23.9208: real time   23.9307
    ORTHCH:  cpu time    1.1979: real time    1.1992
       DOS:  cpu time    0.0083: real time    0.0083
    CHARGE:  cpu time    2.3691: real time    2.3694
    MIXING:  cpu time    0.0107: real time    0.0107
    --------------------------------------------
      LOOP:  cpu time   33.5659: real time   33.5867

 eigenvalue-minimisations  :  4124
 total energy-change (2. order) : 0.3686232E-04  ( 0.3050000E-04)
 number of electron     864.0000752 magnetization 
 augmentation part      444.6011663 magnetization 

 Broyden mixing:
  rms(total) = 0.82994E-04    rms(broyden)= 0.82974E-04
  rms(prec ) = 0.11156E-03
  weight for this iteration     100.00

 eigenvalues of (default mixing * dielectric matrix)
  average eigenvalue GAMMA=   1.4317
  2.5883  2.4678  2.3423  2.3423  0.1102  0.9710  0.9710  1.1245  0.9946  0.9185
  0.9185

 Free energy of the ion-electron system (eV)
  ---------------------------------------------------
  alpha Z        PSCENC =      7300.31925852
  Ewald energy   TEWEN  =    -66232.83996889
  -Hartree energ DENC   =     -9348.88420241
  -exchange      EXHF   =         0.00000000
  -V(xc)+E(xc)   XCENC  =       360.38864736
  PAW double counting   =     58037.09100108   -58972.72695296
  entropy T*S    EENTRO =        -0.07384105
  eigenvalues    EBANDS =      3774.88188067
  atomic energy  EATOM  =     64202.25570658
  Solvation  Ediel_sol  =         0.00000000
  ---------------------------------------------------
  free energy    TOTEN  =      -879.58847109 eV

  energy without entropy =     -879.51463004  energy(sigma->0) =     -879.56385741


--------------------------------------------------------------------------------------------------------




--------------------------------------- Iteration      1(  17)  ---------------------------------------


    POTLOK:  cpu time    0.3143: real time    0.3154
    SETDIJ:  cpu time    0.0551: real time    0.0551
    EDDIAG:  cpu time    5.8121: real time    5.8126
  RMM-DIIS:  cpu time   17.0715: real time   17.0967
    ORTHCH:  cpu time    1.2019: real time    1.2020
       DOS:  cpu time    0.0082: real time    0.0082
    CHARGE:  cpu time    2.3640: real time    2.3642
    MIXING:  cpu time    0.0120: real time    0.0120
    --------------------------------------------
      LOOP:  cpu time   26.8391: real time   26.8662

 eigenvalue-minimisations  :  2940
[...]
   0.105E-01 0.103E-01 0.143E-04   -.205E-01 -.202E-01 -.277E-04   0.413E-21 0.200E-19 0.292E-19   -.225E-06 -.244E-06 0.143E-07
   -.105E-01 -.143E-04 0.142E-04   0.205E-01 0.277E-04 -.277E-04   -.172E-24 0.229E-19 0.360E-19   0.231E-06 -.143E-07 0.143E-07
   -.105E-01 0.103E-01 -.103E-01   0.205E-01 -.202E-01 0.202E-01   0.147E-24 0.539E-20 0.529E-19   0.231E-06 -.244E-06 0.239E-06
   -.143E-04 -.103E-01 -.103E-01   0.277E-04 0.202E-01 0.202E-01   0.424E-21 0.178E-19 0.114E-19   -.143E-07 0.248E-06 0.248E-06
   -.143E-04 0.143E-04 0.143E-04   0.277E-04 -.277E-04 -.277E-04   0.847E-21 -.203E-19 -.466E-20   -.143E-07 0.143E-07 0.143E-07
   0.103E-01 -.103E-01 0.143E-04   -.202E-01 0.202E-01 -.277E-04   -.564E-21 -.762E-20 -.847E-21   -.244E-06 0.238E-06 0.143E-07
   0.103E-01 0.143E-04 -.103E-01   -.202E-01 -.277E-04 0.202E-01   0.162E-21 0.144E-19 -.750E-19   -.244E-06 0.143E-07 0.238E-06
   -.103E-01 -.103E-01 -.103E-01   0.202E-01 0.202E-01 0.202E-01   0.175E-24 0.635E-20 0.114E-19   0.248E-06 0.248E-06 0.248E-06
   -.103E-01 0.143E-04 0.142E-04   0.202E-01 -.277E-04 -.277E-04   -.172E-24 0.114E-19 -.216E-19   0.239E-06 0.143E-07 0.143E-07
   0.143E-04 -.103E-01 0.142E-04   -.277E-04 0.202E-01 -.277E-04   0.847E-21 -.110E-19 0.123E-19   0.143E-07 0.239E-06 0.143E-07
   0.143E-04 0.143E-04 -.103E-01   -.277E-04 -.277E-04 0.202E-01   -.423E-21 0.762E-20 -.868E-19   0.143E-07 0.143E-07 0.239E-06
   0.105E-01 -.103E-01 -.103E-01   -.205E-01 0.202E-01 0.202E-01   0.173E-20 -.423E-21 0.136E-19   -.235E-06 0.248E-06 0.248E-06
   0.105E-01 0.143E-04 0.143E-04   -.205E-01 -.277E-04 -.277E-04   0.106E-21 -.424E-21 -.424E-20   -.226E-06 0.143E-07 0.143E-07
   -.105E-01 -.103E-01 0.142E-04   0.205E-01 0.202E-01 -.277E-04   -.117E-24 -.762E-20 0.551E-20   0.231E-06 0.238E-06 0.143E-07
   -.105E-01 0.143E-04 -.103E-01   0.205E-01 -.277E-04 0.202E-01   0.119E-24 -.932E-20 -.618E-19   0.231E-06 0.143E-07 0.238E-06
   -.143E-04 0.105E-01 -.103E-01   0.277E-04 -.205E-01 0.202E-01   0.424E-21 -.139E-19 -.678E-20   -.143E-07 -.234E-06 0.248E-06
   -.143E-04 -.105E-01 0.142E-04   0.277E-04 0.205E-01 -.277E-04   -.847E-21 0.114E-19 0.182E-19   -.143E-07 0.231E-06 0.143E-07
   0.103E-01 0.105E-01 0.143E-04   -.202E-01 -.205E-01 -.277E-04   -.187E-20 0.873E-20 -.208E-19   -.244E-06 -.225E-06 0.143E-07
   0.103E-01 -.105E-01 -.103E-01   -.202E-01 0.205E-01 0.202E-01   -.437E-21 -.296E-20 0.762E-20   -.244E-06 0.231E-06 0.239E-06
   -.103E-01 0.105E-01 -.103E-01   0.202E-01 -.205E-01 0.202E-01   0.147E-24 -.814E-21 -.267E-19   0.248E-06 -.235E-06 0.248E-06
   -.103E-01 -.105E-01 0.142E-04   0.202E-01 0.205E-01 -.277E-04   -.117E-24 -.635E-20 0.220E-19   0.238E-06 0.231E-06 0.143E-07
   0.143E-04 0.105E-01 0.143E-04   -.277E-04 -.205E-01 -.277E-04   0.847E-21 0.121E-19 -.271E-19   0.143E-07 -.226E-06 0.143E-07
   0.143E-04 -.105E-01 -.103E-01   -.277E-04 0.205E-01 0.202E-01   0.172E-24 -.423E-21 0.123E-19   0.143E-07 0.231E-06 0.238E-06
   0.105E-01 0.105E-01 -.103E-01   -.205E-01 -.205E-01 0.202E-01   0.213E-20 -.118E-19 -.267E-19   -.235E-06 -.235E-06 0.248E-06
   0.105E-01 -.105E-01 0.143E-04   -.205E-01 0.205E-01 -.277E-04   -.946E-21 -.932E-20 0.157E-19   -.225E-06 0.231E-06 0.143E-07
   -.105E-01 0.105E-01 0.143E-04   0.205E-01 -.205E-01 -.277E-04   -.144E-24 -.116E-19 -.241E-19   0.231E-06 -.225E-06 0.143E-07
   -.105E-01 -.105E-01 -.103E-01   0.205E-01 0.205E-01 0.202E-01   0.174E-24 0.291E-25 -.148E-19   0.231E-06 0.231E-06 0.239E-06
   -.143E-04 -.143E-04 0.105E-01   0.277E-04 0.277E-04 -.205E-01   -.127E-20 -.127E-19 -.210E-19   -.143E-07 -.143E-07 -.235E-06
   -.143E-04 0.103E-01 -.105E-01   0.277E-04 -.202E-01 0.205E-01   0.127E-20 -.134E-19 -.131E-19   -.143E-07 -.244E-06 0.231E-06
   0.103E-01 -.143E-04 -.105E-01   -.202E-01 0.277E-04 0.205E-01   0.485E-21 0.127E-20 -.474E-19   -.244E-06 -.143E-07 0.231E-06
   0.103E-01 0.103E-01 0.105E-01   -.202E-01 -.202E-01 -.205E-01   0.971E-21 0.101E-19 -.440E-19   -.244E-06 -.244E-06 -.225E-06
   -.103E-01 -.143E-04 0.105E-01   0.202E-01 0.277E-04 -.205E-01   -.268E-25 -.212E-19 -.345E-19   0.248E-06 -.143E-07 -.234E-06
   -.103E-01 0.103E-01 -.105E-01   0.202E-01 -.202E-01 0.205E-01   0.145E-24 0.266E-20 -.805E-20   0.239E-06 -.244E-06 0.231E-06
   0.143E-04 -.143E-04 -.105E-01   -.277E-04 0.277E-04 0.205E-01   0.212E-20 0.762E-20 -.572E-19   0.143E-07 -.143E-07 0.231E-06
   0.143E-04 0.103E-01 0.105E-01   -.277E-04 -.202E-01 -.205E-01   0.424E-21 -.662E-22 -.508E-19   0.143E-07 -.244E-06 -.225E-06
   0.105E-01 -.143E-04 0.105E-01   -.205E-01 0.277E-04 -.205E-01   -.146E-20 -.424E-20 -.218E-19   -.234E-06 -.143E-07 -.234E-06
   0.105E-01 0.103E-01 -.105E-01   -.205E-01 -.202E-01 0.205E-01   0.133E-20 0.272E-19 -.254E-19   -.225E-06 -.244E-06 0.231E-06
   -.105E-01 -.143E-04 -.105E-01   0.205E-01 0.277E-04 0.205E-01   0.117E-24 0.296E-20 -.199E-19   0.231E-06 -.143E-07 0.231E-06
   -.105E-01 0.103E-01 0.105E-01   0.205E-01 -.202E-01 -.205E-01   0.621E-27 -.303E-20 -.478E-19   0.231E-06 -.244E-06 -.225E-06
   -.143E-04 -.103E-01 0.105E-01   0.277E-04 0.202E-01 -.205E-01   -.127E-20 0.157E-19 -.324E-19   -.143E-07 0.248E-06 -.234E-06
   -.143E-04 0.143E-04 -.105E-01   0.277E-04 -.277E-04 0.205E-01   0.127E-20 -.847E-20 -.136E-19   -.143E-07 0.143E-07 0.231E-06
   0.103E-01 -.103E-01 -.105E-01   -.202E-01 0.202E-01 0.205E-01   -.499E-21 -.127E-20 0.136E-19   -.244E-06 0.239E-06 0.231E-06
   0.103E-01 0.143E-04 0.105E-01   -.202E-01 -.277E-04 -.205E-01   -.553E-21 -.114E-19 0.564E-19   -.244E-06 0.143E-07 -.225E-06
   -.103E-01 -.103E-01 0.105E-01   0.202E-01 0.202E-01 -.205E-01   0.283E-25 0.106E-19 -.531E-20   0.248E-06 0.248E-06 -.235E-06
   -.103E-01 0.143E-04 -.105E-01   0.202E-01 -.277E-04 0.205E-01   0.117E-24 0.254E-20 0.136E-19   0.238E-06 0.143E-07 0.231E-06
   0.143E-04 -.103E-01 -.105E-01   -.277E-04 0.202E-01 0.205E-01   0.170E-24 0.212E-20 0.131E-19   0.143E-07 0.238E-06 0.231E-06
   0.143E-04 0.143E-04 0.105E-01   -.277E-04 -.277E-04 -.205E-01   -.296E-25 -.974E-20 0.801E-19   0.143E-07 0.143E-07 -.226E-06
   0.105E-01 -.103E-01 0.105E-01   -.205E-01 0.202E-01 -.205E-01   -.824E-21 -.169E-20 -.252E-19   -.235E-06 0.248E-06 -.235E-06
   0.105E-01 0.143E-04 -.105E-01   -.205E-01 -.277E-04 0.205E-01   -.479E-22 0.847E-20 0.136E-19   -.225E-06 0.143E-07 0.231E-06
   -.105E-01 -.103E-01 -.105E-01   0.205E-01 0.202E-01 0.205E-01   0.173E-24 -.847E-21 -.551E-20   0.231E-06 0.239E-06 0.231E-06
   -.105E-01 0.143E-04 0.105E-01   0.205E-01 -.277E-04 -.205E-01   -.273E-25 -.110E-19 0.835E-19   0.231E-06 0.143E-07 -.225E-06
   -.143E-04 0.105E-01 0.105E-01   0.277E-04 -.205E-01 -.205E-01   0.847E-21 -.517E-20 0.823E-20   -.143E-07 -.234E-06 -.234E-06
   -.143E-04 -.105E-01 -.105E-01   0.277E-04 0.205E-01 0.205E-01   0.170E-24 0.136E-19 -.152E-19   -.143E-07 0.231E-06 0.231E-06
   0.103E-01 0.105E-01 -.105E-01   -.202E-01 -.205E-01 0.205E-01   0.717E-21 0.426E-20 0.373E-19   -.244E-06 -.225E-06 0.231E-06
   0.103E-01 -.105E-01 0.105E-01   -.202E-01 0.205E-01 -.205E-01   0.218E-21 -.102E-19 -.139E-19   -.244E-06 0.231E-06 -.225E-06
   -.103E-01 0.105E-01 0.105E-01   0.202E-01 -.205E-01 -.205E-01   0.528E-27 -.179E-20 0.150E-19   0.248E-06 -.235E-06 -.235E-06
   -.103E-01 -.105E-01 -.105E-01   0.202E-01 0.205E-01 0.205E-01   0.172E-24 -.508E-20 0.254E-20   0.239E-06 0.231E-06 0.231E-06
   0.143E-04 0.105E-01 -.105E-01   -.277E-04 -.205E-01 0.205E-01   0.847E-21 0.123E-19 0.368E-19   0.143E-07 -.225E-06 0.231E-06
   0.143E-04 -.105E-01 0.105E-01   -.277E-04 0.205E-01 -.205E-01   -.423E-21 -.339E-20 0.304E-20   0.143E-07 0.231E-06 -.225E-06
   0.105E-01 0.105E-01 0.105E-01   -.205E-01 -.205E-01 -.205E-01   0.118E-20 -.348E-20 0.527E-20   -.235E-06 -.235E-06 -.235E-06
   0.105E-01 -.105E-01 -.105E-01   -.205E-01 0.205E-01 0.205E-01   0.679E-23 -.136E-19 -.508E-20   -.225E-06 0.231E-06 0.231E-06
   -.105E-01 0.105E-01 -.105E-01   0.205E-01 -.205E-01 0.205E-01   0.145E-24 0.178E-19 0.368E-19   0.231E-06 -.225E-06 0.231E-06
   -.105E-01 -.105E-01 0.105E-01   0.205E-01 0.205E-01 -.205E-01   0.279E-25 0.339E-20 0.302E-20   0.231E-06 0.231E-06 -.225E-06
 -----------------------------------------------------------------------------------------------
   0.571E-08 0.574E-08 0.565E-08   0.795E-12 -.139E-11 -.459E-11   0.617E-20 0.496E-19 0.383E-19   -.493E-08 -.493E-08 -.493E-08
 
 
 POSITION                                       TOTAL-FORCE (eV/Angst)
 -----------------------------------------------------------------------------------
      0.00000      0.00000      0.00000        -0.000000     -0.000000     -0.000000
      0.00000      1.72377      1.72377        -0.000000     -0.000000     -0.000000
      1.72377      0.00000      1.72377        -0.000000     -0.000000     -0.000000
      1.72377      1.72377     -0.00000        -0.000000     -0.000000      0.000000
      3.44748      0.00000      0.00000         0.000000      0.000000     -0.000000
      3.44748      1.72377      1.72377         0.000000     -0.000000     -0.000000
      5.17125      0.00000      1.72377         0.000000      0.000000     -0.000000
      5.17125      1.72377      0.00000         0.000000      0.000000      0.000000
      6.89503      0.00000      0.00000         0.000000     -0.000000     -0.000000
      6.89503      1.72377      1.72377         0.000000     -0.000000      0.000000
      8.61873      0.00000      1.72377         0.000000      0.000000     -0.000000
      8.61873      1.72377      0.00000         0.000000     -0.000000     -0.000000
      0.00000      3.44748     -0.00000        -0.000000     -0.000000     -0.000000
      0.00000      5.17125      1.72377        -0.000000      0.000000      0.000000
      1.72377      3.44748      1.72377        -0.000000      0.000000     -0.000000
      1.72377      5.17125     -0.00000        -0.000000     -0.000000      0.000000
      3.44748      3.44748     -0.00000         0.000000     -0.000000      0.000000
      3.44748      5.17125      1.72377        -0.000000     -0.000000      0.000000
      5.17125      3.44748      1.72377         0.000000     -0.000000     -0.000000
      5.17125      5.17125     -0.00000         0.000000      0.000000     -0.000000
      6.89503      3.44748      0.00000         0.000000      0.000000      0.000000
      6.89503      5.17125      1.72377        -0.000000     -0.000000      0.000000
      8.61873      3.44748      1.72377        -0.000000      0.000000     -0.000000
      8.61873      5.17125     -0.00000        -0.000000     -0.000000     -0.000000
      0.00000      6.89503     -0.00000        -0.000000     -0.000000      0.000000
      0.00000      8.61873      1.72377        -0.000000     -0.000000     -0.000000
      1.72377      6.89503      1.72377        -0.000000      0.000000      0.000000
      1.72377      8.61873     -0.00000        -0.000000      0.000000     -0.000000
      3.44748      6.89503     -0.00000         0.000000      0.000000      0.000000
      3.44748      8.61873      1.72377        -0.000000      0.000000     -0.000000
      5.17125      6.89503      1.72377         0.000000     -0.000000      0.000000
      5.17125      8.61873     -0.00000         0.000000      0.000000     -0.000000
      6.89503      6.89503     -0.00000        -0.000000     -0.000000     -0.000000
      6.89503      8.61873      1.72377         0.000000      0.000000      0.000000
      8.61873      6.89503      1.72377         0.000000     -0.000000      0.000000
      8.61873      8.61873     -0.00000        -0.000000     -0.000000      0.000000
      0.00000      0.00000      3.44748         0.000000      0.000000      0.000000
      0.00000      1.72377      5.17125        -0.000000     -0.000000     -0.000000
      1.72377      0.00000      5.17125         0.000000      0.000000     -0.000000
      1.72377      1.72377      3.44748        -0.000000     -0.000000     -0.000000
      3.44748      0.00000      3.44748         0.000000      0.000000      0.000000
      3.44748      1.72377      5.17125         0.000000     -0.000000     -0.000000
      5.17125      0.00000      5.17125         0.000000      0.000000     -0.000000
      5.17125      1.72377      3.44748         0.000000      0.000000     -0.000000
      6.89503      0.00000      3.44748         0.000000     -0.000000      0.000000
      6.89503      1.72377      5.17125         0.000000      0.000000     -0.000000
      8.61873      0.00000      5.17125        -0.000000     -0.000000     -0.000000
      8.61873      1.72377      3.44748        -0.000000     -0.000000      0.000000
      0.00000      3.44748      3.44748        -0.000000     -0.000000      0.000000
      0.00000      5.17125      5.17125         0.000000     -0.000000      0.000000
      1.72377      3.44748      5.17125        -0.000000      0.000000     -0.000000
      1.72377      5.17125      3.44748        -0.000000     -0.000000     -0.000000
      3.44748      3.44748      3.44748        -0.000000      0.000000     -0.000000
      3.44748      5.17125      5.17125         0.000000     -0.000000      0.000000
      5.17125      3.44748      5.17125         0.000000     -0.000000     -0.000000
      5.17125      5.17125      3.44748         0.000000      0.000000      0.000000
      6.89503      3.44748      3.44748         0.000000      0.000000     -0.000000
      6.89503      5.17125      5.17125         0.000000     -0.000000      0.000000
      8.61873      3.44748      5.17125        -0.000000     -0.000000     -0.000000
      8.61873      5.17125      3.44748         0.000000      0.000000     -0.000000
      0.00000      6.89503      3.44748        -0.000000      0.000000     -0.000000
      0.00000      8.61873      5.17125        -0.000000     -0.000000     -0.000000
      1.72377      6.89503      5.17125        -0.000000     -0.000000      0.000000
      1.72377      8.61873      3.44748        -0.000000      0.000000     -0.000000
      3.44748      6.89503      3.44748        -0.000000      0.000000     -0.000000
      3.44748      8.61873      5.17125        -0.000000      0.000000     -0.000000
      5.17125      6.89503      5.17125         0.000000     -0.000000      0.000000
      5.17125      8.61873      3.44748         0.000000      0.000000      0.000000
      6.89503      6.89503      3.44748        -0.000000     -0.000000      0.000000
      6.89503      8.61873      5.17125         0.000000      0.000000      0.000000
      8.61873      6.89503      5.17125        -0.000000      0.000000      0.000000
      8.61873      8.61873      3.44748         0.000000     -0.000000     -0.000000
      0.00000      0.00000      6.89503        -0.000000      0.000000     -0.000000
      0.00000      1.72377      8.61873         0.000000      0.000000      0.000000
      1.72377      0.00000      8.61873        -0.000000     -0.000000      0.000000
      1.72377      1.72377      6.89503        -0.000000     -0.000000      0.000000
      3.44748      0.00000      6.89503        -0.000000      0.000000     -0.000000
      3.44748      1.72377      8.61873         0.000000      0.000000      0.000000
      5.17125      0.00000      8.61873         0.000000      0.000000      0.000000
      5.17125      1.72377      6.89503         0.000000      0.000000      0.000000
      6.89503      0.00000      6.89503         0.000000     -0.000000      0.000000
      6.89503      1.72377      8.61873         0.000000      0.000000      0.000000
      8.61873      0.00000      8.61873        -0.000000      0.000000      0.000000
      8.61873      1.72377      6.89503         0.000000     -0.000000     -0.000000
      0.00000      3.44748      6.89503        -0.000000     -0.000000     -0.000000
      0.00000      5.17125      8.61873        -0.000000      0.000000     -0.000000
      1.72377      3.44748      8.61873        -0.000000      0.000000      0.000000
      1.72377      5.17125      6.89503        -0.000000     -0.000000      0.000000
      3.44748      3.44748      6.89503        -0.000000     -0.000000     -0.000000
      3.44748      5.17125      8.61873         0.000000     -0.000000     -0.000000
      5.17125      3.44748      8.61873         0.000000     -0.000000     -0.000000
      5.17125      5.17125      6.89503         0.000000      0.000000     -0.000000
      6.89503      3.44748      6.89503         0.000000      0.000000     -0.000000
      6.89503      5.17125      8.61873        -0.000000     -0.000000     -0.000000
      8.61873      3.44748      8.61873        -0.000000     -0.000000     -0.000000
      8.61873      5.17125      6.89503         0.000000      0.000000      0.000000
      0.00000      6.89503      6.89503         0.000000      0.000000      0.000000
      0.00000      8.61873      8.61873        -0.000000     -0.000000      0.000000
      1.72377      6.89503      8.61873         0.000000     -0.000000     -0.000000
      1.72377      8.61873      6.89503        -0.000000     -0.000000     -0.000000
      3.44748      6.89503      6.89503        -0.000000      0.000000      0.000000
      3.44748      8.61873      8.61873        -0.000000      0.000000     -0.000000
      5.17125      6.89503      8.61873         0.000000      0.000000     -0.000000
      5.17125      8.61873      6.89503        -0.000000      0.000000     -0.000000
      6.89503      6.89503      6.89503        -0.000000     -0.000000     -0.000000
      6.89503      8.61873      8.61873         0.000000     -0.000000     -0.000000
      8.61873      6.89503      8.61873        -0.000000      0.000000     -0.000000
      8.61873      8.61873      6.89503        -0.000000     -0.000000     -0.000000
 -----------------------------------------------------------------------------------
    total drift:                                0.000000      0.000000      0.000000


--------------------------------------------------------------------------------------------------------



  FREE ENERGIE OF THE ION-ELECTRON SYSTEM (eV)
  ---------------------------------------------------
  free  energy   TOTEN  =      -879.59292512 eV

  energy  without entropy=     -879.52300275  energy(sigma->0) =     -879.56961766
 
 d Force = 0.0000000E+00[ 0.000E+00, 0.000E+00]  d Energy = 0.1067504E-01-0.107E-01
 d Force = 0.0000000E+00[ 0.000E+00, 0.000E+00]  d Ewald  = 0.7374733E+02-0.737E+02


--------------------------------------------------------------------------------------------------------


    POTLOK:  cpu time    0.4420: real time    0.4420


--------------------------------------------------------------------------------------------------------




--------------------------------------------------------------------------------------------------------


  
 reached required accuracy - stopping structural energy minimisation
     LOOP+:  cpu time  533.1856: real time  533.5733
    4ORBIT:  cpu time    0.0000: real time    0.0000

 total amount of memory used by VASP MPI-rank0   200418. kBytes
=======================================================================

   base      :      30000. kBytes
   nonlr-proj:      24807. kBytes
   fftplans  :      15448. kBytes
   grid      :      21835. kBytes
   one-center:        419. kBytes
   wavefun   :     107909. kBytes
 
  
  
 General timing and accounting informations for this job:
 ========================================================
  
                  Total CPU time used (sec):     2457.641
                            User time (sec):     2453.663
                          System time (sec):        3.979
                         Elapsed time (sec):     2459.044
  
                   Maximum memory used (kb):      260964.
                   Average memory used (kb):           0.
  
                          Minor page faults:       239146
                          Major page faults:            0
                 Voluntary context switches:          737
