<?xml version="1.0" encoding="ISO-8859-1"?>
<modeling>
 <generator>
  <i name="program" type="string">vasp </i>
  <i name="version" type="string">5.4.4.18Apr17-6-g9f103f2a35  </i>
  <i name="subversion" type="string">(build Aug 17 2017 06:00:38) complex            parallel </i>
  <i name="platform" type="string">LinuxIFC </i>
  <i name="date" type="string">2019 07 12 </i>
  <i name="time" type="string">14:47:20 </i>
 </generator>
 <incar>
  <i type="string" name="SYSTEM">Opt</i>
  <i type="int" name="ISTART">     0</i>
  <i type="string" name="PREC">normal</i>
  <i type="string" name="ALGO"> Fast</i>
  <i type="int" name="ISPIN">     1</i>
  <i type="int" name="ICHARG">     2</i>
  <i type="int" name="NELM">   400</i>
  <i type="int" name="IBRION">     2</i>
  <i name="EDIFF">      0.00000100</i>
  <i name="EDIFFG">     -0.01000000</i>
  <i type="int" name="NSW">   100</i>
  <i type="int" name="ISIF">     3</i>
  <i name="ENCUT">    450.00000000</i>
  <i type="int" name="NGX">    72</i>
  <i type="int" name="NGY">    72</i>
  <i type="int" name="NGZ">    72</i>
  <i name="POTIM">      0.50000000</i>
  <i type="string" name="LREAL">Auto</i>
  <i type="logical" name="LWAVE"> F  </i>
  <i type="logical" name="LCHARG"> F  </i>
  <v type="int" name="KPOINT_BSE">    -1     0     0     0</v>
  <i type="int" name="NELM">   400</i>
 </incar>
 <structure name="primitive_cell" >
  <crystal>
   <varray name="basis" >
    <v>       3.44492529       0.00000000       0.00000000 </v>
    <v>       0.00000000       3.44492529       0.00000000 </v>
    <v>       0.00000000       0.00000000       3.44492524 </v>
   </varray>
   <i name="volume">     40.88268566 </i>
   <varray name="rec_basis" >
    <v>       0.29028206       0.00000000       0.00000000 </v>
    <v>       0.00000000       0.29028206       0.00000000 </v>
    <v>       0.00000000       0.00000000       0.29028206 </v>
   </varray>
  </crystal>
  <varray name="positions" >
   <v>       0.00000000       0.00000000       0.00000000 </v>
   <v>       0.00000000      -0.49998976      -0.49998975 </v>
   <v>      -0.49998976       0.00000000      -0.49998975 </v>
   <v>      -0.49998976      -0.49998976       0.00000000 </v>
  </varray>
 </structure>
 <varray name="primitive_index" >
  <v type="int" >        1 </v>
  <v type="int" >        2 </v>
  <v type="int" >        3 </v>
  <v type="int" >        4 </v>
 </varray>
 <kpoints>
  <generation param="Monkhorst-Pack">
   <v type="int" name="divisions">       4        4        4 </v>
   <v name="usershift">      0.00000000       0.00000000       0.00000000 </v>
   <v name="genvec1">      0.25000000       0.00000000       0.00000000 </v>
   <v name="genvec2">      0.00000000       0.25000000       0.00000000 </v>
   <v name="genvec3">      0.00000000       0.00000000       0.25000000 </v>
   <v name="shift">      0.50000000       0.50000000       0.50000000 </v>
  </generation>
  <varray name="kpointlist" >
   <v>       0.12500000       0.12500000       0.12500000 </v>
   <v>       0.37500000       0.12500000       0.12500000 </v>
   <v>       0.37500000       0.37500000       0.12500000 </v>
   <v>       0.37500000       0.37500000       0.37500000 </v>
  </varray>
  <varray name="weights" >
   <v>       0.12500000 </v>
   <v>       0.37500000 </v>
   <v>       0.37500000 </v>
   <v>       0.12500000 </v>
  </varray>
 </kpoints>
 <parameters>
  <separator name="general" >
   <i type="string" name="SYSTEM">Opt</i>
   <i type="logical" name="LCOMPAT"> F  </i>
  </separator>
  <separator name="electronic" >
   <i type="string" name="PREC">normal</i>
   <i name="ENMAX">    450.00000000</i>
   <i name="ENAUG">    511.36800000</i>
   <i name="EDIFF">      0.00000100</i>
   <i type="int" name="IALGO">    68</i>
   <i type="int" name="IWAVPR">    11</i>
   <i type="int" name="NBANDS">   518</i>
   <i name="NELECT">    864.00000000</i>
   <i type="int" name="TURBO">     0</i>
   <i type="int" name="IRESTART">     0</i>
   <i type="int" name="NREBOOT">     0</i>
   <i type="int" name="NMIN">     0</i>
   <i name="EREF">      0.00000000</i>
   <separator name="electronic smearing" >
    <i type="int" name="ISMEAR">     1</i>
    <i name="SIGMA">      0.20000000</i>
    <i name="KSPACING">      0.50000000</i>
    <i type="logical" name="KGAMMA"> T  </i>
   </separator>
   <separator name="electronic projectors" >
    <i type="logical" name="LREAL"> T  </i>
    <v name="ROPT">     -0.00050000</v>
    <i type="int" name="LMAXPAW">  -100</i>
    <i type="int" name="LMAXMIX">     2</i>
    <i type="logical" name="NLSPLINE"> F  </i>
   </separator>
   <separator name="electronic startup" >
    <i type="int" name="ISTART">     0</i>
    <i type="int" name="ICHARG">     2</i>
    <i type="int" name="INIWAV">     1</i>
   </separator>
   <separator name="electronic spin" >
    <i type="int" name="ISPIN">     1</i>
    <i type="logical" name="LNONCOLLINEAR"> F  </i>
    <v name="MAGMOM">      1.00000000      1.00000000      1.00000000      1.00000000      1.00000000      1.00000000      1.00000000      1.00000000      1.00000000      1.00000000      1.00000000      1.00000000      1.00000000      1.00000000      1.00000000      1.00000000      1.00000000      1.00000000      1.00000000      1.00000000
      1.00000000      1.00000000      1.00000000      1.00000000      1.00000000      1.00000000      1.00000000      1.00000000      1.00000000      1.00000000      1.00000000      1.00000000      1.00000000      1.00000000      1.00000000      1.00000000      1.00000000      1.00000000      1.00000000      1.00000000
      1.00000000      1.00000000      1.00000000      1.00000000      1.00000000      1.00000000      1.00000000      1.00000000      1.00000000      1.00000000      1.00000000      1.00000000      1.00000000      1.00000000      1.00000000      1.00000000      1.00000000      1.00000000      1.00000000      1.00000000
      1.00000000      1.00000000      1.00000000      1.00000000      1.00000000      1.00000000      1.00000000      1.00000000      1.00000000      1.00000000      1.00000000      1.00000000      1.00000000      1.00000000      1.00000000      1.00000000      1.00000000      1.00000000      1.00000000      1.00000000
      1.00000000      1.00000000      1.00000000      1.00000000      1.00000000      1.00000000      1.00000000      1.00000000      1.00000000      1.00000000      1.00000000      1.00000000      1.00000000      1.00000000      1.00000000      1.00000000      1.00000000      1.00000000      1.00000000      1.00000000
      1.00000000      1.00000000      1.00000000      1.00000000      1.00000000      1.00000000      1.00000000      1.00000000</v>
    <i name="NUPDOWN">     -1.00000000</i>
    <i type="logical" name="LSORBIT"> F  </i>
    <v name="SAXIS">      0.00000000      0.00000000      1.00000000</v>
    <i type="logical" name="LSPIRAL"> F  </i>
    <v name="QSPIRAL">      0.00000000      0.00000000      0.00000000</v>
    <i type="logical" name="LZEROZ"> F  </i>
   </separator>
   <separator name="electronic exchange-correlation" >
    <i type="logical" name="LASPH"> F  </i>
    <i type="logical" name="LMETAGGA"> F  </i>
   </separator>
   <separator name="electronic convergence" >
    <i type="int" name="NELM">   400</i>
    <i type="int" name="NELMDL">    -5</i>
    <i type="int" name="NELMIN">     2</i>
    <i name="ENINI">    450.00000000</i>
    <separator name="electronic convergence detail" >
     <i type="logical" name="LDIAG"> T  </i>
     <i type="logical" name="LSUBROT"> F  </i>
     <i name="WEIMIN">      0.00100000</i>
     <i name="EBREAK">      0.00000000</i>
     <i name="DEPER">      0.30000000</i>
     <i type="int" name="NRMM">     4</i>
     <i name="TIME">      0.40000000</i>
    </separator>
   </separator>
   <separator name="electronic mixer" >
    <i name="AMIX">      0.40000000</i>
    <i name="BMIX">      1.00000000</i>
    <i name="AMIN">      0.10000000</i>
    <i name="AMIX_MAG">      1.60000000</i>
    <i name="BMIX_MAG">      1.00000000</i>
    <separator name="electronic mixer details" >
     <i type="int" name="IMIX">     4</i>
     <i type="logical" name="MIXFIRST"> F  </i>
     <i type="int" name="MAXMIX">   -45</i>
     <i name="WC">    100.00000000</i>
     <i type="int" name="INIMIX">     1</i>
     <i type="int" name="MIXPRE">     1</i>
     <i type="int" name="MREMOVE">     5</i>
    </separator>
   </separator>
   <separator name="electronic dipolcorrection" >
    <i type="logical" name="LDIPOL"> F  </i>
    <i type="logical" name="LMONO"> F  </i>
    <i type="int" name="IDIPOL">     0</i>
    <i name="EPSILON">      1.00000000</i>
    <v name="DIPOL">   -100.00000000   -100.00000000   -100.00000000</v>
    <i name="EFIELD">      0.00000000</i>
   </separator>
  </separator>
  <separator name="grids" >
   <i type="int" name="NGX">    72</i>
   <i type="int" name="NGY">    72</i>
   <i type="int" name="NGZ">    72</i>
   <i type="int" name="NGXF">   144</i>
   <i type="int" name="NGYF">   144</i>
   <i type="int" name="NGZF">   144</i>
   <i type="logical" name="ADDGRID"> F  </i>
  </separator>
  <separator name="ionic" >
   <i type="int" name="NSW">   100</i>
   <i type="int" name="IBRION">     2</i>
   <i type="int" name="MDALGO">     0</i>
   <i type="int" name="ISIF">     3</i>
   <i name="PSTRESS">      0.00000000</i>
   <i name="EDIFFG">     -0.01000000</i>
   <i type="int" name="NFREE">     1</i>
   <i name="POTIM">      0.50000000</i>
   <i name="SMASS">     -3.00000000</i>
   <i name="SCALEE">      1.00000000</i>
  </separator>
  <separator name="ionic md" >
   <i name="TEBEG">      0.00010000</i>
   <i name="TEEND">      0.00010000</i>
   <i type="int" name="NBLOCK">     1</i>
   <i type="int" name="KBLOCK">   100</i>
   <i type="int" name="NPACO">   256</i>
   <i name="APACO">     16.00000000</i>
  </separator>
  <separator name="symmetry" >
   <i type="int" name="ISYM">     2</i>
   <i name="SYMPREC">      0.00001000</i>
  </separator>
  <separator name="dos" >
   <i type="int" name="LORBIT">     0</i>
   <v name="RWIGS">     -1.00000000</v>
   <i type="int" name="NEDOS">   301</i>
   <i name="EMIN">     10.00000000</i>
   <i name="EMAX">    -10.00000000</i>
   <i name="EFERMI">      0.00000000</i>
  </separator>
  <separator name="writing" >
   <i type="int" name="NWRITE">     2</i>
   <i type="logical" name="LWAVE"> F  </i>
   <i type="logical" name="LDOWNSAMPLE"> F  </i>
   <i type="logical" name="LCHARG"> F  </i>
   <i type="logical" name="LPARD"> F  </i>
   <i type="logical" name="LVTOT"> F  </i>
   <i type="logical" name="LVHAR"> F  </i>
   <i type="logical" name="LELF"> F  </i>
   <i type="logical" name="LOPTICS"> F  </i>
   <v name="STM">      0.00000000      0.00000000      0.00000000      0.00000000      0.00000000      0.00000000      0.00000000</v>
  </separator>
  <separator name="performance" >
   <i type="int" name="NPAR">     2</i>
   <i type="int" name="NSIM">     4</i>
   <i type="int" name="NBLK">    -1</i>
   <i type="logical" name="LPLANE"> T  </i>
   <i type="logical" name="LSCALAPACK"> T  </i>
   <i type="logical" name="LSCAAWARE"> F  </i>
   <i type="logical" name="LSCALU"> F  </i>
   <i type="logical" name="LASYNC"> F  </i>
   <i type="logical" name="LORBITALREAL"> F  </i>
  </separator>
  <separator name="miscellaneous" >
   <i type="int" name="IDIOT">     3</i>
   <i type="int" name="ISPECIAL">     0</i>
   <i type="logical" name="LMUSIC"> F  </i>
   <v name="POMASS">     55.84700000</v>
   <v name="DARWINR">      0.00000000</v>
   <v name="DARWINV">      1.00000000</v>
   <i type="logical" name="LCORR"> T  </i>
  </separator>
  <i type="logical" name="GGA_COMPAT"> T  </i>
  <i type="logical" name="LBERRY"> F  </i>
  <i type="int" name="ICORELEVEL">     0</i>
  <i type="logical" name="LDAU"> F  </i>
  <i type="int" name="I_CONSTRAINED_M">     0</i>
  <separator name="electronic exchange-correlation" >
   <i type="string" name="GGA">--</i>
   <i type="int" name="VOSKOWN">     0</i>
   <i type="logical" name="LHFCALC"> F  </i>
   <i type="string" name="PRECFOCK"></i>
   <i type="logical" name="LSYMGRAD"> F  </i>
   <i type="logical" name="LHFONE"> F  </i>
   <i type="logical" name="LRHFCALC"> F  </i>
   <i type="logical" name="LTHOMAS"> F  </i>
   <i type="logical" name="LMODELHF"> F  </i>
   <i name="ENCUT4O">     -1.00000000</i>
   <i type="int" name="EXXOEP">     0</i>
   <i type="int" name="FOURORBIT">     0</i>
   <i name="AEXX">      0.00000000</i>
   <i name="HFALPHA">      0.00000000</i>
   <i name="MCALPHA">      0.00000000</i>
   <i name="ALDAX">      1.00000000</i>
   <i name="AGGAX">      1.00000000</i>
   <i name="ALDAC">      1.00000000</i>
   <i name="AGGAC">      1.00000000</i>
   <i type="int" name="NKREDX">     1</i>
   <i type="int" name="NKREDY">     1</i>
   <i type="int" name="NKREDZ">     1</i>
   <i type="logical" name="SHIFTRED"> F  </i>
   <i type="logical" name="ODDONLY"> F  </i>
   <i type="logical" name="EVENONLY"> F  </i>
   <i type="int" name="LMAXFOCK">     0</i>
   <i type="int" name="NMAXFOCKAE">     0</i>
   <i type="logical" name="LFOCKAEDFT"> F  </i>
   <i name="HFSCREEN">      0.00000000</i>
   <i name="HFSCREENC">      0.00000000</i>
   <i type="int" name="NBANDSGWLOW">     0</i>
  </separator>
  <separator name="vdW DFT" >
   <i type="logical" name="LUSE_VDW"> F  </i>
   <i name="Zab_VDW">     -0.84910000</i>
   <i name="PARAM1">      0.12340000</i>
   <i name="PARAM2">      1.00000000</i>
   <i name="PARAM3">      0.00000000</i>
  </separator>
  <separator name="model GW" >
   <i type="int" name="MODEL_GW">     0</i>
   <i name="MODEL_EPS0">      6.13252964</i>
   <i name="MODEL_ALPHA">      1.00000000</i>
  </separator>
  <separator name="linear response parameters" >
   <i type="logical" name="LEPSILON"> F  </i>
   <i type="logical" name="LRPA"> F  </i>
   <i type="logical" name="LNABLA"> F  </i>
   <i type="logical" name="LVEL"> F  </i>
   <i type="int" name="KINTER">     0</i>
   <i name="CSHIFT">      0.10000000</i>
   <i name="OMEGAMAX">     -1.00000000</i>
   <i name="DEG_THRESHOLD">      0.00200000</i>
   <i name="RTIME">     -0.10000000</i>
   <i name="WPLASMAI">      0.00000000</i>
   <v name="DFIELD">      0.00000000      0.00000000      0.00000000</v>
   <v name="WPLASMA">      0.00000000      0.00000000      0.00000000      0.00000000      0.00000000      0.00000000      0.00000000      0.00000000      0.00000000</v>
  </separator>
  <separator name="orbital magnetization" >
   <i type="logical" name="NUCIND"> F  </i>
   <v name="MAGPOS">      0.00000000      0.00000000      0.00000000</v>
   <i type="logical" name="LNICSALL"> T  </i>
   <i type="logical" name="ORBITALMAG"> F  </i>
   <i type="logical" name="LMAGBLOCH"> F  </i>
   <i type="logical" name="LCHIMAG"> F  </i>
   <i type="logical" name="LGAUGE"> T  </i>
   <i type="int" name="MAGATOM">     0</i>
   <v name="MAGDIPOL">      0.00000000      0.00000000      0.00000000</v>
   <v name="AVECCONST">      0.00000000      0.00000000      0.00000000</v>
  </separator>
  <separator name="response functions" >
   <i type="logical" name="LADDER"> F  </i>
   <i type="logical" name="LRPAFORCE"> F  </i>
   <i type="logical" name="LFXC"> F  </i>
   <i type="logical" name="LHARTREE"> T  </i>
   <i type="int" name="IBSE">     0</i>
   <v type="int" name="KPOINT">    -1     0     0     0</v>
   <i type="logical" name="LTCTE"> F  </i>
   <i type="logical" name="LTETE"> F  </i>
   <i type="logical" name="LTRIPLET"> F  </i>
   <i type="logical" name="LFXCEPS"> F  </i>
   <i type="logical" name="LFXHEG"> F  </i>
   <i type="int" name="NATURALO">     2</i>
   <i type="logical" name="L2ORDER"> F  </i>
   <i type="logical" name="LMP2LT"> F  </i>
   <i type="logical" name="LUSEW"> F  </i>
   <i name="ENCUTGW">     -2.00000000</i>
   <i name="ENCUTGWSOFT">     -2.00000000</i>
   <i name="ENCUTLF">     -1.00000000</i>
   <i type="int" name="LMAXMP2">    -1</i>
   <i name="SCISSOR">      0.00000000</i>
   <i type="int" name="NOMEGA">     0</i>
   <i type="int" name="NOMEGAR">     0</i>
   <i type="int" name="NBANDSGW">    -1</i>
   <i type="int" name="NBANDSO">    -1</i>
   <i type="int" name="NBANDSV">    -1</i>
   <i type="int" name="NELM">   400</i>
   <i type="int" name="NELMHF">     1</i>
   <i type="int" name="DIM">     3</i>
   <i type="int" name="ANTIRES">     0</i>
   <i name="OMEGAMAX">    -30.00000000</i>
   <i name="OMEGAMIN">    -30.00000000</i>
   <i name="OMEGATL">   -200.00000000</i>
   <i type="int" name="OMEGAGRID">   140</i>
   <i name="CSHIFT">     -0.10000000</i>
   <i type="logical" name="SELFENERGY"> F  </i>
   <i type="logical" name="LSPECTRAL"> F  </i>
   <i type="logical" name="LSPECTRALGW"> F  </i>
   <i type="logical" name="LSINGLES"> F  </i>
   <i type="logical" name="LFERMIGW"> F  </i>
   <i type="logical" name="ODDONLYGW"> F  </i>
   <i type="logical" name="EVENONLYGW"> F  </i>
   <i type="int" name="NKREDLFX">     1</i>
   <i type="int" name="NKREDLFY">     1</i>
   <i type="int" name="NKREDLFZ">     1</i>
   <i type="int" name="MAXMEM">  2800</i>
   <i type="int" name="TELESCOPE">     0</i>
   <i type="int" name="TAUPAR">     1</i>
   <i type="int" name="OMEGAPAR">    -1</i>
   <i name="LAMBDA">      1.00000000</i>
  </separator>
  <separator name="External order field" >
   <i name="OFIELD_KAPPA">      0.00000000</i>
   <v name="OFIELD_K">      0.00000000      0.00000000      0.00000000</v>
   <i name="OFIELD_Q6_NEAR">      0.00000000</i>
   <i name="OFIELD_Q6_FAR">      0.00000000</i>
   <i name="OFIELD_A">      0.00000000</i>
  </separator>
 </parameters>
 <atominfo>
  <atoms>     108 </atoms>
  <types>       1 </types>
  <array name="atoms" >
   <dimension dim="1">ion</dimension>
   <field type="string">element</field>
   <field type="int">atomtype</field>
   <set>
    <rc><c>Fe</c><c>   1</c></rc>
    <rc><c>Fe</c><c>   1</c></rc>
    <rc><c>Fe</c><c>   1</c></rc>
    <rc><c>Fe</c><c>   1</c></rc>
    <rc><c>Fe</c><c>   1</c></rc>
    <rc><c>Fe</c><c>   1</c></rc>
    <rc><c>Fe</c><c>   1</c></rc>
    <rc><c>Fe</c><c>   1</c></rc>
    <rc><c>Fe</c><c>   1</c></rc>
    <rc><c>Fe</c><c>   1</c></rc>
    <rc><c>Fe</c><c>   1</c></rc>
    <rc><c>Fe</c><c>   1</c></rc>
    <rc><c>Fe</c><c>   1</c></rc>
    <rc><c>Fe</c><c>   1</c></rc>
    <rc><c>Fe</c><c>   1</c></rc>
    <rc><c>Fe</c><c>   1</c></rc>
    <rc><c>Fe</c><c>   1</c></rc>
    <rc><c>Fe</c><c>   1</c></rc>
    <rc><c>Fe</c><c>   1</c></rc>
    <rc><c>Fe</c><c>   1</c></rc>
    <rc><c>Fe</c><c>   1</c></rc>
    <rc><c>Fe</c><c>   1</c></rc>
    <rc><c>Fe</c><c>   1</c></rc>
    <rc><c>Fe</c><c>   1</c></rc>
    <rc><c>Fe</c><c>   1</c></rc>
    <rc><c>Fe</c><c>   1</c></rc>
    <rc><c>Fe</c><c>   1</c></rc>
    <rc><c>Fe</c><c>   1</c></rc>
    <rc><c>Fe</c><c>   1</c></rc>
    <rc><c>Fe</c><c>   1</c></rc>
    <rc><c>Fe</c><c>   1</c></rc>
    <rc><c>Fe</c><c>   1</c></rc>
    <rc><c>Fe</c><c>   1</c></rc>
    <rc><c>Fe</c><c>   1</c></rc>
    <rc><c>Fe</c><c>   1</c></rc>
    <rc><c>Fe</c><c>   1</c></rc>
    <rc><c>Fe</c><c>   1</c></rc>
    <rc><c>Fe</c><c>   1</c></rc>
    <rc><c>Fe</c><c>   1</c></rc>
    <rc><c>Fe</c><c>   1</c></rc>
    <rc><c>Fe</c><c>   1</c></rc>
    <rc><c>Fe</c><c>   1</c></rc>
    <rc><c>Fe</c><c>   1</c></rc>
    <rc><c>Fe</c><c>   1</c></rc>
    <rc><c>Fe</c><c>   1</c></rc>
    <rc><c>Fe</c><c>   1</c></rc>
    <rc><c>Fe</c><c>   1</c></rc>
    <rc><c>Fe</c><c>   1</c></rc>
    <rc><c>Fe</c><c>   1</c></rc>
    <rc><c>Fe</c><c>   1</c></rc>
    <rc><c>Fe</c><c>   1</c></rc>
    <rc><c>Fe</c><c>   1</c></rc>
    <rc><c>Fe</c><c>   1</c></rc>
    <rc><c>Fe</c><c>   1</c></rc>
    <rc><c>Fe</c><c>   1</c></rc>
    <rc><c>Fe</c><c>   1</c></rc>
    <rc><c>Fe</c><c>   1</c></rc>
    <rc><c>Fe</c><c>   1</c></rc>
    <rc><c>Fe</c><c>   1</c></rc>
    <rc><c>Fe</c><c>   1</c></rc>
    <rc><c>Fe</c><c>   1</c></rc>
    <rc><c>Fe</c><c>   1</c></rc>
    <rc><c>Fe</c><c>   1</c></rc>
    <rc><c>Fe</c><c>   1</c></rc>
    <rc><c>Fe</c><c>   1</c></rc>
    <rc><c>Fe</c><c>   1</c></rc>
    <rc><c>Fe</c><c>   1</c></rc>
    <rc><c>Fe</c><c>   1</c></rc>
    <rc><c>Fe</c><c>   1</c></rc>
    <rc><c>Fe</c><c>   1</c></rc>
    <rc><c>Fe</c><c>   1</c></rc>
    <rc><c>Fe</c><c>   1</c></rc>
    <rc><c>Fe</c><c>   1</c></rc>
    <rc><c>Fe</c><c>   1</c></rc>
    <rc><c>Fe</c><c>   1</c></rc>
    <rc><c>Fe</c><c>   1</c></rc>
    <rc><c>Fe</c><c>   1</c></rc>
    <rc><c>Fe</c><c>   1</c></rc>
    <rc><c>Fe</c><c>   1</c></rc>
    <rc><c>Fe</c><c>   1</c></rc>
    <rc><c>Fe</c><c>   1</c></rc>
    <rc><c>Fe</c><c>   1</c></rc>
    <rc><c>Fe</c><c>   1</c></rc>
    <rc><c>Fe</c><c>   1</c></rc>
    <rc><c>Fe</c><c>   1</c></rc>
    <rc><c>Fe</c><c>   1</c></rc>
    <rc><c>Fe</c><c>   1</c></rc>
    <rc><c>Fe</c><c>   1</c></rc>
    <rc><c>Fe</c><c>   1</c></rc>
    <rc><c>Fe</c><c>   1</c></rc>
    <rc><c>Fe</c><c>   1</c></rc>
    <rc><c>Fe</c><c>   1</c></rc>
    <rc><c>Fe</c><c>   1</c></rc>
    <rc><c>Fe</c><c>   1</c></rc>
    <rc><c>Fe</c><c>   1</c></rc>
    <rc><c>Fe</c><c>   1</c></rc>
    <rc><c>Fe</c><c>   1</c></rc>
    <rc><c>Fe</c><c>   1</c></rc>
    <rc><c>Fe</c><c>   1</c></rc>
    <rc><c>Fe</c><c>   1</c></rc>
    <rc><c>Fe</c><c>   1</c></rc>
    <rc><c>Fe</c><c>   1</c></rc>
    <rc><c>Fe</c><c>   1</c></rc>
    <rc><c>Fe</c><c>   1</c></rc>
    <rc><c>Fe</c><c>   1</c></rc>
    <rc><c>Fe</c><c>   1</c></rc>
    <rc><c>Fe</c><c>   1</c></rc>
    <rc><c>Fe</c><c>   1</c></rc>
   </set>
  </array>
  <array name="atomtypes" >
   <dimension dim="1">type</dimension>
   <field type="int">atomspertype</field>
   <field type="string">element</field>
   <field>mass</field>
   <field>valence</field>
   <field type="string">pseudopotential</field>
   <set>
    <rc><c> 108</c><c>Fe</c><c>     55.84700000</c><c>      8.00000000</c><c> PAW_PBE Fe 06Sep2000                   </c></rc>
   </set>
  </array>
 </atominfo>
 <structure name="initialpos" >
  <crystal>
   <varray name="basis" >
    <v>      10.33484705       0.00000000       0.00000000 </v>
    <v>       0.00000000      10.33484705       0.00000000 </v>
    <v>       0.00000000       0.00000000      10.33484705 </v>
   </varray>
   <i name="volume">   1103.85533447 </i>
   <varray name="rec_basis" >
    <v>       0.09676002       0.00000000       0.00000000 </v>
    <v>       0.00000000       0.09676002       0.00000000 </v>
    <v>       0.00000000       0.00000000       0.09676002 </v>
   </varray>
  </crystal>
  <varray name="positions" >
   <v>       0.00000000       0.00000000       0.00000000 </v>
   <v>       0.00000000       0.16666893       0.16666893 </v>
   <v>       0.16666893       0.00000000       0.16666893 </v>
   <v>       0.16666893       0.16666893       0.00000000 </v>
   <v>       0.33333106       0.00000000       0.00000000 </v>
   <v>       0.33333107       0.16666893       0.16666893 </v>
   <v>       0.50000000       0.00000000       0.16666894 </v>
   <v>       0.50000000       0.16666894       0.00000000 </v>
   <v>       0.66666897       0.00000000       0.00000000 </v>
   <v>       0.66666896       0.16666893       0.16666893 </v>
   <v>       0.83333104       0.00000000       0.16666893 </v>
   <v>       0.83333104       0.16666893       0.00000000 </v>
   <v>       0.00000000       0.33333106       0.00000000 </v>
   <v>       0.00000000       0.50000000       0.16666894 </v>
   <v>       0.16666893       0.33333107       0.16666893 </v>
   <v>       0.16666894       0.50000000       0.00000000 </v>
   <v>       0.33333107       0.33333107       0.00000000 </v>
   <v>       0.33333107       0.50000000       0.16666893 </v>
   <v>       0.50000000       0.33333107       0.16666893 </v>
   <v>       0.50000000       0.50000000       0.00000000 </v>
   <v>       0.66666896       0.33333107       0.00000000 </v>
   <v>       0.66666896       0.50000000       0.16666893 </v>
   <v>       0.83333104       0.33333107       0.16666893 </v>
   <v>       0.83333103       0.50000000       0.00000000 </v>
   <v>       0.00000000       0.66666897       0.00000000 </v>
   <v>       0.00000000       0.83333104       0.16666893 </v>
   <v>       0.16666893       0.66666896       0.16666893 </v>
   <v>       0.16666893       0.83333104       0.00000000 </v>
   <v>       0.33333107       0.66666896       0.00000000 </v>
   <v>       0.33333107       0.83333104       0.16666893 </v>
   <v>       0.50000000       0.66666896       0.16666893 </v>
   <v>       0.50000000       0.83333103       0.00000000 </v>
   <v>       0.66666896       0.66666896       0.00000000 </v>
   <v>       0.66666896       0.83333104       0.16666893 </v>
   <v>       0.83333104       0.66666896       0.16666893 </v>
   <v>       0.83333104       0.83333104       0.00000000 </v>
   <v>       0.00000000       0.00000000       0.33333106 </v>
   <v>       0.00000000       0.16666894       0.50000000 </v>
   <v>       0.16666894       0.00000000       0.50000000 </v>
   <v>       0.16666893       0.16666893       0.33333107 </v>
   <v>       0.33333107       0.00000000       0.33333107 </v>
   <v>       0.33333107       0.16666893       0.50000000 </v>
   <v>       0.50000000       0.00000000       0.50000000 </v>
   <v>       0.50000000       0.16666893       0.33333107 </v>
   <v>       0.66666896       0.00000000       0.33333107 </v>
   <v>       0.66666896       0.16666893       0.50000000 </v>
   <v>       0.83333103       0.00000000       0.50000000 </v>
   <v>       0.83333104       0.16666893       0.33333107 </v>
   <v>       0.00000000       0.33333107       0.33333107 </v>
   <v>       0.00000000       0.50000000       0.50000000 </v>
   <v>       0.16666893       0.33333107       0.50000000 </v>
   <v>       0.16666893       0.50000000       0.33333107 </v>
   <v>       0.33333107       0.33333107       0.33333107 </v>
   <v>       0.33333106       0.50000000       0.50000000 </v>
   <v>       0.50000000       0.33333106       0.50000000 </v>
   <v>       0.50000000       0.50000000       0.33333106 </v>
   <v>       0.66666896       0.33333107       0.33333107 </v>
   <v>       0.66666897       0.50000000       0.50000000 </v>
   <v>       0.83333104       0.33333107       0.50000000 </v>
   <v>       0.83333104       0.50000000       0.33333107 </v>
   <v>       0.00000000       0.66666896       0.33333107 </v>
   <v>       0.00000000       0.83333103       0.50000000 </v>
   <v>       0.16666893       0.66666896       0.50000000 </v>
   <v>       0.16666893       0.83333104       0.33333107 </v>
   <v>       0.33333107       0.66666896       0.33333107 </v>
   <v>       0.33333107       0.83333104       0.50000000 </v>
   <v>       0.50000000       0.66666897       0.50000000 </v>
   <v>       0.50000000       0.83333104       0.33333107 </v>
   <v>       0.66666896       0.66666896       0.33333107 </v>
   <v>       0.66666896       0.83333104       0.50000000 </v>
   <v>       0.83333104       0.66666896       0.50000000 </v>
   <v>       0.83333104       0.83333104       0.33333107 </v>
   <v>       0.00000000       0.00000000       0.66666897 </v>
   <v>       0.00000000       0.16666893       0.83333104 </v>
   <v>       0.16666893       0.00000000       0.83333104 </v>
   <v>       0.16666893       0.16666893       0.66666896 </v>
   <v>       0.33333107       0.00000000       0.66666896 </v>
   <v>       0.33333107       0.16666893       0.83333104 </v>
   <v>       0.50000000       0.00000000       0.83333103 </v>
   <v>       0.50000000       0.16666893       0.66666896 </v>
   <v>       0.66666896       0.00000000       0.66666896 </v>
   <v>       0.66666896       0.16666893       0.83333104 </v>
   <v>       0.83333104       0.00000000       0.83333104 </v>
   <v>       0.83333104       0.16666893       0.66666896 </v>
   <v>       0.00000000       0.33333107       0.66666896 </v>
   <v>       0.00000000       0.50000000       0.83333103 </v>
   <v>       0.16666893       0.33333107       0.83333104 </v>
   <v>       0.16666893       0.50000000       0.66666896 </v>
   <v>       0.33333107       0.33333107       0.66666896 </v>
   <v>       0.33333107       0.50000000       0.83333104 </v>
   <v>       0.50000000       0.33333107       0.83333104 </v>
   <v>       0.50000000       0.50000000       0.66666897 </v>
   <v>       0.66666896       0.33333107       0.66666896 </v>
   <v>       0.66666896       0.50000000       0.83333104 </v>
   <v>       0.83333104       0.33333107       0.83333104 </v>
   <v>       0.83333104       0.50000000       0.66666896 </v>
   <v>       0.00000000       0.66666896       0.66666896 </v>
   <v>       0.00000000       0.83333104       0.83333104 </v>
   <v>       0.16666893       0.66666896       0.83333104 </v>
   <v>       0.16666893       0.83333104       0.66666896 </v>
   <v>       0.33333107       0.66666896       0.66666896 </v>
   <v>       0.33333107       0.83333104       0.83333104 </v>
   <v>       0.50000000       0.66666896       0.83333104 </v>
   <v>       0.50000000       0.83333104       0.66666896 </v>
   <v>       0.66666896       0.66666896       0.66666896 </v>
   <v>       0.66666896       0.83333104       0.83333104 </v>
   <v>       0.83333104       0.66666896       0.83333104 </v>
   <v>       0.83333104       0.83333104       0.66666896 </v>
  </varray>
 </structure>
 <calculation>
  <scstep>
   <time name="dav">   41.52   41.55</time>
   <time name="total">   41.89   41.92</time>
   <energy>
    <i name="alphaZ">   7300.31925852 </i>
    <i name="ewald"> -66232.83996889 </i>
    <i name="hartreedc"> -11197.02572337 </i>
    <i name="XCdc">    446.63038354 </i>
    <i name="pawpsdc">  51723.88885462 </i>
    <i name="pawaedc"> -52548.28121372 </i>
    <i name="eentropy">      0.01262226 </i>
    <i name="bandstr">  14349.73436195 </i>
    <i name="atom">  64202.25570658 </i>
    <i name="e_fr_energy">   8044.69428150 </i>
    <i name="e_wo_entrp">   8044.68165924 </i>
    <i name="e_0_energy">   8044.69007408 </i>
   </energy>
  </scstep>
  <scstep>
   <time name="dav">   41.45   41.47</time>
   <time name="total">   41.46   41.47</time>
   <energy>
    <i name="e_fr_energy">     58.28527483 </i>
    <i name="e_wo_entrp">     58.28184997 </i>
    <i name="e_0_energy">     58.28413321 </i>
   </energy>
  </scstep>
  <scstep>
   <time name="dav">   41.58   41.60</time>
   <time name="total">   41.58   41.61</time>
   <energy>
    <i name="e_fr_energy">   -840.44240975 </i>
    <i name="e_wo_entrp">   -840.41246481 </i>
    <i name="e_0_energy">   -840.43242810 </i>
   </energy>
  </scstep>
  <scstep>
   <time name="dav">   67.31   67.34</time>
   <time name="total">   67.32   67.35</time>
   <energy>
    <i name="e_fr_energy">  -1028.96200949 </i>
    <i name="e_wo_entrp">  -1028.88473758 </i>
    <i name="e_0_energy">  -1028.93625219 </i>
   </energy>
  </scstep>
  <scstep>
   <time name="dav">   60.13   60.16</time>
   <time name="total">   62.41   62.45</time>
   <energy>
    <i name="e_fr_energy">  -1045.24511210 </i>
    <i name="e_wo_entrp">  -1045.14074189 </i>
    <i name="e_0_energy">  -1045.21032203 </i>
   </energy>
  </scstep>
  <scstep>
   <time name="diag">    5.72    5.72</time>
   <time name="diis">   24.39   24.39</time>
   <time name="orth">    1.09    1.09</time>
   <time name="total">   33.75   33.75</time>
   <energy>
    <i name="e_fr_energy">   -877.48969160 </i>
    <i name="e_wo_entrp">   -877.43332559 </i>
    <i name="e_0_energy">   -877.47090293 </i>
   </energy>
  </scstep>
  <scstep>
   <time name="diag">    5.64    5.64</time>
   <time name="diis">   26.79   26.80</time>
   <time name="orth">    1.11    1.11</time>
   <time name="total">   35.96   35.97</time>
   <energy>
    <i name="e_fr_energy">   -880.32002251 </i>
    <i name="e_wo_entrp">   -880.18434426 </i>
    <i name="e_0_energy">   -880.27479643 </i>
   </energy>
  </scstep>
  <scstep>
   <time name="diag">    5.58    5.58</time>
   <time name="diis">   26.26   26.28</time>
   <time name="orth">    1.15    1.15</time>
   <time name="total">   35.43   35.46</time>
   <energy>
    <i name="e_fr_energy">   -879.42985970 </i>
    <i name="e_wo_entrp">   -879.35946113 </i>
    <i name="e_0_energy">   -879.40639351 </i>
   </energy>
  </scstep>
  <scstep>
   <time name="diag">    5.39    5.40</time>
   <time name="diis">   33.40   33.43</time>
   <time name="orth">    1.15    1.16</time>
   <time name="total">   42.56   42.59</time>
   <energy>
    <i name="e_fr_energy">   -879.77198149 </i>
    <i name="e_wo_entrp">   -879.69879077 </i>
    <i name="e_0_energy">   -879.74758458 </i>
   </energy>
  </scstep>
  <scstep>
   <time name="diag">    5.47    5.47</time>
   <time name="diis">   30.00   30.00</time>
   <time name="orth">    1.19    1.19</time>
   <time name="total">   39.27   39.27</time>
   <energy>
    <i name="e_fr_energy">   -879.58260819 </i>
    <i name="e_wo_entrp">   -879.49937005 </i>
    <i name="e_0_energy">   -879.55486214 </i>
   </energy>
  </scstep>
  <scstep>
   <time name="diag">    5.38    5.38</time>
   <time name="diis">   31.26   31.28</time>
   <time name="orth">    1.19    1.19</time>
   <time name="total">   40.59   40.62</time>
   <energy>
    <i name="e_fr_energy">   -879.59033622 </i>
    <i name="e_wo_entrp">   -879.51058036 </i>
    <i name="e_0_energy">   -879.56375093 </i>
   </energy>
  </scstep>
  <scstep>
   <time name="diag">    5.56    5.56</time>
   <time name="diis">   28.32   28.33</time>
   <time name="orth">    1.19    1.19</time>
   <time name="total">   37.83   37.85</time>
   <energy>
    <i name="e_fr_energy">   -879.58797073 </i>
    <i name="e_wo_entrp">   -879.51144368 </i>
    <i name="e_0_energy">   -879.56246171 </i>
   </energy>
  </scstep>
  <scstep>
   <time name="diag">    5.54    5.54</time>
   <time name="diis">   34.28   34.28</time>
   <time name="orth">    1.19    1.19</time>
   <time name="total">   43.79   43.80</time>
   <energy>
    <i name="e_fr_energy">   -879.58851416 </i>
    <i name="e_wo_entrp">   -879.51327932 </i>
    <i name="e_0_energy">   -879.56343588 </i>
   </energy>
  </scstep>
  <scstep>
   <time name="diag">    5.60    5.60</time>
   <time name="diis">   32.77   32.79</time>
   <time name="orth">    1.19    1.19</time>
   <time name="total">   42.21   42.23</time>
   <energy>
    <i name="e_fr_energy">   -879.58856489 </i>
    <i name="e_wo_entrp">   -879.51377463 </i>
    <i name="e_0_energy">   -879.56363480 </i>
   </energy>
  </scstep>
  <scstep>
   <time name="diag">    5.50    5.50</time>
   <time name="diis">   30.64   30.65</time>
   <time name="orth">    1.20    1.20</time>
   <time name="total">   40.09   40.10</time>
   <energy>
    <i name="e_fr_energy">   -879.58850796 </i>
    <i name="e_wo_entrp">   -879.51428022 </i>
    <i name="e_0_energy">   -879.56376538 </i>
   </energy>
  </scstep>
  <scstep>
   <time name="diag">    5.69    5.70</time>
   <time name="diis">   23.92   23.93</time>
   <time name="orth">    1.20    1.20</time>
   <time name="total">   33.57   33.59</time>
   <energy>
    <i name="e_fr_energy">   -879.58847109 </i>
    <i name="e_wo_entrp">   -879.51463004 </i>
    <i name="e_0_energy">   -879.56385741 </i>
   </energy>
  </scstep>
  <scstep>
   <time name="diag">    5.81    5.81</time>
   <time name="diis">   17.07   17.10</time>
   <time name="orth">    1.20    1.20</time>
   <time name="total">   26.84   26.87</time>
   <energy>
    <i name="e_fr_energy">   -879.58843994 </i>
    <i name="e_wo_entrp">   -879.51494064 </i>
    <i name="e_0_energy">   -879.56394017 </i>
   </energy>
  </scstep>
  <scstep>
   <time name="diag">    5.82    5.82</time>
   <time name="diis">   16.09   16.10</time>
   <time name="orth">    1.20    1.20</time>
   <time name="total">   25.87   25.88</time>
   <energy>
    <i name="e_fr_energy">   -879.58842414 </i>
    <i name="e_wo_entrp">   -879.51511763 </i>
    <i name="e_0_energy">   -879.56398864 </i>
   </energy>
  </scstep>
  <scstep>
   <time name="diag">    5.81    5.81</time>
   <time name="diis">   15.68   15.68</time>
   <time name="orth">    1.20    1.20</time>
   <time name="total">   25.45   25.46</time>
   <energy>
    <i name="e_fr_energy">   -879.58841126 </i>
    <i name="e_wo_entrp">   -879.51527477 </i>
    <i name="e_0_energy">   -879.56403243 </i>
   </energy>
  </scstep>
  <scstep>
   <time name="diag">    5.82    5.83</time>
   <time name="diis">   15.41   15.41</time>
   <time name="orth">    1.20    1.20</time>
   <time name="total">   25.21   25.21</time>
   <energy>
    <i name="e_fr_energy">   -879.58840036 </i>
    <i name="e_wo_entrp">   -879.51540929 </i>
    <i name="e_0_energy">   -879.56407000 </i>
   </energy>
  </scstep>
  <scstep>
   <time name="diag">    5.81    5.81</time>
   <time name="diis">   15.02   15.02</time>
   <time name="orth">    1.21    1.21</time>
   <time name="total">   24.78   24.78</time>
   <energy>
    <i name="e_fr_energy">   -879.58838152 </i>
    <i name="e_wo_entrp">   -879.51562836 </i>
    <i name="e_0_energy">   -879.56413046 </i>
   </energy>
  </scstep>
  <scstep>
   <time name="diag">    5.81    5.81</time>
   <time name="diis">   14.81   14.83</time>
   <time name="orth">    1.19    1.19</time>
   <time name="total">   24.56   24.57</time>
   <energy>
    <i name="e_fr_energy">   -879.58836935 </i>
    <i name="e_wo_entrp">   -879.51577171 </i>
    <i name="e_0_energy">   -879.56417014 </i>
   </energy>
  </scstep>
  <scstep>
   <time name="diag">    5.81    5.82</time>
   <time name="diis">   13.98   13.98</time>
   <time name="orth">    1.20    1.20</time>
   <time name="total">   23.70   23.71</time>
   <energy>
    <i name="e_fr_energy">   -879.58836138 </i>
    <i name="e_wo_entrp">   -879.51587191 </i>
    <i name="e_0_energy">   -879.56419822 </i>
   </energy>
  </scstep>
  <scstep>
   <time name="diag">    5.80    5.80</time>
   <time name="diis">   13.87   13.87</time>
   <time name="orth">    1.20    1.20</time>
   <time name="total">   23.56   23.56</time>
   <energy>
    <i name="e_fr_energy">   -879.58835486 </i>
    <i name="e_wo_entrp">   -879.51595594 </i>
    <i name="e_0_energy">   -879.56422188 </i>
   </energy>
  </scstep>
  <scstep>
   <time name="diag">    5.78    5.78</time>
   <time name="diis">   13.21   13.21</time>
   <time name="orth">    1.19    1.19</time>
   <time name="total">   22.87   22.88</time>
   <energy>
    <i name="e_fr_energy">   -879.58834928 </i>
    <i name="e_wo_entrp">   -879.51602946 </i>
    <i name="e_0_energy">   -879.56424267 </i>
   </energy>
  </scstep>
  <scstep>
   <time name="diag">    5.74    5.74</time>
   <time name="diis">   13.24   13.26</time>
   <time name="orth">    1.19    1.19</time>
   <time name="total">   22.82   22.84</time>
   <energy>
    <i name="e_fr_energy">   -879.58834419 </i>
    <i name="e_wo_entrp">   -879.51609742 </i>
    <i name="e_0_energy">   -879.56426194 </i>
   </energy>
  </scstep>
  <scstep>
   <time name="diag">    5.74    5.75</time>
   <time name="diis">   12.76   12.76</time>
   <time name="orth">    1.14    1.14</time>
   <time name="total">   22.30   22.32</time>
   <energy>
    <i name="e_fr_energy">   -879.58833958 </i>
    <i name="e_wo_entrp">   -879.51615867 </i>
    <i name="e_0_energy">   -879.56427928 </i>
   </energy>
  </scstep>
  <scstep>
   <time name="diag">    5.68    5.69</time>
   <time name="diis">   12.24   12.26</time>
   <time name="orth">    1.15    1.15</time>
   <time name="total">   21.69   21.72</time>
   <energy>
    <i name="e_fr_energy">   -879.58833530 </i>
    <i name="e_wo_entrp">   -879.51621585 </i>
    <i name="e_0_energy">   -879.56429549 </i>
   </energy>
  </scstep>
  <scstep>
   <time name="diag">    5.68    5.68</time>
   <time name="diis">   12.05   12.05</time>
   <time name="orth">    1.16    1.16</time>
   <time name="total">   21.47   21.48</time>
   <energy>
    <i name="e_fr_energy">   -879.58833138 </i>
    <i name="e_wo_entrp">   -879.51626846 </i>
    <i name="e_0_energy">   -879.56431040 </i>
   </energy>
  </scstep>
  <scstep>
   <time name="diag">    5.63    5.63</time>
   <time name="diis">   11.89   11.89</time>
   <time name="orth">    1.17    1.17</time>
   <time name="total">   21.22   21.23</time>
   <energy>
    <i name="e_fr_energy">   -879.58832774 </i>
    <i name="e_wo_entrp">   -879.51631743 </i>
    <i name="e_0_energy">   -879.56432430 </i>
   </energy>
  </scstep>
  <scstep>
   <time name="diag">    5.62    5.62</time>
   <time name="diis">   11.67   11.68</time>
   <time name="orth">    1.18    1.18</time>
   <time name="total">   21.00   21.00</time>
   <energy>
    <i name="e_fr_energy">   -879.58832439 </i>
    <i name="e_wo_entrp">   -879.51636243 </i>
    <i name="e_0_energy">   -879.56433707 </i>
   </energy>
  </scstep>
  <scstep>
   <time name="diag">    5.59    5.59</time>
   <time name="diis">   11.49   11.49</time>
   <time name="orth">    1.19    1.19</time>
   <time name="total">   20.82   20.83</time>
   <energy>
    <i name="e_fr_energy">   -879.58832129 </i>
    <i name="e_wo_entrp">   -879.51640408 </i>
    <i name="e_0_energy">   -879.56434889 </i>
   </energy>
  </scstep>
  <scstep>
   <time name="diag">    5.60    5.60</time>
   <time name="diis">   11.40   11.41</time>
   <time name="orth">    1.20    1.20</time>
   <time name="total">   20.72   20.73</time>
   <energy>
    <i name="e_fr_energy">   -879.58831845 </i>
    <i name="e_wo_entrp">   -879.51644221 </i>
    <i name="e_0_energy">   -879.56435971 </i>
   </energy>
  </scstep>
  <scstep>
   <time name="diag">    5.50    5.50</time>
   <time name="diis">   11.45   11.46</time>
   <time name="orth">    1.19    1.19</time>
   <time name="total">   20.72   20.73</time>
   <energy>
    <i name="e_fr_energy">   -879.58831582 </i>
    <i name="e_wo_entrp">   -879.51647747 </i>
    <i name="e_0_energy">   -879.56436971 </i>
   </energy>
  </scstep>
  <scstep>
   <time name="diag">    5.54    5.55</time>
   <time name="diis">   11.14   11.15</time>
   <time name="orth">    1.19    1.19</time>
   <time name="total">   20.47   20.49</time>
   <energy>
    <i name="e_fr_energy">   -879.58831341 </i>
    <i name="e_wo_entrp">   -879.51650997 </i>
    <i name="e_0_energy">   -879.56437893 </i>
   </energy>
  </scstep>
  <scstep>
   <time name="diag">    5.49    5.50</time>
   <time name="diis">   11.35   11.36</time>
   <time name="orth">    1.19    1.19</time>
   <time name="total">   20.66   20.67</time>
   <energy>
    <i name="e_fr_energy">   -879.58831119 </i>
    <i name="e_wo_entrp">   -879.51653990 </i>
    <i name="e_0_energy">   -879.56438742 </i>
   </energy>
  </scstep>
  <scstep>
   <time name="diag">    5.47    5.47</time>
   <time name="diis">   11.06   11.07</time>
   <time name="orth">    1.19    1.19</time>
   <time name="total">   20.36   20.37</time>
   <energy>
    <i name="e_fr_energy">   -879.58830915 </i>
    <i name="e_wo_entrp">   -879.51656738 </i>
    <i name="e_0_energy">   -879.56439523 </i>
   </energy>
  </scstep>
  <scstep>
   <time name="diag">    5.50    5.50</time>
   <time name="diis">   10.98   10.99</time>
   <time name="orth">    1.19    1.19</time>
   <time name="total">   20.31   20.31</time>
   <energy>
    <i name="e_fr_energy">   -879.58830728 </i>
    <i name="e_wo_entrp">   -879.51659276 </i>
    <i name="e_0_energy">   -879.56440244 </i>
   </energy>
  </scstep>
  <scstep>
   <time name="diag">    5.50    5.50</time>
   <time name="diis">   10.85   10.85</time>
   <time name="orth">    1.20    1.20</time>
   <time name="total">   20.20   20.20</time>
   <energy>
    <i name="e_fr_energy">   -879.58830557 </i>
    <i name="e_wo_entrp">   -879.51661597 </i>
    <i name="e_0_energy">   -879.56440903 </i>
   </energy>
  </scstep>
  <scstep>
   <time name="diag">    5.45    5.45</time>
   <time name="diis">   11.08   11.09</time>
   <time name="orth">    1.19    1.19</time>
   <time name="total">   20.37   20.37</time>
   <energy>
    <i name="e_fr_energy">   -879.58830399 </i>
    <i name="e_wo_entrp">   -879.51663719 </i>
    <i name="e_0_energy">   -879.56441505 </i>
   </energy>
  </scstep>
  <scstep>
   <time name="diag">    5.46    5.47</time>
   <time name="diis">   10.75   10.76</time>
   <time name="orth">    1.19    1.19</time>
   <time name="total">   20.03   20.04</time>
   <energy>
    <i name="e_fr_energy">   -879.58830254 </i>
    <i name="e_wo_entrp">   -879.51665674 </i>
    <i name="e_0_energy">   -879.56442061 </i>
   </energy>
  </scstep>
  <scstep>
   <time name="diag">    5.48    5.48</time>
   <time name="diis">   10.67   10.67</time>
   <time name="orth">    1.18    1.18</time>
   <time name="total">   19.98   19.98</time>
   <energy>
    <i name="e_fr_energy">   -879.58830125 </i>
    <i name="e_wo_entrp">   -879.51667515 </i>
    <i name="e_0_energy">   -879.56442588 </i>
   </energy>
  </scstep>
  <scstep>
   <time name="diag">    5.43    5.43</time>
   <time name="diis">   10.93   10.94</time>
   <time name="orth">    1.19    1.19</time>
   <time name="total">   20.20   20.22</time>
   <energy>
    <i name="e_fr_energy">   -879.58830006 </i>
    <i name="e_wo_entrp">   -879.51669201 </i>
    <i name="e_0_energy">   -879.56443071 </i>
   </energy>
  </scstep>
  <scstep>
   <time name="diag">    5.44    5.44</time>
   <time name="diis">   11.44   11.45</time>
   <time name="orth">    1.19    1.19</time>
   <time name="total">   20.74   20.75</time>
   <energy>
    <i name="e_fr_energy">   -879.58829896 </i>
    <i name="e_wo_entrp">   -879.51670741 </i>
    <i name="e_0_energy">   -879.56443511 </i>
   </energy>
  </scstep>
  <scstep>
   <time name="diag">    5.49    5.49</time>
   <time name="diis">   11.28   11.29</time>
   <time name="orth">    1.19    1.19</time>
   <time name="total">   18.31   18.32</time>
   <energy>
    <i name="alphaZ">   7300.31925852 </i>
    <i name="ewald"> -66232.83996889 </i>
    <i name="hartreedc">  -9348.89231564 </i>
    <i name="XCdc">    360.38912592 </i>
    <i name="pawpsdc">  58036.89587939 </i>
    <i name="pawaedc"> -58972.52131057 </i>
    <i name="eentropy">     -0.07157655 </i>
    <i name="bandstr">   3774.87690326 </i>
    <i name="atom">  64202.25570658 </i>
    <i name="e_fr_energy">   -879.58829797 </i>
    <i name="e_wo_entrp">   -879.51672142 </i>
    <i name="e_0_energy">   -879.56443912 </i>
   </energy>
  </scstep>
  <structure>
   <crystal>
    <varray name="basis" >
     <v>      10.33484705       0.00000000       0.00000000 </v>
     <v>       0.00000000      10.33484705       0.00000000 </v>
     <v>       0.00000000       0.00000000      10.33484705 </v>
    </varray>
    <i name="volume">   1103.85533447 </i>
    <varray name="rec_basis" >
     <v>       0.09676002       0.00000000       0.00000000 </v>
     <v>       0.00000000       0.09676002       0.00000000 </v>
     <v>       0.00000000       0.00000000       0.09676002 </v>
    </varray>
   </crystal>
   <varray name="positions" >
    <v>       0.00000000       0.00000000       0.00000000 </v>
    <v>       0.00000000       0.16666893       0.16666893 </v>
    <v>       0.16666893       0.00000000       0.16666893 </v>
    <v>       0.16666893       0.16666893       0.00000000 </v>
    <v>       0.33333106       0.00000000       0.00000000 </v>
    <v>       0.33333107       0.16666893       0.16666893 </v>
    <v>       0.50000000       0.00000000       0.16666894 </v>
    <v>       0.50000000       0.16666894       0.00000000 </v>
    <v>       0.66666897       0.00000000       0.00000000 </v>
    <v>       0.66666896       0.16666893       0.16666893 </v>
    <v>       0.83333104       0.00000000       0.16666893 </v>
    <v>       0.83333104       0.16666893       0.00000000 </v>
    <v>       0.00000000       0.33333106       0.00000000 </v>
    <v>       0.00000000       0.50000000       0.16666894 </v>
    <v>       0.16666893       0.33333107       0.16666893 </v>
    <v>       0.16666894       0.50000000       0.00000000 </v>
    <v>       0.33333107       0.33333107       0.00000000 </v>
    <v>       0.33333107       0.50000000       0.16666893 </v>
    <v>       0.50000000       0.33333107       0.16666893 </v>
    <v>       0.50000000       0.50000000       0.00000000 </v>
    <v>       0.66666896       0.33333107       0.00000000 </v>
    <v>       0.66666896       0.50000000       0.16666893 </v>
    <v>       0.83333104       0.33333107       0.16666893 </v>
    <v>       0.83333103       0.50000000       0.00000000 </v>
    <v>       0.00000000       0.66666897       0.00000000 </v>
    <v>       0.00000000       0.83333104       0.16666893 </v>
    <v>       0.16666893       0.66666896       0.16666893 </v>
    <v>       0.16666893       0.83333104       0.00000000 </v>
    <v>       0.33333107       0.66666896       0.00000000 </v>
    <v>       0.33333107       0.83333104       0.16666893 </v>
    <v>       0.50000000       0.66666896       0.16666893 </v>
    <v>       0.50000000       0.83333103       0.00000000 </v>
    <v>       0.66666896       0.66666896       0.00000000 </v>
    <v>       0.66666896       0.83333104       0.16666893 </v>
    <v>       0.83333104       0.66666896       0.16666893 </v>
    <v>       0.83333104       0.83333104       0.00000000 </v>
    <v>       0.00000000       0.00000000       0.33333106 </v>
    <v>       0.00000000       0.16666894       0.50000000 </v>
    <v>       0.16666894       0.00000000       0.50000000 </v>
    <v>       0.16666893       0.16666893       0.33333107 </v>
    <v>       0.33333107       0.00000000       0.33333107 </v>
    <v>       0.33333107       0.16666893       0.50000000 </v>
    <v>       0.50000000       0.00000000       0.50000000 </v>
    <v>       0.50000000       0.16666893       0.33333107 </v>
    <v>       0.66666896       0.00000000       0.33333107 </v>
    <v>       0.66666896       0.16666893       0.50000000 </v>
    <v>       0.83333103       0.00000000       0.50000000 </v>
    <v>       0.83333104       0.16666893       0.33333107 </v>
    <v>       0.00000000       0.33333107       0.33333107 </v>
    <v>       0.00000000       0.50000000       0.50000000 </v>
    <v>       0.16666893       0.33333107       0.50000000 </v>
    <v>       0.16666893       0.50000000       0.33333107 </v>
    <v>       0.33333107       0.33333107       0.33333107 </v>
    <v>       0.33333106       0.50000000       0.50000000 </v>
    <v>       0.50000000       0.33333106       0.50000000 </v>
    <v>       0.50000000       0.50000000       0.33333106 </v>
    <v>       0.66666896       0.33333107       0.33333107 </v>
    <v>       0.66666897       0.50000000       0.50000000 </v>
    <v>       0.83333104       0.33333107       0.50000000 </v>
    <v>       0.83333104       0.50000000       0.33333107 </v>
    <v>       0.00000000       0.66666896       0.33333107 </v>
    <v>       0.00000000       0.83333103       0.50000000 </v>
    <v>       0.16666893       0.66666896       0.50000000 </v>
    <v>       0.16666893       0.83333104       0.33333107 </v>
    <v>       0.33333107       0.66666896       0.33333107 </v>
    <v>       0.33333107       0.83333104       0.50000000 </v>
    <v>       0.50000000       0.66666897       0.50000000 </v>
    <v>       0.50000000       0.83333104       0.33333107 </v>
    <v>       0.66666896       0.66666896       0.33333107 </v>
    <v>       0.66666896       0.83333104       0.50000000 </v>
    <v>       0.83333104       0.66666896       0.50000000 </v>
    <v>       0.83333104       0.83333104       0.33333107 </v>
    <v>       0.00000000       0.00000000       0.66666897 </v>
    <v>       0.00000000       0.16666893       0.83333104 </v>
    <v>       0.16666893       0.00000000       0.83333104 </v>
    <v>       0.16666893       0.16666893       0.66666896 </v>
    <v>       0.33333107       0.00000000       0.66666896 </v>
    <v>       0.33333107       0.16666893       0.83333104 </v>
    <v>       0.50000000       0.00000000       0.83333103 </v>
    <v>       0.50000000       0.16666893       0.66666896 </v>
    <v>       0.66666896       0.00000000       0.66666896 </v>
    <v>       0.66666896       0.16666893       0.83333104 </v>
    <v>       0.83333104       0.00000000       0.83333104 </v>
    <v>       0.83333104       0.16666893       0.66666896 </v>
    <v>       0.00000000       0.33333107       0.66666896 </v>
    <v>       0.00000000       0.50000000       0.83333103 </v>
    <v>       0.16666893       0.33333107       0.83333104 </v>
    <v>       0.16666893       0.50000000       0.66666896 </v>
    <v>       0.33333107       0.33333107       0.66666896 </v>
    <v>       0.33333107       0.50000000       0.83333104 </v>
    <v>       0.50000000       0.33333107       0.83333104 </v>
    <v>       0.50000000       0.50000000       0.66666897 </v>
    <v>       0.66666896       0.33333107       0.66666896 </v>
    <v>       0.66666896       0.50000000       0.83333104 </v>
    <v>       0.83333104       0.33333107       0.83333104 </v>
    <v>       0.83333104       0.50000000       0.66666896 </v>
    <v>       0.00000000       0.66666896       0.66666896 </v>
    <v>       0.00000000       0.83333104       0.83333104 </v>
    <v>       0.16666893       0.66666896       0.83333104 </v>
    <v>       0.16666893       0.83333104       0.66666896 </v>
    <v>       0.33333107       0.66666896       0.66666896 </v>
    <v>       0.33333107       0.83333104       0.83333104 </v>
    <v>       0.50000000       0.66666896       0.83333104 </v>
    <v>       0.50000000       0.83333104       0.66666896 </v>
    <v>       0.66666896       0.66666896       0.66666896 </v>
    <v>       0.66666896       0.83333104       0.83333104 </v>
    <v>       0.83333104       0.66666896       0.83333104 </v>
    <v>       0.83333104       0.83333104       0.66666896 </v>
   </varray>
  </structure>
  <varray name="forces" >
   <v>       0.00000000       0.00000000       0.00000000 </v>
   <v>      -0.00000000      -0.00000000       0.00000000 </v>
   <v>       0.00000000       0.00000000       0.00000000 </v>
   <v>       0.00000000       0.00000000      -0.00000000 </v>
   <v>      -0.00000000       0.00000000       0.00000000 </v>
   <v>      -0.00000000      -0.00000000       0.00000000 </v>
   <v>       0.00000000       0.00000000       0.00000000 </v>
   <v>       0.00000000      -0.00000000      -0.00000000 </v>
   <v>       0.00000000      -0.00000000       0.00000000 </v>
   <v>      -0.00000000      -0.00000000      -0.00000000 </v>
   <v>      -0.00000000      -0.00000000       0.00000000 </v>
   <v>      -0.00000000      -0.00000000       0.00000000 </v>
   <v>      -0.00000000      -0.00000000      -0.00000000 </v>
   <v>      -0.00000000       0.00000000       0.00000000 </v>
   <v>       0.00000000      -0.00000000      -0.00000000 </v>
   <v>      -0.00000000      -0.00000000       0.00000000 </v>
   <v>      -0.00000000      -0.00000000       0.00000000 </v>
   <v>       0.00000000       0.00000000       0.00000000 </v>
   <v>       0.00000000      -0.00000000      -0.00000000 </v>
   <v>       0.00000000       0.00000000      -0.00000000 </v>
   <v>      -0.00000000       0.00000000       0.00000000 </v>
   <v>       0.00000000      -0.00000000       0.00000000 </v>
   <v>       0.00000000      -0.00000000       0.00000000 </v>
   <v>      -0.00000000      -0.00000000      -0.00000000 </v>
   <v>       0.00000000      -0.00000000      -0.00000000 </v>
   <v>      -0.00000000       0.00000000      -0.00000000 </v>
   <v>      -0.00000000       0.00000000      -0.00000000 </v>
   <v>       0.00000000      -0.00000000       0.00000000 </v>
   <v>      -0.00000000      -0.00000000       0.00000000 </v>
   <v>      -0.00000000       0.00000000      -0.00000000 </v>
   <v>      -0.00000000       0.00000000       0.00000000 </v>
   <v>      -0.00000000       0.00000000       0.00000000 </v>
   <v>      -0.00000000      -0.00000000      -0.00000000 </v>
   <v>       0.00000000       0.00000000      -0.00000000 </v>
   <v>       0.00000000       0.00000000      -0.00000000 </v>
   <v>       0.00000000       0.00000000      -0.00000000 </v>
   <v>      -0.00000000       0.00000000      -0.00000000 </v>
   <v>       0.00000000       0.00000000      -0.00000000 </v>
   <v>       0.00000000       0.00000000       0.00000000 </v>
   <v>       0.00000000       0.00000000       0.00000000 </v>
   <v>      -0.00000000       0.00000000      -0.00000000 </v>
   <v>      -0.00000000       0.00000000      -0.00000000 </v>
   <v>       0.00000000      -0.00000000       0.00000000 </v>
   <v>      -0.00000000       0.00000000       0.00000000 </v>
   <v>       0.00000000      -0.00000000      -0.00000000 </v>
   <v>       0.00000000      -0.00000000      -0.00000000 </v>
   <v>       0.00000000      -0.00000000       0.00000000 </v>
   <v>      -0.00000000       0.00000000       0.00000000 </v>
   <v>      -0.00000000       0.00000000       0.00000000 </v>
   <v>      -0.00000000       0.00000000       0.00000000 </v>
   <v>      -0.00000000      -0.00000000      -0.00000000 </v>
   <v>       0.00000000      -0.00000000      -0.00000000 </v>
   <v>      -0.00000000       0.00000000       0.00000000 </v>
   <v>       0.00000000       0.00000000       0.00000000 </v>
   <v>      -0.00000000      -0.00000000      -0.00000000 </v>
   <v>      -0.00000000       0.00000000      -0.00000000 </v>
   <v>      -0.00000000       0.00000000      -0.00000000 </v>
   <v>       0.00000000      -0.00000000       0.00000000 </v>
   <v>       0.00000000       0.00000000       0.00000000 </v>
   <v>       0.00000000      -0.00000000      -0.00000000 </v>
   <v>      -0.00000000       0.00000000      -0.00000000 </v>
   <v>       0.00000000       0.00000000      -0.00000000 </v>
   <v>       0.00000000       0.00000000      -0.00000000 </v>
   <v>      -0.00000000      -0.00000000       0.00000000 </v>
   <v>      -0.00000000      -0.00000000      -0.00000000 </v>
   <v>      -0.00000000       0.00000000       0.00000000 </v>
   <v>      -0.00000000       0.00000000      -0.00000000 </v>
   <v>       0.00000000      -0.00000000       0.00000000 </v>
   <v>      -0.00000000      -0.00000000       0.00000000 </v>
   <v>       0.00000000       0.00000000      -0.00000000 </v>
   <v>       0.00000000      -0.00000000      -0.00000000 </v>
   <v>      -0.00000000      -0.00000000       0.00000000 </v>
   <v>       0.00000000       0.00000000       0.00000000 </v>
   <v>      -0.00000000      -0.00000000       0.00000000 </v>
   <v>      -0.00000000       0.00000000       0.00000000 </v>
   <v>      -0.00000000       0.00000000      -0.00000000 </v>
   <v>      -0.00000000       0.00000000       0.00000000 </v>
   <v>      -0.00000000      -0.00000000       0.00000000 </v>
   <v>      -0.00000000       0.00000000      -0.00000000 </v>
   <v>       0.00000000      -0.00000000      -0.00000000 </v>
   <v>      -0.00000000       0.00000000       0.00000000 </v>
   <v>       0.00000000      -0.00000000       0.00000000 </v>
   <v>       0.00000000       0.00000000      -0.00000000 </v>
   <v>       0.00000000      -0.00000000      -0.00000000 </v>
   <v>       0.00000000       0.00000000      -0.00000000 </v>
   <v>       0.00000000       0.00000000      -0.00000000 </v>
   <v>       0.00000000      -0.00000000      -0.00000000 </v>
   <v>       0.00000000      -0.00000000       0.00000000 </v>
   <v>       0.00000000       0.00000000       0.00000000 </v>
   <v>      -0.00000000       0.00000000       0.00000000 </v>
   <v>       0.00000000      -0.00000000      -0.00000000 </v>
   <v>      -0.00000000       0.00000000       0.00000000 </v>
   <v>      -0.00000000       0.00000000      -0.00000000 </v>
   <v>       0.00000000      -0.00000000      -0.00000000 </v>
   <v>      -0.00000000      -0.00000000       0.00000000 </v>
   <v>      -0.00000000      -0.00000000      -0.00000000 </v>
   <v>      -0.00000000       0.00000000       0.00000000 </v>
   <v>      -0.00000000       0.00000000       0.00000000 </v>
   <v>      -0.00000000       0.00000000       0.00000000 </v>
   <v>       0.00000000      -0.00000000      -0.00000000 </v>
   <v>       0.00000000      -0.00000000       0.00000000 </v>
   <v>      -0.00000000       0.00000000      -0.00000000 </v>
   <v>       0.00000000       0.00000000      -0.00000000 </v>
   <v>      -0.00000000       0.00000000       0.00000000 </v>
   <v>      -0.00000000      -0.00000000      -0.00000000 </v>
   <v>       0.00000000       0.00000000      -0.00000000 </v>
   <v>       0.00000000      -0.00000000       0.00000000 </v>
   <v>      -0.00000000      -0.00000000      -0.00000000 </v>
  </varray>
  <varray name="stress" >
   <v>       6.03469315       0.00000000       0.00000000 </v>
   <v>       0.00000000       6.03469315      -0.00000000 </v>
   <v>       0.00000000       0.00000000       6.03469315 </v>
  </varray>
  <energy>
   <i name="e_fr_energy">   -879.58829797 </i>
   <i name="e_wo_entrp">   -879.56443912 </i>
   <i name="e_0_energy">     -0.07157655 </i>
  </energy>
  <time name="totalsc"> 1374.56 1375.19</time>
 </calculation>
 <calculation>
  <scstep>
   <time name="dav">   43.21   43.24</time>
   <time name="total">   45.78   45.81</time>
   <energy>
    <i name="alphaZ">   7259.79490024 </i>
    <i name="ewald"> -66110.05880345 </i>
    <i name="hartreedc">  -9331.56132691 </i>
    <i name="XCdc">    354.88433003 </i>
    <i name="pawpsdc">  58036.89556286 </i>
    <i name="pawaedc"> -58972.52098557 </i>
    <i name="eentropy">     -0.08382684 </i>
    <i name="bandstr">   3680.56129226 </i>
    <i name="atom">  64202.25570658 </i>
    <i name="e_fr_energy">   -879.83315079 </i>
    <i name="e_wo_entrp">   -879.74932396 </i>
    <i name="e_0_energy">   -879.80520851 </i>
   </energy>
  </scstep>
  <scstep>
   <time name="diag">    5.35    5.36</time>
   <time name="diis">   22.15   22.16</time>
   <time name="orth">    1.16    1.16</time>
   <time name="total">   31.33   31.35</time>
   <energy>
    <i name="e_fr_energy">   -879.58955721 </i>
    <i name="e_wo_entrp">   -879.52419753 </i>
    <i name="e_0_energy">   -879.56777065 </i>
   </energy>
  </scstep>
  <scstep>
   <time name="diag">    5.54    5.54</time>
   <time name="diis">   26.02   26.04</time>
   <time name="orth">    1.16    1.16</time>
   <time name="total">   35.38   35.40</time>
   <energy>
    <i name="e_fr_energy">   -879.58755634 </i>
    <i name="e_wo_entrp">   -879.52077937 </i>
    <i name="e_0_energy">   -879.56529735 </i>
   </energy>
  </scstep>
  <scstep>
   <time name="diag">    5.56    5.57</time>
   <time name="diis">   24.28   24.31</time>
   <time name="orth">    1.17    1.17</time>
   <time name="total">   33.80   33.84</time>
   <energy>
    <i name="e_fr_energy">   -879.58432832 </i>
    <i name="e_wo_entrp">   -879.51470935 </i>
    <i name="e_0_energy">   -879.56112200 </i>
   </energy>
  </scstep>
  <scstep>
   <time name="diag">    5.70    5.70</time>
   <time name="diis">   24.63   24.65</time>
   <time name="orth">    1.16    1.16</time>
   <time name="total">   34.26   34.28</time>
   <energy>
    <i name="e_fr_energy">   -879.58565878 </i>
    <i name="e_wo_entrp">   -879.51635655 </i>
    <i name="e_0_energy">   -879.56255804 </i>
   </energy>
  </scstep>
  <scstep>
   <time name="diag">    5.73    5.73</time>
   <time name="diis">   25.23   25.23</time>
   <time name="orth">    1.16    1.16</time>
   <time name="total">   34.88   34.89</time>
   <energy>
    <i name="e_fr_energy">   -879.58216789 </i>
    <i name="e_wo_entrp">   -879.51492166 </i>
    <i name="e_0_energy">   -879.55975248 </i>
   </energy>
  </scstep>
  <scstep>
   <time name="diag">    5.69    5.70</time>
   <time name="diis">   29.61   29.63</time>
   <time name="orth">    1.17    1.17</time>
   <time name="total">   39.22   39.25</time>
   <energy>
    <i name="e_fr_energy">   -879.58228782 </i>
    <i name="e_wo_entrp">   -879.51490341 </i>
    <i name="e_0_energy">   -879.55982635 </i>
   </energy>
  </scstep>
  <scstep>
   <time name="diag">    5.80    5.81</time>
   <time name="diis">   25.17   25.17</time>
   <time name="orth">    1.17    1.17</time>
   <time name="total">   34.94   34.94</time>
   <energy>
    <i name="e_fr_energy">   -879.58223733 </i>
    <i name="e_wo_entrp">   -879.51467231 </i>
    <i name="e_0_energy">   -879.55971566 </i>
   </energy>
  </scstep>
  <scstep>
   <time name="diag">    5.67    5.67</time>
   <time name="diis">   24.26   24.29</time>
   <time name="orth">    1.17    1.17</time>
   <time name="total">   33.88   33.91</time>
   <energy>
    <i name="e_fr_energy">   -879.58224992 </i>
    <i name="e_wo_entrp">   -879.51451750 </i>
    <i name="e_0_energy">   -879.55967245 </i>
   </energy>
  </scstep>
  <scstep>
   <time name="diag">    5.71    5.71</time>
   <time name="diis">   28.09   28.11</time>
   <time name="orth">    1.16    1.16</time>
   <time name="total">   37.81   37.84</time>
   <energy>
    <i name="e_fr_energy">   -879.58225193 </i>
    <i name="e_wo_entrp">   -879.51450715 </i>
    <i name="e_0_energy">   -879.55967033 </i>
   </energy>
  </scstep>
  <scstep>
   <time name="diag">    6.18    6.18</time>
   <time name="diis">   15.86   15.86</time>
   <time name="orth">    1.13    1.13</time>
   <time name="total">   26.11   26.12</time>
   <energy>
    <i name="e_fr_energy">   -879.58225083 </i>
    <i name="e_wo_entrp">   -879.51451082 </i>
    <i name="e_0_energy">   -879.55967082 </i>
   </energy>
  </scstep>
  <scstep>
   <time name="diag">    6.23    6.24</time>
   <time name="diis">   20.76   20.77</time>
   <time name="orth">    1.18    1.18</time>
   <time name="total">   30.93   30.95</time>
   <energy>
    <i name="e_fr_energy">   -879.58224859 </i>
    <i name="e_wo_entrp">   -879.51453539 </i>
    <i name="e_0_energy">   -879.55967752 </i>
   </energy>
  </scstep>
  <scstep>
   <time name="diag">    5.63    5.63</time>
   <time name="diis">   15.15   15.16</time>
   <time name="orth">    1.18    1.18</time>
   <time name="total">   25.04   25.06</time>
   <energy>
    <i name="e_fr_energy">   -879.58224961 </i>
    <i name="e_wo_entrp">   -879.51452647 </i>
    <i name="e_0_energy">   -879.55967523 </i>
   </energy>
  </scstep>
  <scstep>
   <time name="diag">    6.23    6.23</time>
   <time name="diis">   14.63   14.64</time>
   <time name="orth">    1.16    1.16</time>
   <time name="total">   22.47   22.47</time>
   <energy>
    <i name="alphaZ">   7259.79490024 </i>
    <i name="ewald"> -66110.05880345 </i>
    <i name="hartreedc">  -9392.36638757 </i>
    <i name="XCdc">    358.47269922 </i>
    <i name="pawpsdc">  57889.49584184 </i>
    <i name="pawaedc"> -58822.29844770 </i>
    <i name="eentropy">     -0.06772567 </i>
    <i name="bandstr">   3735.18996644 </i>
    <i name="atom">  64202.25570658 </i>
    <i name="e_fr_energy">   -879.58225008 </i>
    <i name="e_wo_entrp">   -879.51452441 </i>
    <i name="e_0_energy">   -879.55967485 </i>
   </energy>
  </scstep>
  <structure>
   <crystal>
    <varray name="basis" >
     <v>      10.35404117       0.00000000       0.00000000 </v>
     <v>       0.00000000      10.35404117      -0.00000000 </v>
     <v>       0.00000000       0.00000000      10.35404117 </v>
    </varray>
    <i name="volume">   1110.01708280 </i>
    <varray name="rec_basis" >
     <v>       0.09658065      -0.00000000      -0.00000000 </v>
     <v>      -0.00000000       0.09658065      -0.00000000 </v>
     <v>      -0.00000000       0.00000000       0.09658065 </v>
    </varray>
   </crystal>
   <varray name="positions" >
    <v>       0.00000000       0.00000000       0.00000000 </v>
    <v>      -0.00000000       0.16666893       0.16666893 </v>
    <v>       0.16666893       0.00000000       0.16666893 </v>
    <v>       0.16666893       0.16666893      -0.00000000 </v>
    <v>       0.33333106       0.00000000       0.00000000 </v>
    <v>       0.33333107       0.16666893       0.16666893 </v>
    <v>       0.50000000       0.00000000       0.16666894 </v>
    <v>       0.50000000       0.16666894      -0.00000000 </v>
    <v>       0.66666897      -0.00000000       0.00000000 </v>
    <v>       0.66666896       0.16666893       0.16666893 </v>
    <v>       0.83333104      -0.00000000       0.16666893 </v>
    <v>       0.83333104       0.16666893       0.00000000 </v>
    <v>      -0.00000000       0.33333106      -0.00000000 </v>
    <v>      -0.00000000       0.50000000       0.16666894 </v>
    <v>       0.16666893       0.33333107       0.16666893 </v>
    <v>       0.16666894       0.50000000       0.00000000 </v>
    <v>       0.33333107       0.33333107       0.00000000 </v>
    <v>       0.33333107       0.50000000       0.16666893 </v>
    <v>       0.50000000       0.33333107       0.16666893 </v>
    <v>       0.50000000       0.50000000      -0.00000000 </v>
    <v>       0.66666896       0.33333107       0.00000000 </v>
    <v>       0.66666896       0.50000000       0.16666893 </v>
    <v>       0.83333104       0.33333107       0.16666893 </v>
    <v>       0.83333103       0.50000000      -0.00000000 </v>
    <v>       0.00000000       0.66666897      -0.00000000 </v>
    <v>      -0.00000000       0.83333104       0.16666893 </v>
    <v>       0.16666893       0.66666896       0.16666893 </v>
    <v>       0.16666893       0.83333104       0.00000000 </v>
    <v>       0.33333107       0.66666896       0.00000000 </v>
    <v>       0.33333107       0.83333104       0.16666893 </v>
    <v>       0.50000000       0.66666896       0.16666893 </v>
    <v>       0.50000000       0.83333103       0.00000000 </v>
    <v>       0.66666896       0.66666896      -0.00000000 </v>
    <v>       0.66666896       0.83333104       0.16666893 </v>
    <v>       0.83333104       0.66666896       0.16666893 </v>
    <v>       0.83333104       0.83333104      -0.00000000 </v>
    <v>      -0.00000000       0.00000000       0.33333106 </v>
    <v>       0.00000000       0.16666894       0.50000000 </v>
    <v>       0.16666894       0.00000000       0.50000000 </v>
    <v>       0.16666893       0.16666893       0.33333107 </v>
    <v>       0.33333107       0.00000000       0.33333107 </v>
    <v>       0.33333107       0.16666893       0.50000000 </v>
    <v>       0.50000000      -0.00000000       0.50000000 </v>
    <v>       0.50000000       0.16666893       0.33333107 </v>
    <v>       0.66666896      -0.00000000       0.33333107 </v>
    <v>       0.66666896       0.16666893       0.50000000 </v>
    <v>       0.83333103      -0.00000000       0.50000000 </v>
    <v>       0.83333104       0.16666893       0.33333107 </v>
    <v>      -0.00000000       0.33333107       0.33333107 </v>
    <v>      -0.00000000       0.50000000       0.50000000 </v>
    <v>       0.16666893       0.33333107       0.50000000 </v>
    <v>       0.16666893       0.50000000       0.33333107 </v>
    <v>       0.33333107       0.33333107       0.33333107 </v>
    <v>       0.33333106       0.50000000       0.50000000 </v>
    <v>       0.50000000       0.33333106       0.50000000 </v>
    <v>       0.50000000       0.50000000       0.33333106 </v>
    <v>       0.66666896       0.33333107       0.33333107 </v>
    <v>       0.66666897       0.50000000       0.50000000 </v>
    <v>       0.83333104       0.33333107       0.50000000 </v>
    <v>       0.83333104       0.50000000       0.33333107 </v>
    <v>      -0.00000000       0.66666896       0.33333107 </v>
    <v>       0.00000000       0.83333103       0.50000000 </v>
    <v>       0.16666893       0.66666896       0.50000000 </v>
    <v>       0.16666893       0.83333104       0.33333107 </v>
    <v>       0.33333107       0.66666896       0.33333107 </v>
    <v>       0.33333107       0.83333104       0.50000000 </v>
    <v>       0.50000000       0.66666897       0.50000000 </v>
    <v>       0.50000000       0.83333104       0.33333107 </v>
    <v>       0.66666896       0.66666896       0.33333107 </v>
    <v>       0.66666896       0.83333104       0.50000000 </v>
    <v>       0.83333104       0.66666896       0.50000000 </v>
    <v>       0.83333104       0.83333104       0.33333107 </v>
    <v>       0.00000000       0.00000000       0.66666897 </v>
    <v>      -0.00000000       0.16666893       0.83333104 </v>
    <v>       0.16666893       0.00000000       0.83333104 </v>
    <v>       0.16666893       0.16666893       0.66666896 </v>
    <v>       0.33333107       0.00000000       0.66666896 </v>
    <v>       0.33333107       0.16666893       0.83333104 </v>
    <v>       0.50000000       0.00000000       0.83333103 </v>
    <v>       0.50000000       0.16666893       0.66666896 </v>
    <v>       0.66666896       0.00000000       0.66666896 </v>
    <v>       0.66666896       0.16666893       0.83333104 </v>
    <v>       0.83333104       0.00000000       0.83333104 </v>
    <v>       0.83333104       0.16666893       0.66666896 </v>
    <v>       0.00000000       0.33333107       0.66666896 </v>
    <v>       0.00000000       0.50000000       0.83333103 </v>
    <v>       0.16666893       0.33333107       0.83333104 </v>
    <v>       0.16666893       0.50000000       0.66666896 </v>
    <v>       0.33333107       0.33333107       0.66666896 </v>
    <v>       0.33333107       0.50000000       0.83333104 </v>
    <v>       0.50000000       0.33333107       0.83333104 </v>
    <v>       0.50000000       0.50000000       0.66666897 </v>
    <v>       0.66666896       0.33333107       0.66666896 </v>
    <v>       0.66666896       0.50000000       0.83333104 </v>
    <v>       0.83333104       0.33333107       0.83333104 </v>
    <v>       0.83333104       0.50000000       0.66666896 </v>
    <v>      -0.00000000       0.66666896       0.66666896 </v>
    <v>      -0.00000000       0.83333104       0.83333104 </v>
    <v>       0.16666893       0.66666896       0.83333104 </v>
    <v>       0.16666893       0.83333104       0.66666896 </v>
    <v>       0.33333107       0.66666896       0.66666896 </v>
    <v>       0.33333107       0.83333104       0.83333104 </v>
    <v>       0.50000000       0.66666896       0.83333104 </v>
    <v>       0.50000000       0.83333104       0.66666896 </v>
    <v>       0.66666896       0.66666896       0.66666896 </v>
    <v>       0.66666896       0.83333104       0.83333104 </v>
    <v>       0.83333104       0.66666896       0.83333104 </v>
    <v>       0.83333104       0.83333104       0.66666896 </v>
   </varray>
  </structure>
  <varray name="forces" >
   <v>       0.00000000       0.00000000      -0.00000000 </v>
   <v>      -0.00000000      -0.00000000       0.00000000 </v>
   <v>      -0.00000000       0.00000000      -0.00000000 </v>
   <v>       0.00000000      -0.00000000      -0.00000000 </v>
   <v>      -0.00000000       0.00000000      -0.00000000 </v>
   <v>       0.00000000       0.00000000       0.00000000 </v>
   <v>      -0.00000000      -0.00000000       0.00000000 </v>
   <v>      -0.00000000      -0.00000000      -0.00000000 </v>
   <v>      -0.00000000      -0.00000000      -0.00000000 </v>
   <v>       0.00000000       0.00000000       0.00000000 </v>
   <v>       0.00000000       0.00000000      -0.00000000 </v>
   <v>       0.00000000       0.00000000       0.00000000 </v>
   <v>      -0.00000000      -0.00000000      -0.00000000 </v>
   <v>      -0.00000000       0.00000000      -0.00000000 </v>
   <v>       0.00000000       0.00000000       0.00000000 </v>
   <v>       0.00000000      -0.00000000       0.00000000 </v>
   <v>       0.00000000      -0.00000000      -0.00000000 </v>
   <v>       0.00000000       0.00000000      -0.00000000 </v>
   <v>       0.00000000       0.00000000      -0.00000000 </v>
   <v>       0.00000000       0.00000000       0.00000000 </v>
   <v>       0.00000000       0.00000000      -0.00000000 </v>
   <v>       0.00000000      -0.00000000      -0.00000000 </v>
   <v>      -0.00000000       0.00000000       0.00000000 </v>
   <v>       0.00000000       0.00000000       0.00000000 </v>
   <v>       0.00000000       0.00000000      -0.00000000 </v>
   <v>      -0.00000000      -0.00000000       0.00000000 </v>
   <v>      -0.00000000      -0.00000000      -0.00000000 </v>
   <v>      -0.00000000       0.00000000      -0.00000000 </v>
   <v>      -0.00000000       0.00000000       0.00000000 </v>
   <v>       0.00000000      -0.00000000       0.00000000 </v>
   <v>       0.00000000      -0.00000000      -0.00000000 </v>
   <v>       0.00000000       0.00000000       0.00000000 </v>
   <v>      -0.00000000      -0.00000000       0.00000000 </v>
   <v>       0.00000000      -0.00000000      -0.00000000 </v>
   <v>       0.00000000      -0.00000000       0.00000000 </v>
   <v>       0.00000000      -0.00000000      -0.00000000 </v>
   <v>      -0.00000000       0.00000000       0.00000000 </v>
   <v>      -0.00000000      -0.00000000       0.00000000 </v>
   <v>      -0.00000000      -0.00000000       0.00000000 </v>
   <v>       0.00000000       0.00000000      -0.00000000 </v>
   <v>       0.00000000       0.00000000       0.00000000 </v>
   <v>       0.00000000       0.00000000       0.00000000 </v>
   <v>      -0.00000000      -0.00000000       0.00000000 </v>
   <v>      -0.00000000       0.00000000       0.00000000 </v>
   <v>      -0.00000000      -0.00000000       0.00000000 </v>
   <v>       0.00000000      -0.00000000       0.00000000 </v>
   <v>      -0.00000000      -0.00000000      -0.00000000 </v>
   <v>       0.00000000       0.00000000       0.00000000 </v>
   <v>      -0.00000000      -0.00000000      -0.00000000 </v>
   <v>      -0.00000000       0.00000000      -0.00000000 </v>
   <v>       0.00000000       0.00000000      -0.00000000 </v>
   <v>      -0.00000000      -0.00000000      -0.00000000 </v>
   <v>       0.00000000      -0.00000000       0.00000000 </v>
   <v>      -0.00000000      -0.00000000      -0.00000000 </v>
   <v>       0.00000000       0.00000000      -0.00000000 </v>
   <v>      -0.00000000       0.00000000      -0.00000000 </v>
   <v>      -0.00000000       0.00000000       0.00000000 </v>
   <v>       0.00000000       0.00000000      -0.00000000 </v>
   <v>       0.00000000      -0.00000000       0.00000000 </v>
   <v>       0.00000000      -0.00000000      -0.00000000 </v>
   <v>       0.00000000       0.00000000       0.00000000 </v>
   <v>      -0.00000000      -0.00000000      -0.00000000 </v>
   <v>      -0.00000000       0.00000000      -0.00000000 </v>
   <v>      -0.00000000      -0.00000000      -0.00000000 </v>
   <v>       0.00000000       0.00000000       0.00000000 </v>
   <v>       0.00000000      -0.00000000      -0.00000000 </v>
   <v>      -0.00000000      -0.00000000      -0.00000000 </v>
   <v>       0.00000000      -0.00000000      -0.00000000 </v>
   <v>       0.00000000      -0.00000000      -0.00000000 </v>
   <v>       0.00000000      -0.00000000       0.00000000 </v>
   <v>      -0.00000000       0.00000000      -0.00000000 </v>
   <v>      -0.00000000      -0.00000000       0.00000000 </v>
   <v>       0.00000000       0.00000000      -0.00000000 </v>
   <v>      -0.00000000      -0.00000000      -0.00000000 </v>
   <v>       0.00000000      -0.00000000      -0.00000000 </v>
   <v>      -0.00000000      -0.00000000       0.00000000 </v>
   <v>      -0.00000000       0.00000000      -0.00000000 </v>
   <v>       0.00000000      -0.00000000      -0.00000000 </v>
   <v>       0.00000000      -0.00000000       0.00000000 </v>
   <v>      -0.00000000       0.00000000      -0.00000000 </v>
   <v>      -0.00000000      -0.00000000       0.00000000 </v>
   <v>       0.00000000      -0.00000000      -0.00000000 </v>
   <v>       0.00000000      -0.00000000       0.00000000 </v>
   <v>       0.00000000       0.00000000       0.00000000 </v>
[...]
       <r>    -1.8045     2.7540     0.3918 </r>
       <r>    -1.7591     3.2787     0.5406 </r>
       <r>    -1.7138     3.6557     0.7065 </r>
       <r>    -1.6684     3.8583     0.8816 </r>
       <r>    -1.6230     3.9323     1.0600 </r>
       <r>    -1.5776     3.9625     1.2398 </r>
       <r>    -1.5323     4.0283     1.4226 </r>
       <r>    -1.4869     4.1828     1.6124 </r>
       <r>    -1.4415     4.4553     1.8146 </r>
       <r>    -1.3961     4.8583     2.0351 </r>
       <r>    -1.3507     5.3882     2.2796 </r>
       <r>    -1.3054     6.0142     2.5525 </r>
       <r>    -1.2600     6.6530     2.8544 </r>
       <r>    -1.2146     7.1529     3.1790 </r>
       <r>    -1.1692     7.3300     3.5116 </r>
       <r>    -1.1239     7.0707     3.8325 </r>
       <r>    -1.0785     6.4365     4.1245 </r>
       <r>    -1.0331     5.6780     4.3822 </r>
       <r>    -0.9877     5.1315     4.6150 </r>
       <r>    -0.9423     5.0670     4.8450 </r>
       <r>    -0.8970     5.5849     5.0984 </r>
       <r>    -0.8516     6.6099     5.3984 </r>
       <r>    -0.8062     7.9527     5.7592 </r>
       <r>    -0.7608     9.3725     6.1845 </r>
       <r>    -0.7155    10.5972     6.6654 </r>
       <r>    -0.6701    11.3281     7.1795 </r>
       <r>    -0.6247    11.3069     7.6925 </r>
       <r>    -0.5793    10.4597     8.1672 </r>
       <r>    -0.5339     9.0227     8.5766 </r>
       <r>    -0.4886     7.5101     8.9174 </r>
       <r>    -0.4432     6.5030     9.2125 </r>
       <r>    -0.3978     6.3834     9.5022 </r>
       <r>    -0.3524     7.1828     9.8281 </r>
       <r>    -0.3071     8.6158    10.2191 </r>
       <r>    -0.2617    10.2396    10.6837 </r>
       <r>    -0.2163    11.6248    11.2112 </r>
       <r>    -0.1709    12.4705    11.7771 </r>
       <r>    -0.1255    12.6669    12.3519 </r>
       <r>    -0.0802    12.3215    12.9110 </r>
       <r>    -0.0348    11.7311    13.4434 </r>
       <r>     0.0106    11.2660    13.9546 </r>
       <r>     0.0560    11.2004    14.4629 </r>
       <r>     0.1013    11.5893    14.9888 </r>
       <r>     0.1467    12.2762    15.5458 </r>
       <r>     0.1921    13.0179    16.1366 </r>
       <r>     0.2375    13.6226    16.7547 </r>
       <r>     0.2829    14.0067    17.3903 </r>
       <r>     0.3282    14.1601    18.0329 </r>
       <r>     0.3736    14.0859    18.6721 </r>
       <r>     0.4190    13.7799    19.2974 </r>
       <r>     0.4644    13.2628    19.8992 </r>
       <r>     0.5097    12.6352    20.4726 </r>
       <r>     0.5551    12.1230    21.0227 </r>
       <r>     0.6005    12.0693    21.5704 </r>
       <r>     0.6459    12.8233    22.1523 </r>
       <r>     0.6913    14.5276    22.8115 </r>
       <r>     0.7366    16.9234    23.5794 </r>
       <r>     0.7820    19.3594    24.4579 </r>
       <r>     0.8274    21.0840    25.4147 </r>
       <r>     0.8728    21.6621    26.3977 </r>
       <r>     0.9182    21.2147    27.3603 </r>
       <r>     0.9635    20.2774    28.2805 </r>
       <r>     1.0089    19.3793    29.1599 </r>
       <r>     1.0543    18.6828    30.0077 </r>
       <r>     1.0997    17.9940    30.8242 </r>
       <r>     1.1450    17.1310    31.6016 </r>
       <r>     1.1904    16.3161    32.3420 </r>
       <r>     1.2358    16.2190    33.0780 </r>
       <r>     1.2812    17.5759    33.8755 </r>
       <r>     1.3266    20.6604    34.8130 </r>
       <r>     1.3719    24.9830    35.9467 </r>
       <r>     1.4173    29.4092    37.2812 </r>
       <r>     1.4627    32.6151    38.7613 </r>
       <r>     1.5081    33.6478    40.2881 </r>
       <r>     1.5534    32.3514    41.7562 </r>
       <r>     1.5988    29.5034    43.0950 </r>
       <r>     1.6442    26.6135    44.3026 </r>
       <r>     1.6896    25.4617    45.4580 </r>
       <r>     1.7350    27.5343    46.7075 </r>
       <r>     1.7803    33.5407    48.2295 </r>
       <r>     1.8257    43.1774    50.1888 </r>
       <r>     1.8711    55.2477    52.6958 </r>
       <r>     1.9165    68.1144    55.7867 </r>
       <r>     1.9618    80.2577    59.4287 </r>
       <r>     2.0072    90.6063    63.5402 </r>
       <r>     2.0526    98.5075    68.0103 </r>
       <r>     2.0980   103.5549    72.7094 </r>
       <r>     2.1434   105.6133    77.5019 </r>
       <r>     2.1887   105.0900    82.2707 </r>
       <r>     2.2341   103.1229    86.9502 </r>
       <r>     2.2795   101.3369    91.5487 </r>
       <r>     2.3249   101.1822    96.1401 </r>
       <r>     2.3702   103.2374   100.8248 </r>
       <r>     2.4156   106.9438   105.6777 </r>
       <r>     2.4610   111.0056   110.7149 </r>
       <r>     2.5064   114.2847   115.9009 </r>
       <r>     2.5518   116.6210   121.1929 </r>
       <r>     2.5971   118.9470   126.5905 </r>
       <r>     2.6425   122.5289   132.1506 </r>
       <r>     2.6879   127.9059   137.9548 </r>
       <r>     2.7333   134.4280   144.0548 </r>
       <r>     2.7786   140.8118   150.4446 </r>
       <r>     2.8240   146.2152   157.0795 </r>
       <r>     2.8694   150.8516   163.9249 </r>
       <r>     2.9148   155.5937   170.9854 </r>
       <r>     2.9602   160.9418   178.2886 </r>
       <r>     3.0055   166.2982   185.8349 </r>
       <r>     3.0509   170.2094   193.5587 </r>
       <r>     3.0963   171.3851   201.3358 </r>
       <r>     3.1417   169.6276   209.0331 </r>
       <r>     3.1871   165.9019   216.5614 </r>
       <r>     3.2324   161.5675   223.8930 </r>
       <r>     3.2778   157.5334   231.0416 </r>
       <r>     3.3232   154.0767   238.0333 </r>
       <r>     3.3686   151.3047   244.8992 </r>
       <r>     3.4139   149.5631   251.6861 </r>
       <r>     3.4593   149.2375   258.4582 </r>
       <r>     3.5047   150.1543   265.2719 </r>
       <r>     3.5501   151.2883   272.1370 </r>
       <r>     3.5955   151.1962   278.9980 </r>
       <r>     3.6408   148.8909   285.7544 </r>
       <r>     3.6862   144.5046   292.3117 </r>
       <r>     3.7316   139.2940   298.6326 </r>
       <r>     3.7770   134.9881   304.7581 </r>
       <r>     3.8223   132.8185   310.7851 </r>
       <r>     3.8677   132.7506   316.8091 </r>
       <r>     3.9131   133.4331   322.8640 </r>
       <r>     3.9585   133.0706   328.9025 </r>
       <r>     4.0039   130.7693   334.8365 </r>
       <r>     4.0492   127.3853   340.6170 </r>
       <r>     4.0946   125.1082   346.2942 </r>
       <r>     4.1400   125.9769   352.0107 </r>
       <r>     4.1854   130.4991   357.9325 </r>
       <r>     4.2307   137.5393   364.1738 </r>
       <r>     4.2761   145.5184   370.7771 </r>
       <r>     4.3215   153.7264   377.7529 </r>
       <r>     4.3669   162.4553   385.1248 </r>
       <r>     4.4123   171.8835   392.9245 </r>
       <r>     4.4576   180.9331   401.1349 </r>
       <r>     4.5030   187.3457   409.6363 </r>
       <r>     4.5484   189.0212   418.2137 </r>
       <r>     4.5938   185.5392   426.6331 </r>
       <r>     4.6391   178.7618   434.7449 </r>
       <r>     4.6845   172.2260   442.5602 </r>
       <r>     4.7299   169.7543   450.2633 </r>
       <r>     4.7753   173.9083   458.1549 </r>
       <r>     4.8207   184.8580   466.5434 </r>
       <r>     4.8660   200.1648   475.6265 </r>
       <r>     4.9114   215.7278   485.4158 </r>
       <r>     4.9568   227.5526   495.7417 </r>
       <r>     5.0022   233.4251   506.3340 </r>
       <r>     5.0475   233.5744   516.9332 </r>
       <r>     5.0929   230.1021   527.3747 </r>
       <r>     5.1383   225.7787   537.6201 </r>
       <r>     5.1837   223.0628   547.7423 </r>
       <r>     5.2291   223.7371   557.8950 </r>
       <r>     5.2744   228.8614   568.2803 </r>
       <r>     5.3198   238.4834   579.1022 </r>
       <r>     5.3652   250.9995   590.4920 </r>
       <r>     5.4106   262.8120   602.4179 </r>
       <r>     5.4560   269.1409   614.6310 </r>
       <r>     5.5013   266.0826   626.7053 </r>
       <r>     5.5467   252.8029   638.1770 </r>
       <r>     5.5921   232.2776   648.7173 </r>
       <r>     5.6375   209.8495   658.2398 </r>
       <r>     5.6828   190.4513   666.8821 </r>
       <r>     5.7282   176.3213   674.8832 </r>
       <r>     5.7736   166.6351   682.4448 </r>
       <r>     5.8190   159.0423   689.6618 </r>
       <r>     5.8644   151.8120   696.5507 </r>
       <r>     5.9097   145.0766   703.1340 </r>
       <r>     5.9551   140.5226   709.5106 </r>
       <r>     6.0005   140.0218   715.8645 </r>
       <r>     6.0459   144.2806   722.4117 </r>
       <r>     6.0912   152.3438   729.3248 </r>
       <r>     6.1366   162.1020   736.6806 </r>
       <r>     6.1820   171.3731   744.4572 </r>
       <r>     6.2274   178.9384   752.5771 </r>
       <r>     6.2728   185.0005   760.9720 </r>
       <r>     6.3181   190.7688   769.6287 </r>
       <r>     6.3635   197.3098   778.5822 </r>
       <r>     6.4089   204.3940   787.8572 </r>
       <r>     6.4543   210.3215   797.4012 </r>
       <r>     6.4996   213.0900   807.0708 </r>
       <r>     6.5450   212.0704   816.6941 </r>
       <r>     6.5904   208.6895   826.1640 </r>
       <r>     6.6358   205.3422   835.4820 </r>
       <r>     6.6812   203.3453   844.7094 </r>
       <r>     6.7265   201.7296   853.8635 </r>
       <r>     6.7719   198.0473   862.8505 </r>
       <r>     6.8173   190.6286   871.5009 </r>
       <r>     6.8627   180.4113   879.6876 </r>
       <r>     6.9080   170.7545   887.4361 </r>
       <r>     6.9534   165.3164   894.9378 </r>
       <r>     6.9988   165.6631   902.4552 </r>
       <r>     7.0442   170.4414   910.1895 </r>
       <r>     7.0896   176.5861   918.2026 </r>
       <r>     7.1349   181.4233   926.4353 </r>
       <r>     7.1803   184.0583   934.7875 </r>
       <r>     7.2257   185.3340   943.1976 </r>
       <r>     7.2711   186.8712   951.6774 </r>
       <r>     7.3164   190.1086   960.3041 </r>
       <r>     7.3618   195.7409   969.1865 </r>
       <r>     7.4072   203.3497   978.4141 </r>
       <r>     7.4526   211.0249   987.9900 </r>
       <r>     7.4980   215.2498   997.7576 </r>
       <r>     7.5433   211.5834  1007.3588 </r>
       <r>     7.5887   196.2939  1016.2662 </r>
       <r>     7.6341   168.3303  1023.9047 </r>
       <r>     7.6795   130.4843  1029.8258 </r>
       <r>     7.7249    88.8378  1033.8571 </r>
       <r>     7.7702    50.5579  1036.1513 </r>
       <r>     7.8156    21.1779  1037.1123 </r>
       <r>     7.8610     2.8423  1037.2413 </r>
       <r>     7.9064    -5.6806  1036.9835 </r>
       <r>     7.9517    -7.5737  1036.6398 </r>
       <r>     7.9971    -6.2127  1036.3579 </r>
       <r>     8.0425    -4.0169  1036.1757 </r>
       <r>     8.0879    -2.1873  1036.0764 </r>
       <r>     8.1333    -1.0308  1036.0296 </r>
       <r>     8.1786    -0.4264  1036.0103 </r>
       <r>     8.2240    -0.1560  1036.0032 </r>
       <r>     8.2694    -0.0507  1036.0009 </r>
       <r>     8.3148    -0.0147  1036.0002 </r>
       <r>     8.3601    -0.0038  1036.0001 </r>
       <r>     8.4055    -0.0009  1036.0000 </r>
       <r>     8.4509    -0.0002  1036.0000 </r>
       <r>     8.4963    -0.0000  1036.0000 </r>
       <r>     8.5417    -0.0000  1036.0000 </r>
       <r>     8.5870    -0.0000  1036.0000 </r>
       <r>     8.6324    -0.0000  1036.0000 </r>
       <r>     8.6778    -0.0000  1036.0000 </r>
       <r>     8.7232    -0.0000  1036.0000 </r>
       <r>     8.7685    -0.0000  1036.0000 </r>
       <r>     8.8139    -0.0000  1036.0000 </r>
       <r>     8.8593    -0.0000  1036.0000 </r>
       <r>     8.9047    -0.0000  1036.0000 </r>
       <r>     8.9501     0.0000  1036.0000 </r>
       <r>     8.9954     0.0000  1036.0000 </r>
       <r>     9.0408     0.0000  1036.0000 </r>
       <r>     9.0862     0.0000  1036.0000 </r>
       <r>     9.1316     0.0000  1036.0000 </r>
       <r>     9.1769     0.0000  1036.0000 </r>
       <r>     9.2223     0.0000  1036.0000 </r>
       <r>     9.2677     0.0000  1036.0000 </r>
       <r>     9.3131     0.0000  1036.0000 </r>
       <r>     9.3585     0.0000  1036.0000 </r>
       <r>     9.4038     0.0000  1036.0000 </r>
       <r>     9.4492     0.0000  1036.0000 </r>
       <r>     9.4946     0.0000  1036.0000 </r>
       <r>     9.5400     0.0000  1036.0000 </r>
       <r>     9.5853     0.0000  1036.0000 </r>
       <r>     9.6307     0.0000  1036.0000 </r>
       <r>     9.6761     0.0000  1036.0000 </r>
      </set>
     </set>
    </array>
   </total>
  </dos>
 </calculation>
 <structure name="finalpos" >
  <crystal>
   <varray name="basis" >
    <v>      10.34250386       0.00000000       0.00000000 </v>
    <v>       0.00000000      10.34250386      -0.00000000 </v>
    <v>       0.00000000       0.00000000      10.34250386 </v>
   </varray>
   <i name="volume">   1106.31060430 </i>
   <varray name="rec_basis" >
    <v>       0.09668839      -0.00000000      -0.00000000 </v>
    <v>      -0.00000000       0.09668839      -0.00000000 </v>
    <v>      -0.00000000       0.00000000       0.09668839 </v>
   </varray>
  </crystal>
  <varray name="positions" >
   <v>       0.00000000       0.00000000       0.00000000 </v>
   <v>      -0.00000000       0.16666893       0.16666893 </v>
   <v>       0.16666893       0.00000000       0.16666893 </v>
   <v>       0.16666893       0.16666893      -0.00000000 </v>
   <v>       0.33333106       0.00000000       0.00000000 </v>
   <v>       0.33333107       0.16666893       0.16666893 </v>
   <v>       0.50000000       0.00000000       0.16666894 </v>
   <v>       0.50000000       0.16666894      -0.00000000 </v>
   <v>       0.66666897      -0.00000000       0.00000000 </v>
   <v>       0.66666896       0.16666893       0.16666893 </v>
   <v>       0.83333104      -0.00000000       0.16666893 </v>
   <v>       0.83333104       0.16666893       0.00000000 </v>
   <v>      -0.00000000       0.33333106      -0.00000000 </v>
   <v>      -0.00000000       0.50000000       0.16666894 </v>
   <v>       0.16666893       0.33333107       0.16666893 </v>
   <v>       0.16666894       0.50000000       0.00000000 </v>
   <v>       0.33333107       0.33333107       0.00000000 </v>
   <v>       0.33333107       0.50000000       0.16666893 </v>
   <v>       0.50000000       0.33333107       0.16666893 </v>
   <v>       0.50000000       0.50000000      -0.00000000 </v>
   <v>       0.66666896       0.33333107       0.00000000 </v>
   <v>       0.66666896       0.50000000       0.16666893 </v>
   <v>       0.83333104       0.33333107       0.16666893 </v>
   <v>       0.83333103       0.50000000      -0.00000000 </v>
   <v>       0.00000000       0.66666897      -0.00000000 </v>
   <v>      -0.00000000       0.83333104       0.16666893 </v>
   <v>       0.16666893       0.66666896       0.16666893 </v>
   <v>       0.16666893       0.83333104       0.00000000 </v>
   <v>       0.33333107       0.66666896       0.00000000 </v>
   <v>       0.33333107       0.83333104       0.16666893 </v>
   <v>       0.50000000       0.66666896       0.16666893 </v>
   <v>       0.50000000       0.83333103       0.00000000 </v>
   <v>       0.66666896       0.66666896      -0.00000000 </v>
   <v>       0.66666896       0.83333104       0.16666893 </v>
   <v>       0.83333104       0.66666896       0.16666893 </v>
   <v>       0.83333104       0.83333104      -0.00000000 </v>
   <v>      -0.00000000       0.00000000       0.33333106 </v>
   <v>       0.00000000       0.16666894       0.50000000 </v>
   <v>       0.16666894       0.00000000       0.50000000 </v>
   <v>       0.16666893       0.16666893       0.33333107 </v>
   <v>       0.33333107       0.00000000       0.33333107 </v>
   <v>       0.33333107       0.16666893       0.50000000 </v>
   <v>       0.50000000      -0.00000000       0.50000000 </v>
   <v>       0.50000000       0.16666893       0.33333107 </v>
   <v>       0.66666896      -0.00000000       0.33333107 </v>
   <v>       0.66666896       0.16666893       0.50000000 </v>
   <v>       0.83333103      -0.00000000       0.50000000 </v>
   <v>       0.83333104       0.16666893       0.33333107 </v>
   <v>      -0.00000000       0.33333107       0.33333107 </v>
   <v>      -0.00000000       0.50000000       0.50000000 </v>
   <v>       0.16666893       0.33333107       0.50000000 </v>
   <v>       0.16666893       0.50000000       0.33333107 </v>
   <v>       0.33333107       0.33333107       0.33333107 </v>
   <v>       0.33333106       0.50000000       0.50000000 </v>
   <v>       0.50000000       0.33333106       0.50000000 </v>
   <v>       0.50000000       0.50000000       0.33333106 </v>
   <v>       0.66666896       0.33333107       0.33333107 </v>
   <v>       0.66666897       0.50000000       0.50000000 </v>
   <v>       0.83333104       0.33333107       0.50000000 </v>
   <v>       0.83333104       0.50000000       0.33333107 </v>
   <v>      -0.00000000       0.66666896       0.33333107 </v>
   <v>       0.00000000       0.83333103       0.50000000 </v>
   <v>       0.16666893       0.66666896       0.50000000 </v>
   <v>       0.16666893       0.83333104       0.33333107 </v>
   <v>       0.33333107       0.66666896       0.33333107 </v>
   <v>       0.33333107       0.83333104       0.50000000 </v>
   <v>       0.50000000       0.66666897       0.50000000 </v>
   <v>       0.50000000       0.83333104       0.33333107 </v>
   <v>       0.66666896       0.66666896       0.33333107 </v>
   <v>       0.66666896       0.83333104       0.50000000 </v>
   <v>       0.83333104       0.66666896       0.50000000 </v>
   <v>       0.83333104       0.83333104       0.33333107 </v>
   <v>       0.00000000       0.00000000       0.66666897 </v>
   <v>      -0.00000000       0.16666893       0.83333104 </v>
   <v>       0.16666893       0.00000000       0.83333104 </v>
   <v>       0.16666893       0.16666893       0.66666896 </v>
   <v>       0.33333107       0.00000000       0.66666896 </v>
   <v>       0.33333107       0.16666893       0.83333104 </v>
   <v>       0.50000000       0.00000000       0.83333103 </v>
   <v>       0.50000000       0.16666893       0.66666896 </v>
   <v>       0.66666896       0.00000000       0.66666896 </v>
   <v>       0.66666896       0.16666893       0.83333104 </v>
   <v>       0.83333104       0.00000000       0.83333104 </v>
   <v>       0.83333104       0.16666893       0.66666896 </v>
   <v>       0.00000000       0.33333107       0.66666896 </v>
   <v>       0.00000000       0.50000000       0.83333103 </v>
   <v>       0.16666893       0.33333107       0.83333104 </v>
   <v>       0.16666893       0.50000000       0.66666896 </v>
   <v>       0.33333107       0.33333107       0.66666896 </v>
   <v>       0.33333107       0.50000000       0.83333104 </v>
   <v>       0.50000000       0.33333107       0.83333104 </v>
   <v>       0.50000000       0.50000000       0.66666897 </v>
   <v>       0.66666896       0.33333107       0.66666896 </v>
   <v>       0.66666896       0.50000000       0.83333104 </v>
   <v>       0.83333104       0.33333107       0.83333104 </v>
   <v>       0.83333104       0.50000000       0.66666896 </v>
   <v>      -0.00000000       0.66666896       0.66666896 </v>
   <v>      -0.00000000       0.83333104       0.83333104 </v>
   <v>       0.16666893       0.66666896       0.83333104 </v>
   <v>       0.16666893       0.83333104       0.66666896 </v>
   <v>       0.33333107       0.66666896       0.66666896 </v>
   <v>       0.33333107       0.83333104       0.83333104 </v>
   <v>       0.50000000       0.66666896       0.83333104 </v>
   <v>       0.50000000       0.83333104       0.66666896 </v>
   <v>       0.66666896       0.66666896       0.66666896 </v>
   <v>       0.66666896       0.83333104       0.83333104 </v>
   <v>       0.83333104       0.66666896       0.83333104 </v>
   <v>       0.83333104       0.83333104       0.66666896 </v>
  </varray>
 </structure>
</modeling>
