 107 107   0   0
  0.1031640E+02  0.1033485E-08  0.1033485E-08  0.1033485E-08  0.5000000E-15
  1.000000000000000E-004
  CAR 
 Opt                                     
      9.59470576     -3.98858868  301      6.70145579      1.00000000
     -3.989  0.0000E+00  0.0000E+00
     -3.943  0.0000E+00  0.0000E+00
     -3.898  0.0000E+00  0.0000E+00
     -3.853  0.0000E+00  0.0000E+00
     -3.807  0.0000E+00  0.0000E+00
     -3.762  0.0000E+00  0.0000E+00
     -3.717  0.0000E+00  0.0000E+00
     -3.672  0.0000E+00  0.0000E+00
     -3.626 -0.9611E-30 -0.4352E-31
     -3.581 -0.3523E-28 -0.1639E-29
     -3.536 -0.1193E-26 -0.5564E-28
     -3.491 -0.3641E-25 -0.1704E-26
     -3.445 -0.1002E-23 -0.4706E-25
     -3.400 -0.2484E-22 -0.1172E-23
     -3.355 -0.5552E-21 -0.2631E-22
     -3.309 -0.1118E-19 -0.5325E-21
     -3.264 -0.2029E-18 -0.9718E-20
     -3.219 -0.3316E-17 -0.1599E-18
     -3.174 -0.4882E-16 -0.2370E-17
     -3.128 -0.6257E-15 -0.3070E-16
     -3.083 -0.7470E-14 -0.3689E-15
     -3.038 -0.7999E-13 -0.3991E-14
     -2.992 -0.7706E-12 -0.3888E-13
     -2.947 -0.6673E-11 -0.3410E-12
     -2.902 -0.5193E-10 -0.2692E-11
     -2.857 -0.3629E-09 -0.1912E-10
     -2.811 -0.2276E-08 -0.1222E-09
     -2.766 -0.1280E-07 -0.7017E-09
     -2.721 -0.6447E-07 -0.3621E-08
     -2.676 -0.2905E-06 -0.1677E-07
     -2.630 -0.1169E-05 -0.6969E-07
     -2.585 -0.4191E-05 -0.2595E-06
     -2.540 -0.1336E-04 -0.8643E-06
     -2.494 -0.3770E-04 -0.2571E-05
     -2.449 -0.9371E-04 -0.6814E-05
     -2.404 -0.2036E-03 -0.1603E-04
     -2.359 -0.3816E-03 -0.3331E-04
     -2.313 -0.6029E-03 -0.6060E-04
     -2.268 -0.7626E-03 -0.9513E-04
     -2.223 -0.6554E-03 -0.1248E-03
     -2.177 -0.1391E-04 -0.1254E-03
     -2.132  0.1393E-02 -0.6236E-04
     -2.087  0.3674E-02  0.1040E-03
     -2.042  0.6824E-02  0.4130E-03
     -1.996  0.1083E-01  0.9035E-03
     -1.951  0.1572E-01  0.1615E-02
     -1.906  0.2139E-01  0.2584E-02
     -1.861  0.2735E-01  0.3822E-02
     -1.815  0.3273E-01  0.5304E-02
     -1.770  0.3668E-01  0.6965E-02
     -1.725  0.3885E-01  0.8724E-02
     -1.679  0.3959E-01  0.1052E-01
     -1.634  0.3971E-01  0.1231E-01
     -1.589  0.4008E-01  0.1413E-01
     -1.544  0.4136E-01  0.1600E-01
     -1.498  0.4399E-01  0.1799E-01
     -1.453  0.4810E-01  0.2017E-01
     -1.408  0.5351E-01  0.2259E-01
     -1.362  0.5972E-01  0.2530E-01
     -1.317  0.6589E-01  0.2828E-01
     -1.272  0.7074E-01  0.3148E-01
     -1.227  0.7272E-01  0.3478E-01
     -1.181  0.7076E-01  0.3798E-01
     -1.136  0.6511E-01  0.4093E-01
     -1.091  0.5778E-01  0.4355E-01
     -1.046  0.5191E-01  0.4590E-01
     -1.000  0.5041E-01  0.4818E-01
     -0.955  0.5474E-01  0.5066E-01
     -0.910  0.6449E-01  0.5358E-01
     -0.864  0.7774E-01  0.5710E-01
     -0.819  0.9181E-01  0.6125E-01
     -0.774  0.1038E+00  0.6595E-01
     -0.729  0.1110E+00  0.7098E-01
     -0.683  0.1113E+00  0.7602E-01
     -0.638  0.1041E+00  0.8073E-01
     -0.593  0.9147E-01  0.8487E-01
     -0.547  0.7751E-01  0.8838E-01
     -0.502  0.6727E-01  0.9143E-01
     -0.457  0.6456E-01  0.9435E-01
     -0.412  0.7054E-01  0.9754E-01
     -0.366  0.8337E-01  0.1013E+00
     -0.321  0.9921E-01  0.1058E+00
     -0.276  0.1137E+00  0.1110E+00
     -0.231  0.1233E+00  0.1165E+00
     -0.185  0.1265E+00  0.1223E+00
     -0.140  0.1240E+00  0.1279E+00
     -0.095  0.1184E+00  0.1332E+00
     -0.049  0.1134E+00  0.1384E+00
     -0.004  0.1118E+00  0.1434E+00
      0.041  0.1145E+00  0.1486E+00
      0.086  0.1205E+00  0.1541E+00
      0.132  0.1277E+00  0.1599E+00
      0.177  0.1340E+00  0.1659E+00
      0.222  0.1383E+00  0.1722E+00
      0.268  0.1403E+00  0.1785E+00
      0.313  0.1399E+00  0.1849E+00
      0.358  0.1373E+00  0.1911E+00
      0.403  0.1328E+00  0.1971E+00
      0.449  0.1272E+00  0.2029E+00
      0.494  0.1226E+00  0.2084E+00
      0.539  0.1218E+00  0.2139E+00
      0.584  0.1281E+00  0.2197E+00
      0.630  0.1427E+00  0.2262E+00
      0.675  0.1640E+00  0.2336E+00
      0.720  0.1866E+00  0.2421E+00
      0.766  0.2041E+00  0.2513E+00
      0.811  0.2118E+00  0.2609E+00
      0.856  0.2101E+00  0.2704E+00
      0.901  0.2030E+00  0.2796E+00
      0.947  0.1956E+00  0.2885E+00
      0.992  0.1901E+00  0.2971E+00
      1.037  0.1848E+00  0.3054E+00
      1.083  0.1774E+00  0.3135E+00
      1.128  0.1687E+00  0.3211E+00
      1.173  0.1646E+00  0.3286E+00
      1.218  0.1729E+00  0.3364E+00
      1.264  0.1981E+00  0.3454E+00
      1.309  0.2372E+00  0.3561E+00
      1.354  0.2804E+00  0.3688E+00
      1.399  0.3149E+00  0.3830E+00
      1.445  0.3306E+00  0.3980E+00
      1.490  0.3243E+00  0.4127E+00
      1.535  0.3022E+00  0.4264E+00
      1.581  0.2778E+00  0.4390E+00
      1.626  0.2676E+00  0.4511E+00
      1.671  0.2859E+00  0.4640E+00
      1.716  0.3400E+00  0.4794E+00
      1.762  0.4278E+00  0.4988E+00
      1.807  0.5394E+00  0.5232E+00
      1.852  0.6611E+00  0.5531E+00
      1.898  0.7796E+00  0.5884E+00
      1.943  0.8848E+00  0.6285E+00
      1.988  0.9685E+00  0.6723E+00
      2.033  0.1025E+01  0.7187E+00
      2.079  0.1050E+01  0.7663E+00
      2.124  0.1048E+01  0.8138E+00
      2.169  0.1030E+01  0.8604E+00
      2.214  0.1012E+01  0.9062E+00
      2.260  0.1007E+01  0.9519E+00
      2.305  0.1022E+01  0.9981E+00
      2.350  0.1053E+01  0.1046E+01
      2.396  0.1088E+01  0.1095E+01
      2.441  0.1118E+01  0.1146E+01
      2.486  0.1144E+01  0.1197E+01
      2.531  0.1174E+01  0.1251E+01
      2.577  0.1217E+01  0.1306E+01
      2.622  0.1276E+01  0.1364E+01
      2.667  0.1343E+01  0.1424E+01
      2.713  0.1405E+01  0.1488E+01
      2.758  0.1454E+01  0.1554E+01
      2.803  0.1492E+01  0.1621E+01
      2.848  0.1528E+01  0.1691E+01
      2.894  0.1569E+01  0.1762E+01
      2.939  0.1612E+01  0.1835E+01
      2.984  0.1650E+01  0.1909E+01
      3.029  0.1670E+01  0.1985E+01
      3.075  0.1670E+01  0.2060E+01
      3.120  0.1651E+01  0.2135E+01
      3.165  0.1618E+01  0.2208E+01
      3.211  0.1580E+01  0.2280E+01
      3.256  0.1543E+01  0.2350E+01
      3.301  0.1512E+01  0.2418E+01
      3.346  0.1495E+01  0.2486E+01
      3.392  0.1492E+01  0.2554E+01
      3.437  0.1499E+01  0.2621E+01
      3.482  0.1507E+01  0.2690E+01
      3.528  0.1506E+01  0.2758E+01
      3.573  0.1488E+01  0.2825E+01
      3.618  0.1454E+01  0.2891E+01
      3.663  0.1413E+01  0.2955E+01
      3.709  0.1376E+01  0.3017E+01
      3.754  0.1353E+01  0.3079E+01
      3.799  0.1345E+01  0.3139E+01
      3.844  0.1344E+01  0.3200E+01
      3.890  0.1337E+01  0.3261E+01
      3.935  0.1316E+01  0.3320E+01
      3.980  0.1284E+01  0.3379E+01
      4.026  0.1259E+01  0.3436E+01
      4.071  0.1259E+01  0.3493E+01
      4.116  0.1294E+01  0.3551E+01
      4.161  0.1360E+01  0.3613E+01
      4.207  0.1443E+01  0.3678E+01
      4.252  0.1531E+01  0.3748E+01
      4.297  0.1618E+01  0.3821E+01
      4.342  0.1703E+01  0.3898E+01
      4.388  0.1779E+01  0.3978E+01
      4.433  0.1832E+01  0.4061E+01
      4.478  0.1848E+01  0.4145E+01
      4.524  0.1827E+01  0.4228E+01
      4.569  0.1780E+01  0.4308E+01
      4.614  0.1734E+01  0.4387E+01
      4.659  0.1718E+01  0.4465E+01
      4.705  0.1753E+01  0.4544E+01
      4.750  0.1840E+01  0.4627E+01
      4.795  0.1963E+01  0.4716E+01
      4.841  0.2093E+01  0.4811E+01
      4.886  0.2201E+01  0.4911E+01
      4.931  0.2267E+01  0.5013E+01
      4.976  0.2288E+01  0.5117E+01
      5.022  0.2277E+01  0.5220E+01
      5.067  0.2255E+01  0.5322E+01
      5.112  0.2242E+01  0.5424E+01
      5.157  0.2254E+01  0.5526E+01
      5.203  0.2299E+01  0.5630E+01
      5.248  0.2374E+01  0.5737E+01
      5.293  0.2467E+01  0.5849E+01
      5.339  0.2551E+01  0.5965E+01
      5.384  0.2593E+01  0.6082E+01
      5.429  0.2564E+01  0.6198E+01
      5.474  0.2457E+01  0.6309E+01
      5.520  0.2289E+01  0.6413E+01
      5.565  0.2098E+01  0.6508E+01
      5.610  0.1922E+01  0.6595E+01
      5.656  0.1787E+01  0.6676E+01
      5.701  0.1691E+01  0.6752E+01
      5.746  0.1618E+01  0.6826E+01
      5.791  0.1552E+01  0.6896E+01
      5.837  0.1489E+01  0.6963E+01
      5.882  0.1437E+01  0.7028E+01
      5.927  0.1415E+01  0.7092E+01
      5.972  0.1435E+01  0.7157E+01
      6.018  0.1497E+01  0.7225E+01
      6.063  0.1588E+01  0.7297E+01
      6.108  0.1688E+01  0.7374E+01
      6.154  0.1777E+01  0.7454E+01
      6.199  0.1849E+01  0.7538E+01
      6.244  0.1906E+01  0.7624E+01
      6.289  0.1961E+01  0.7713E+01
      6.335  0.2015E+01  0.7804E+01
      6.380  0.2065E+01  0.7898E+01
      6.425  0.2097E+01  0.7993E+01
      6.471  0.2105E+01  0.8088E+01
      6.516  0.2093E+01  0.8183E+01
      6.561  0.2073E+01  0.8276E+01
      6.606  0.2054E+01  0.8369E+01
      6.652  0.2030E+01  0.8461E+01
      6.697  0.1984E+01  0.8551E+01
      6.742  0.1908E+01  0.8638E+01
      6.787  0.1811E+01  0.8720E+01
      6.833  0.1720E+01  0.8798E+01
      6.878  0.1666E+01  0.8873E+01
      6.923  0.1663E+01  0.8948E+01
      6.969  0.1701E+01  0.9025E+01
      7.014  0.1756E+01  0.9105E+01
      7.059  0.1803E+01  0.9186E+01
      7.104  0.1832E+01  0.9269E+01
      7.150  0.1850E+01  0.9353E+01
      7.195  0.1872E+01  0.9438E+01
      7.240  0.1911E+01  0.9524E+01
      7.286  0.1974E+01  0.9614E+01
      7.331  0.2055E+01  0.9707E+01
      7.376  0.2135E+01  0.9803E+01
      7.421  0.2178E+01  0.9902E+01
      7.467  0.2138E+01  0.9999E+01
      7.512  0.1976E+01  0.1009E+02
      7.557  0.1683E+01  0.1016E+02
      7.602  0.1290E+01  0.1022E+02
      7.648  0.8627E+00  0.1026E+02
      7.693  0.4765E+00  0.1028E+02
      7.738  0.1868E+00  0.1029E+02
      7.784  0.1182E-01  0.1029E+02
      7.829 -0.6491E-01  0.1029E+02
      7.874 -0.7788E-01  0.1029E+02
      7.919 -0.6135E-01  0.1028E+02
      7.965 -0.3864E-01  0.1028E+02
      8.010 -0.2062E-01  0.1028E+02
      8.055 -0.9555E-02  0.1028E+02
      8.101 -0.3894E-02  0.1028E+02
      8.146 -0.1406E-02  0.1028E+02
      8.191 -0.4522E-03  0.1028E+02
      8.236 -0.1298E-03  0.1028E+02
      8.282 -0.3336E-04  0.1028E+02
      8.327 -0.7682E-05  0.1028E+02
      8.372 -0.1588E-05  0.1028E+02
      8.417 -0.2949E-06  0.1028E+02
      8.463 -0.4922E-07  0.1028E+02
      8.508 -0.7389E-08  0.1028E+02
      8.553 -0.9983E-09  0.1028E+02
      8.599 -0.1214E-09  0.1028E+02
      8.644 -0.1330E-10  0.1028E+02
      8.689 -0.1312E-11  0.1028E+02
      8.734 -0.1167E-12  0.1028E+02
      8.780 -0.9327E-14  0.1028E+02
      8.825 -0.7019E-15  0.1028E+02
      8.870  0.0000E+00  0.1028E+02
      8.916  0.0000E+00  0.1028E+02
      8.961  0.0000E+00  0.1028E+02
      9.006  0.0000E+00  0.1028E+02
      9.051  0.0000E+00  0.1028E+02
      9.097  0.0000E+00  0.1028E+02
      9.142  0.0000E+00  0.1028E+02
      9.187  0.0000E+00  0.1028E+02
      9.232  0.0000E+00  0.1028E+02
      9.278  0.0000E+00  0.1028E+02
      9.323  0.0000E+00  0.1028E+02
      9.368  0.0000E+00  0.1028E+02
      9.414  0.0000E+00  0.1028E+02
      9.459  0.0000E+00  0.1028E+02
      9.504  0.0000E+00  0.1028E+02
      9.549  0.0000E+00  0.1028E+02
      9.595  0.0000E+00  0.1028E+02
