<?xml version="1.0" encoding="ISO-8859-1"?>
<modeling>
 <generator>
  <i name="program" type="string">vasp </i>
  <i name="version" type="string">5.4.4.18Apr17-6-g9f103f2a35  </i>
  <i name="subversion" type="string">(build Aug 17 2017 06:00:38) complex            parallel </i>
  <i name="platform" type="string">LinuxIFC </i>
  <i name="date" type="string">2019 07 13 </i>
  <i name="time" type="string">02:09:34 </i>
 </generator>
 <incar>
  <i type="string" name="SYSTEM">Opt</i>
  <i type="int" name="ISTART">     0</i>
  <i type="string" name="PREC">normal</i>
  <i type="string" name="ALGO"> Fast</i>
  <i type="int" name="ISPIN">     1</i>
  <i type="int" name="ICHARG">     2</i>
  <i type="int" name="NELM">   400</i>
  <i type="int" name="IBRION">     2</i>
  <i name="EDIFF">      0.00000100</i>
  <i name="EDIFFG">     -0.01000000</i>
  <i type="int" name="NSW">   100</i>
  <i type="int" name="ISIF">     2</i>
  <i type="int" name="ISYM">     0</i>
  <i name="ENCUT">    400.00000000</i>
  <i type="int" name="NGX">    72</i>
  <i type="int" name="NGY">    72</i>
  <i type="int" name="NGZ">    72</i>
  <i name="POTIM">      0.50000000</i>
  <i type="string" name="LREAL">Auto</i>
  <i type="logical" name="LWAVE"> F  </i>
  <i type="logical" name="LCHARG"> F  </i>
  <v type="int" name="KPOINT_BSE">    -1     0     0     0</v>
  <i type="int" name="NELM">   400</i>
 </incar>
 <structure name="primitive_cell" >
  <crystal>
   <varray name="basis" >
    <v>      10.33484705       0.00000000       0.00000000 </v>
    <v>       0.00000000      10.33484705       0.00000000 </v>
    <v>       0.00000000       0.00000000      10.33484705 </v>
   </varray>
   <i name="volume">   1103.85533447 </i>
   <varray name="rec_basis" >
    <v>       0.09676002       0.00000000       0.00000000 </v>
    <v>       0.00000000       0.09676002       0.00000000 </v>
    <v>       0.00000000       0.00000000       0.09676002 </v>
   </varray>
  </crystal>
  <varray name="positions" >
   <v>       0.00000000       0.00000000       0.00000000 </v>
   <v>       0.00000000       0.16666893       0.16666893 </v>
   <v>       0.16666893       0.00000000       0.16666893 </v>
   <v>       0.16666893       0.16666893       0.00000000 </v>
   <v>       0.00000000      -0.16666896       0.16666893 </v>
   <v>       0.00000000       0.16666893      -0.16666896 </v>
   <v>       0.16666893      -0.16666896       0.00000000 </v>
   <v>       0.16666893       0.00000000      -0.16666896 </v>
   <v>      -0.16666896       0.00000000       0.16666893 </v>
   <v>      -0.16666896       0.16666893       0.00000000 </v>
   <v>       0.00000000      -0.16666896      -0.16666896 </v>
   <v>      -0.16666896      -0.16666896       0.00000000 </v>
   <v>      -0.16666896       0.00000000      -0.16666896 </v>
   <v>       0.00000000      -0.33333103       0.00000000 </v>
   <v>       0.00000000       0.00000000      -0.33333103 </v>
   <v>      -0.33333103       0.00000000       0.00000000 </v>
   <v>       0.00000000       0.33333106       0.00000000 </v>
   <v>       0.00000000       0.00000000       0.33333106 </v>
   <v>       0.33333106       0.00000000       0.00000000 </v>
   <v>       0.16666893      -0.33333104       0.16666893 </v>
   <v>       0.16666893       0.16666893      -0.33333104 </v>
   <v>      -0.33333104       0.16666893       0.16666893 </v>
   <v>       0.16666893      -0.33333104      -0.16666896 </v>
   <v>       0.16666893      -0.16666896      -0.33333104 </v>
   <v>      -0.33333104      -0.16666896       0.16666893 </v>
   <v>      -0.33333104       0.16666893      -0.16666896 </v>
   <v>      -0.16666896      -0.33333104       0.16666893 </v>
   <v>      -0.16666896       0.16666893      -0.33333104 </v>
   <v>       0.16666893       0.33333107       0.16666893 </v>
   <v>       0.16666893       0.16666893       0.33333107 </v>
   <v>       0.33333107       0.16666893       0.16666893 </v>
   <v>      -0.33333104      -0.16666896      -0.16666896 </v>
   <v>      -0.16666896      -0.33333104      -0.16666896 </v>
   <v>      -0.16666896      -0.16666896      -0.33333104 </v>
   <v>       0.16666893      -0.16666896       0.33333107 </v>
   <v>       0.16666893       0.33333107      -0.16666896 </v>
   <v>       0.33333107      -0.16666896       0.16666893 </v>
   <v>       0.33333107       0.16666893      -0.16666896 </v>
   <v>      -0.16666896       0.33333107       0.16666893 </v>
   <v>      -0.16666896       0.16666893       0.33333107 </v>
   <v>       0.33333107      -0.16666896      -0.16666896 </v>
   <v>      -0.16666896      -0.16666896       0.33333107 </v>
   <v>      -0.16666896       0.33333107      -0.16666896 </v>
   <v>       0.00000000      -0.33333104      -0.33333104 </v>
   <v>      -0.33333104      -0.33333104       0.00000000 </v>
   <v>      -0.33333104       0.00000000      -0.33333104 </v>
   <v>       0.00000000      -0.33333104       0.33333107 </v>
   <v>       0.00000000       0.33333107      -0.33333104 </v>
   <v>       0.33333107      -0.33333104       0.00000000 </v>
   <v>       0.33333107       0.00000000      -0.33333104 </v>
   <v>      -0.33333104       0.33333107       0.00000000 </v>
   <v>      -0.33333104       0.00000000       0.33333107 </v>
   <v>       0.00000000       0.33333107       0.33333107 </v>
   <v>       0.33333107       0.33333107       0.00000000 </v>
   <v>       0.33333107       0.00000000       0.33333107 </v>
   <v>       0.00000000      -0.50000000       0.16666894 </v>
   <v>       0.00000000       0.16666894      -0.50000000 </v>
   <v>       0.16666894      -0.50000000       0.00000000 </v>
   <v>       0.16666894       0.00000000      -0.50000000 </v>
   <v>      -0.50000000       0.00000000       0.16666894 </v>
   <v>      -0.50000000       0.16666894       0.00000000 </v>
   <v>       0.00000000      -0.16666897      -0.50000000 </v>
   <v>       0.00000000      -0.50000000      -0.16666897 </v>
   <v>      -0.50000000      -0.16666897       0.00000000 </v>
   <v>      -0.50000000       0.00000000      -0.16666897 </v>
   <v>      -0.16666897      -0.50000000       0.00000000 </v>
   <v>      -0.16666897       0.00000000      -0.50000000 </v>
   <v>      -0.33333104      -0.33333104      -0.33333104 </v>
   <v>       0.33333107      -0.33333104      -0.33333104 </v>
   <v>      -0.33333104      -0.33333104       0.33333107 </v>
   <v>      -0.33333104       0.33333107      -0.33333104 </v>
   <v>       0.33333107      -0.33333104       0.33333107 </v>
   <v>       0.33333107       0.33333107      -0.33333104 </v>
   <v>      -0.33333104       0.33333107       0.33333107 </v>
   <v>       0.33333107       0.33333107       0.33333107 </v>
   <v>       0.16666893      -0.33333104      -0.50000000 </v>
   <v>       0.16666893      -0.50000000      -0.33333104 </v>
   <v>      -0.50000000      -0.33333104       0.16666893 </v>
   <v>      -0.50000000       0.16666893      -0.33333104 </v>
   <v>      -0.33333104      -0.50000000       0.16666893 </v>
   <v>      -0.33333104       0.16666893      -0.50000000 </v>
   <v>      -0.50000000      -0.33333104      -0.16666896 </v>
   <v>      -0.50000000      -0.16666896      -0.33333104 </v>
   <v>      -0.33333104      -0.16666896      -0.50000000 </v>
   <v>      -0.33333104      -0.50000000      -0.16666896 </v>
   <v>      -0.16666896      -0.33333104      -0.50000000 </v>
   <v>      -0.16666896      -0.50000000      -0.33333104 </v>
   <v>       0.16666893       0.33333107      -0.50000000 </v>
   <v>       0.16666893      -0.50000000       0.33333107 </v>
   <v>       0.33333107      -0.50000000       0.16666893 </v>
   <v>       0.33333107       0.16666893      -0.50000000 </v>
   <v>      -0.50000000       0.33333107       0.16666893 </v>
   <v>      -0.50000000       0.16666893       0.33333107 </v>
   <v>       0.33333107      -0.16666896      -0.50000000 </v>
   <v>       0.33333107      -0.50000000      -0.16666896 </v>
   <v>      -0.50000000      -0.16666896       0.33333107 </v>
   <v>      -0.50000000       0.33333107      -0.16666896 </v>
   <v>      -0.16666896       0.33333107      -0.50000000 </v>
   <v>      -0.16666896      -0.50000000       0.33333107 </v>
   <v>       0.00000000      -0.50000000      -0.50000000 </v>
   <v>      -0.50000000      -0.50000000       0.00000000 </v>
   <v>      -0.50000000       0.00000000      -0.50000000 </v>
   <v>      -0.50000000      -0.33333103      -0.50000000 </v>
   <v>      -0.33333103      -0.50000000      -0.50000000 </v>
   <v>      -0.50000000       0.33333106      -0.50000000 </v>
   <v>      -0.50000000      -0.50000000       0.33333106 </v>
   <v>       0.33333106      -0.50000000      -0.50000000 </v>
  </varray>
 </structure>
 <varray name="primitive_index" >
  <v type="int" >        1 </v>
  <v type="int" >        2 </v>
  <v type="int" >       19 </v>
  <v type="int" >       20 </v>
  <v type="int" >        6 </v>
  <v type="int" >       14 </v>
  <v type="int" >       21 </v>
  <v type="int" >       25 </v>
  <v type="int" >       99 </v>
  <v type="int" >      100 </v>
  <v type="int" >       18 </v>
  <v type="int" >      101 </v>
  <v type="int" >      105 </v>
  <v type="int" >        5 </v>
  <v type="int" >       13 </v>
  <v type="int" >       87 </v>
  <v type="int" >        3 </v>
  <v type="int" >        7 </v>
  <v type="int" >       37 </v>
  <v type="int" >       28 </v>
  <v type="int" >       31 </v>
  <v type="int" >       79 </v>
  <v type="int" >       33 </v>
  <v type="int" >       34 </v>
  <v type="int" >       80 </v>
  <v type="int" >       83 </v>
  <v type="int" >       92 </v>
  <v type="int" >       95 </v>
  <v type="int" >       27 </v>
  <v type="int" >       29 </v>
  <v type="int" >       38 </v>
  <v type="int" >       86 </v>
  <v type="int" >       97 </v>
  <v type="int" >       98 </v>
  <v type="int" >       30 </v>
  <v type="int" >       32 </v>
  <v type="int" >       39 </v>
  <v type="int" >       42 </v>
  <v type="int" >       91 </v>
  <v type="int" >       93 </v>
  <v type="int" >       45 </v>
  <v type="int" >       94 </v>
  <v type="int" >       96 </v>
  <v type="int" >       17 </v>
  <v type="int" >       73 </v>
  <v type="int" >       77 </v>
  <v type="int" >       11 </v>
  <v type="int" >       15 </v>
  <v type="int" >       48 </v>
  <v type="int" >       52 </v>
  <v type="int" >       71 </v>
  <v type="int" >       74 </v>
  <v type="int" >        9 </v>
  <v type="int" >       46 </v>
  <v type="int" >       49 </v>
  <v type="int" >        4 </v>
  <v type="int" >        8 </v>
  <v type="int" >       35 </v>
  <v type="int" >       36 </v>
  <v type="int" >       54 </v>
  <v type="int" >       55 </v>
  <v type="int" >       12 </v>
  <v type="int" >       16 </v>
  <v type="int" >       59 </v>
  <v type="int" >       66 </v>
  <v type="int" >       89 </v>
  <v type="int" >       90 </v>
  <v type="int" >       85 </v>
  <v type="int" >       44 </v>
  <v type="int" >       82 </v>
  <v type="int" >       84 </v>
  <v type="int" >       41 </v>
  <v type="int" >       43 </v>
  <v type="int" >       81 </v>
  <v type="int" >       40 </v>
  <v type="int" >       24 </v>
  <v type="int" >       26 </v>
  <v type="int" >       58 </v>
  <v type="int" >       67 </v>
  <v type="int" >       72 </v>
  <v type="int" >       75 </v>
  <v type="int" >       69 </v>
  <v type="int" >       70 </v>
  <v type="int" >       76 </v>
  <v type="int" >       78 </v>
  <v type="int" >      104 </v>
  <v type="int" >      106 </v>
  <v type="int" >       22 </v>
  <v type="int" >       23 </v>
  <v type="int" >       47 </v>
  <v type="int" >       50 </v>
  <v type="int" >       56 </v>
  <v type="int" >       61 </v>
  <v type="int" >       51 </v>
  <v type="int" >       53 </v>
  <v type="int" >       65 </v>
  <v type="int" >       68 </v>
  <v type="int" >      102 </v>
  <v type="int" >      103 </v>
  <v type="int" >       10 </v>
  <v type="int" >       57 </v>
  <v type="int" >       60 </v>
  <v type="int" >       64 </v>
  <v type="int" >       88 </v>
  <v type="int" >       62 </v>
  <v type="int" >       63 </v>
  <v type="int" >      107 </v>
 </varray>
 <kpoints>
  <generation param="Monkhorst-Pack">
   <v type="int" name="divisions">       4        4        4 </v>
   <v name="usershift">      0.00000000       0.00000000       0.00000000 </v>
   <v name="genvec1">      0.25000000       0.00000000       0.00000000 </v>
   <v name="genvec2">      0.00000000       0.25000000       0.00000000 </v>
   <v name="genvec3">      0.00000000       0.00000000       0.25000000 </v>
   <v name="shift">      0.50000000       0.50000000       0.50000000 </v>
  </generation>
  <varray name="kpointlist" >
   <v>       0.12500000       0.12500000       0.12500000 </v>
   <v>       0.37500000       0.12500000       0.12500000 </v>
   <v>      -0.37500000       0.12500000       0.12500000 </v>
   <v>      -0.12500000       0.12500000       0.12500000 </v>
   <v>       0.12500000       0.37500000       0.12500000 </v>
   <v>       0.37500000       0.37500000       0.12500000 </v>
   <v>      -0.37500000       0.37500000       0.12500000 </v>
   <v>      -0.12500000       0.37500000       0.12500000 </v>
   <v>       0.12500000      -0.37500000       0.12500000 </v>
   <v>       0.37500000      -0.37500000       0.12500000 </v>
   <v>      -0.37500000      -0.37500000       0.12500000 </v>
   <v>      -0.12500000      -0.37500000       0.12500000 </v>
   <v>       0.12500000      -0.12500000       0.12500000 </v>
   <v>       0.37500000      -0.12500000       0.12500000 </v>
   <v>      -0.37500000      -0.12500000       0.12500000 </v>
   <v>      -0.12500000      -0.12500000       0.12500000 </v>
   <v>       0.12500000       0.12500000       0.37500000 </v>
   <v>       0.37500000       0.12500000       0.37500000 </v>
   <v>      -0.37500000       0.12500000       0.37500000 </v>
   <v>      -0.12500000       0.12500000       0.37500000 </v>
   <v>       0.12500000       0.37500000       0.37500000 </v>
   <v>       0.37500000       0.37500000       0.37500000 </v>
   <v>      -0.37500000       0.37500000       0.37500000 </v>
   <v>      -0.12500000       0.37500000       0.37500000 </v>
   <v>       0.12500000      -0.37500000       0.37500000 </v>
   <v>       0.37500000      -0.37500000       0.37500000 </v>
   <v>      -0.37500000      -0.37500000       0.37500000 </v>
   <v>      -0.12500000      -0.37500000       0.37500000 </v>
   <v>       0.12500000      -0.12500000       0.37500000 </v>
   <v>       0.37500000      -0.12500000       0.37500000 </v>
   <v>      -0.37500000      -0.12500000       0.37500000 </v>
   <v>      -0.12500000      -0.12500000       0.37500000 </v>
  </varray>
  <varray name="weights" >
   <v>       0.03125000 </v>
   <v>       0.03125000 </v>
   <v>       0.03125000 </v>
   <v>       0.03125000 </v>
   <v>       0.03125000 </v>
   <v>       0.03125000 </v>
   <v>       0.03125000 </v>
   <v>       0.03125000 </v>
   <v>       0.03125000 </v>
   <v>       0.03125000 </v>
   <v>       0.03125000 </v>
   <v>       0.03125000 </v>
   <v>       0.03125000 </v>
   <v>       0.03125000 </v>
   <v>       0.03125000 </v>
   <v>       0.03125000 </v>
   <v>       0.03125000 </v>
   <v>       0.03125000 </v>
   <v>       0.03125000 </v>
   <v>       0.03125000 </v>
   <v>       0.03125000 </v>
   <v>       0.03125000 </v>
   <v>       0.03125000 </v>
   <v>       0.03125000 </v>
   <v>       0.03125000 </v>
   <v>       0.03125000 </v>
   <v>       0.03125000 </v>
   <v>       0.03125000 </v>
   <v>       0.03125000 </v>
   <v>       0.03125000 </v>
   <v>       0.03125000 </v>
   <v>       0.03125000 </v>
  </varray>
 </kpoints>
 <parameters>
  <separator name="general" >
   <i type="string" name="SYSTEM">Opt</i>
   <i type="logical" name="LCOMPAT"> F  </i>
  </separator>
  <separator name="electronic" >
   <i type="string" name="PREC">normal</i>
   <i name="ENMAX">    400.00000000</i>
   <i name="ENAUG">    511.36800000</i>
   <i name="EDIFF">      0.00000100</i>
   <i type="int" name="IALGO">    68</i>
   <i type="int" name="IWAVPR">    11</i>
   <i type="int" name="NBANDS">   514</i>
   <i name="NELECT">    856.00000000</i>
   <i type="int" name="TURBO">     0</i>
   <i type="int" name="IRESTART">     0</i>
   <i type="int" name="NREBOOT">     0</i>
   <i type="int" name="NMIN">     0</i>
   <i name="EREF">      0.00000000</i>
   <separator name="electronic smearing" >
    <i type="int" name="ISMEAR">     1</i>
    <i name="SIGMA">      0.20000000</i>
    <i name="KSPACING">      0.50000000</i>
    <i type="logical" name="KGAMMA"> T  </i>
   </separator>
   <separator name="electronic projectors" >
    <i type="logical" name="LREAL"> T  </i>
    <v name="ROPT">     -0.00050000</v>
    <i type="int" name="LMAXPAW">  -100</i>
    <i type="int" name="LMAXMIX">     2</i>
    <i type="logical" name="NLSPLINE"> F  </i>
   </separator>
   <separator name="electronic startup" >
    <i type="int" name="ISTART">     0</i>
    <i type="int" name="ICHARG">     2</i>
    <i type="int" name="INIWAV">     1</i>
   </separator>
   <separator name="electronic spin" >
    <i type="int" name="ISPIN">     1</i>
    <i type="logical" name="LNONCOLLINEAR"> F  </i>
    <v name="MAGMOM">      1.00000000      1.00000000      1.00000000      1.00000000      1.00000000      1.00000000      1.00000000      1.00000000      1.00000000      1.00000000      1.00000000      1.00000000      1.00000000      1.00000000      1.00000000      1.00000000      1.00000000      1.00000000      1.00000000      1.00000000
      1.00000000      1.00000000      1.00000000      1.00000000      1.00000000      1.00000000      1.00000000      1.00000000      1.00000000      1.00000000      1.00000000      1.00000000      1.00000000      1.00000000      1.00000000      1.00000000      1.00000000      1.00000000      1.00000000      1.00000000
      1.00000000      1.00000000      1.00000000      1.00000000      1.00000000      1.00000000      1.00000000      1.00000000      1.00000000      1.00000000      1.00000000      1.00000000      1.00000000      1.00000000      1.00000000      1.00000000      1.00000000      1.00000000      1.00000000      1.00000000
      1.00000000      1.00000000      1.00000000      1.00000000      1.00000000      1.00000000      1.00000000      1.00000000      1.00000000      1.00000000      1.00000000      1.00000000      1.00000000      1.00000000      1.00000000      1.00000000      1.00000000      1.00000000      1.00000000      1.00000000
      1.00000000      1.00000000      1.00000000      1.00000000      1.00000000      1.00000000      1.00000000      1.00000000      1.00000000      1.00000000      1.00000000      1.00000000      1.00000000      1.00000000      1.00000000      1.00000000      1.00000000      1.00000000      1.00000000      1.00000000
      1.00000000      1.00000000      1.00000000      1.00000000      1.00000000      1.00000000      1.00000000</v>
    <i name="NUPDOWN">     -1.00000000</i>
    <i type="logical" name="LSORBIT"> F  </i>
    <v name="SAXIS">      0.00000000      0.00000000      1.00000000</v>
    <i type="logical" name="LSPIRAL"> F  </i>
    <v name="QSPIRAL">      0.00000000      0.00000000      0.00000000</v>
    <i type="logical" name="LZEROZ"> F  </i>
   </separator>
   <separator name="electronic exchange-correlation" >
    <i type="logical" name="LASPH"> F  </i>
    <i type="logical" name="LMETAGGA"> F  </i>
   </separator>
   <separator name="electronic convergence" >
    <i type="int" name="NELM">   400</i>
    <i type="int" name="NELMDL">    -5</i>
    <i type="int" name="NELMIN">     2</i>
    <i name="ENINI">    400.00000000</i>
    <separator name="electronic convergence detail" >
     <i type="logical" name="LDIAG"> T  </i>
     <i type="logical" name="LSUBROT"> F  </i>
     <i name="WEIMIN">      0.00100000</i>
     <i name="EBREAK">      0.00000000</i>
     <i name="DEPER">      0.30000000</i>
     <i type="int" name="NRMM">     4</i>
     <i name="TIME">      0.40000000</i>
    </separator>
   </separator>
   <separator name="electronic mixer" >
    <i name="AMIX">      0.40000000</i>
    <i name="BMIX">      1.00000000</i>
    <i name="AMIN">      0.10000000</i>
    <i name="AMIX_MAG">      1.60000000</i>
    <i name="BMIX_MAG">      1.00000000</i>
    <separator name="electronic mixer details" >
     <i type="int" name="IMIX">     4</i>
     <i type="logical" name="MIXFIRST"> F  </i>
     <i type="int" name="MAXMIX">   -45</i>
     <i name="WC">    100.00000000</i>
     <i type="int" name="INIMIX">     1</i>
     <i type="int" name="MIXPRE">     1</i>
     <i type="int" name="MREMOVE">     5</i>
    </separator>
   </separator>
   <separator name="electronic dipolcorrection" >
    <i type="logical" name="LDIPOL"> F  </i>
    <i type="logical" name="LMONO"> F  </i>
    <i type="int" name="IDIPOL">     0</i>
    <i name="EPSILON">      1.00000000</i>
    <v name="DIPOL">   -100.00000000   -100.00000000   -100.00000000</v>
    <i name="EFIELD">      0.00000000</i>
   </separator>
  </separator>
  <separator name="grids" >
   <i type="int" name="NGX">    72</i>
   <i type="int" name="NGY">    72</i>
   <i type="int" name="NGZ">    72</i>
   <i type="int" name="NGXF">   144</i>
   <i type="int" name="NGYF">   144</i>
   <i type="int" name="NGZF">   144</i>
   <i type="logical" name="ADDGRID"> F  </i>
  </separator>
  <separator name="ionic" >
   <i type="int" name="NSW">   100</i>
   <i type="int" name="IBRION">     2</i>
   <i type="int" name="MDALGO">     0</i>
   <i type="int" name="ISIF">     2</i>
   <i name="PSTRESS">      0.00000000</i>
   <i name="EDIFFG">     -0.01000000</i>
   <i type="int" name="NFREE">     1</i>
   <i name="POTIM">      0.50000000</i>
   <i name="SMASS">     -3.00000000</i>
   <i name="SCALEE">      1.00000000</i>
  </separator>
  <separator name="ionic md" >
   <i name="TEBEG">      0.00010000</i>
   <i name="TEEND">      0.00010000</i>
   <i type="int" name="NBLOCK">     1</i>
   <i type="int" name="KBLOCK">   100</i>
   <i type="int" name="NPACO">   256</i>
   <i name="APACO">     16.00000000</i>
  </separator>
  <separator name="symmetry" >
   <i type="int" name="ISYM">     0</i>
   <i name="SYMPREC">      0.00001000</i>
  </separator>
  <separator name="dos" >
   <i type="int" name="LORBIT">     0</i>
   <v name="RWIGS">     -1.00000000</v>
   <i type="int" name="NEDOS">   301</i>
   <i name="EMIN">     10.00000000</i>
   <i name="EMAX">    -10.00000000</i>
   <i name="EFERMI">      0.00000000</i>
  </separator>
  <separator name="writing" >
   <i type="int" name="NWRITE">     2</i>
   <i type="logical" name="LWAVE"> F  </i>
   <i type="logical" name="LDOWNSAMPLE"> F  </i>
   <i type="logical" name="LCHARG"> F  </i>
   <i type="logical" name="LPARD"> F  </i>
   <i type="logical" name="LVTOT"> F  </i>
   <i type="logical" name="LVHAR"> F  </i>
   <i type="logical" name="LELF"> F  </i>
   <i type="logical" name="LOPTICS"> F  </i>
   <v name="STM">      0.00000000      0.00000000      0.00000000      0.00000000      0.00000000      0.00000000      0.00000000</v>
  </separator>
  <separator name="performance" >
   <i type="int" name="NPAR">     2</i>
   <i type="int" name="NSIM">     4</i>
   <i type="int" name="NBLK">    -1</i>
   <i type="logical" name="LPLANE"> T  </i>
   <i type="logical" name="LSCALAPACK"> T  </i>
   <i type="logical" name="LSCAAWARE"> F  </i>
   <i type="logical" name="LSCALU"> F  </i>
   <i type="logical" name="LASYNC"> F  </i>
   <i type="logical" name="LORBITALREAL"> F  </i>
  </separator>
  <separator name="miscellaneous" >
   <i type="int" name="IDIOT">     3</i>
   <i type="int" name="ISPECIAL">     0</i>
   <i type="logical" name="LMUSIC"> F  </i>
   <v name="POMASS">     55.84700000</v>
   <v name="DARWINR">      0.00000000</v>
   <v name="DARWINV">      1.00000000</v>
   <i type="logical" name="LCORR"> T  </i>
  </separator>
  <i type="logical" name="GGA_COMPAT"> T  </i>
  <i type="logical" name="LBERRY"> F  </i>
  <i type="int" name="ICORELEVEL">     0</i>
  <i type="logical" name="LDAU"> F  </i>
  <i type="int" name="I_CONSTRAINED_M">     0</i>
  <separator name="electronic exchange-correlation" >
   <i type="string" name="GGA">--</i>
   <i type="int" name="VOSKOWN">     0</i>
   <i type="logical" name="LHFCALC"> F  </i>
   <i type="string" name="PRECFOCK"></i>
   <i type="logical" name="LSYMGRAD"> F  </i>
   <i type="logical" name="LHFONE"> F  </i>
   <i type="logical" name="LRHFCALC"> F  </i>
   <i type="logical" name="LTHOMAS"> F  </i>
   <i type="logical" name="LMODELHF"> F  </i>
   <i name="ENCUT4O">     -1.00000000</i>
   <i type="int" name="EXXOEP">     0</i>
   <i type="int" name="FOURORBIT">     0</i>
   <i name="AEXX">      0.00000000</i>
   <i name="HFALPHA">      0.00000000</i>
   <i name="MCALPHA">      0.00000000</i>
   <i name="ALDAX">      1.00000000</i>
   <i name="AGGAX">      1.00000000</i>
   <i name="ALDAC">      1.00000000</i>
   <i name="AGGAC">      1.00000000</i>
   <i type="int" name="NKREDX">     1</i>
   <i type="int" name="NKREDY">     1</i>
   <i type="int" name="NKREDZ">     1</i>
   <i type="logical" name="SHIFTRED"> F  </i>
   <i type="logical" name="ODDONLY"> F  </i>
   <i type="logical" name="EVENONLY"> F  </i>
   <i type="int" name="LMAXFOCK">     0</i>
   <i type="int" name="NMAXFOCKAE">     0</i>
   <i type="logical" name="LFOCKAEDFT"> F  </i>
   <i name="HFSCREEN">      0.00000000</i>
   <i name="HFSCREENC">      0.00000000</i>
   <i type="int" name="NBANDSGWLOW">     0</i>
  </separator>
  <separator name="vdW DFT" >
   <i type="logical" name="LUSE_VDW"> F  </i>
   <i name="Zab_VDW">     -0.84910000</i>
   <i name="PARAM1">      0.12340000</i>
   <i name="PARAM2">      1.00000000</i>
   <i name="PARAM3">      0.00000000</i>
  </separator>
  <separator name="model GW" >
   <i type="int" name="MODEL_GW">     0</i>
   <i name="MODEL_EPS0">      6.18984300</i>
   <i name="MODEL_ALPHA">      1.00000000</i>
  </separator>
  <separator name="linear response parameters" >
   <i type="logical" name="LEPSILON"> F  </i>
   <i type="logical" name="LRPA"> F  </i>
   <i type="logical" name="LNABLA"> F  </i>
   <i type="logical" name="LVEL"> F  </i>
   <i type="int" name="KINTER">     0</i>
   <i name="CSHIFT">      0.10000000</i>
   <i name="OMEGAMAX">     -1.00000000</i>
   <i name="DEG_THRESHOLD">      0.00200000</i>
   <i name="RTIME">     -0.10000000</i>
   <i name="WPLASMAI">      0.00000000</i>
   <v name="DFIELD">      0.00000000      0.00000000      0.00000000</v>
   <v name="WPLASMA">      0.00000000      0.00000000      0.00000000      0.00000000      0.00000000      0.00000000      0.00000000      0.00000000      0.00000000</v>
  </separator>
  <separator name="orbital magnetization" >
   <i type="logical" name="NUCIND"> F  </i>
   <v name="MAGPOS">      0.00000000      0.00000000      0.00000000</v>
   <i type="logical" name="LNICSALL"> T  </i>
   <i type="logical" name="ORBITALMAG"> F  </i>
   <i type="logical" name="LMAGBLOCH"> F  </i>
   <i type="logical" name="LCHIMAG"> F  </i>
   <i type="logical" name="LGAUGE"> T  </i>
   <i type="int" name="MAGATOM">     0</i>
   <v name="MAGDIPOL">      0.00000000      0.00000000      0.00000000</v>
   <v name="AVECCONST">      0.00000000      0.00000000      0.00000000</v>
  </separator>
  <separator name="response functions" >
   <i type="logical" name="LADDER"> F  </i>
   <i type="logical" name="LRPAFORCE"> F  </i>
   <i type="logical" name="LFXC"> F  </i>
   <i type="logical" name="LHARTREE"> T  </i>
   <i type="int" name="IBSE">     0</i>
   <v type="int" name="KPOINT">    -1     0     0     0</v>
   <i type="logical" name="LTCTE"> F  </i>
   <i type="logical" name="LTETE"> F  </i>
   <i type="logical" name="LTRIPLET"> F  </i>
   <i type="logical" name="LFXCEPS"> F  </i>
   <i type="logical" name="LFXHEG"> F  </i>
   <i type="int" name="NATURALO">     2</i>
   <i type="logical" name="L2ORDER"> F  </i>
   <i type="logical" name="LMP2LT"> F  </i>
   <i type="logical" name="LUSEW"> F  </i>
   <i name="ENCUTGW">     -2.00000000</i>
   <i name="ENCUTGWSOFT">     -2.00000000</i>
   <i name="ENCUTLF">     -1.00000000</i>
   <i type="int" name="LMAXMP2">    -1</i>
   <i name="SCISSOR">      0.00000000</i>
   <i type="int" name="NOMEGA">     0</i>
   <i type="int" name="NOMEGAR">     0</i>
   <i type="int" name="NBANDSGW">    -1</i>
   <i type="int" name="NBANDSO">    -1</i>
   <i type="int" name="NBANDSV">    -1</i>
   <i type="int" name="NELM">   400</i>
   <i type="int" name="NELMHF">     1</i>
   <i type="int" name="DIM">     3</i>
   <i type="int" name="ANTIRES">     0</i>
   <i name="OMEGAMAX">    -30.00000000</i>
   <i name="OMEGAMIN">    -30.00000000</i>
   <i name="OMEGATL">   -200.00000000</i>
   <i type="int" name="OMEGAGRID">   140</i>
   <i name="CSHIFT">     -0.10000000</i>
   <i type="logical" name="SELFENERGY"> F  </i>
   <i type="logical" name="LSPECTRAL"> F  </i>
   <i type="logical" name="LSPECTRALGW"> F  </i>
   <i type="logical" name="LSINGLES"> F  </i>
   <i type="logical" name="LFERMIGW"> F  </i>
   <i type="logical" name="ODDONLYGW"> F  </i>
   <i type="logical" name="EVENONLYGW"> F  </i>
   <i type="int" name="NKREDLFX">     1</i>
   <i type="int" name="NKREDLFY">     1</i>
   <i type="int" name="NKREDLFZ">     1</i>
   <i type="int" name="MAXMEM">  2800</i>
   <i type="int" name="TELESCOPE">     0</i>
   <i type="int" name="TAUPAR">     1</i>
   <i type="int" name="OMEGAPAR">    -1</i>
   <i name="LAMBDA">      1.00000000</i>
  </separator>
  <separator name="External order field" >
   <i name="OFIELD_KAPPA">      0.00000000</i>
   <v name="OFIELD_K">      0.00000000      0.00000000      0.00000000</v>
   <i name="OFIELD_Q6_NEAR">      0.00000000</i>
   <i name="OFIELD_Q6_FAR">      0.00000000</i>
   <i name="OFIELD_A">      0.00000000</i>
  </separator>
 </parameters>
 <atominfo>
  <atoms>     107 </atoms>
  <types>       1 </types>
  <array name="atoms" >
   <dimension dim="1">ion</dimension>
   <field type="string">element</field>
   <field type="int">atomtype</field>
   <set>
    <rc><c>Fe</c><c>   1</c></rc>
    <rc><c>Fe</c><c>   1</c></rc>
    <rc><c>Fe</c><c>   1</c></rc>
    <rc><c>Fe</c><c>   1</c></rc>
    <rc><c>Fe</c><c>   1</c></rc>
    <rc><c>Fe</c><c>   1</c></rc>
    <rc><c>Fe</c><c>   1</c></rc>
    <rc><c>Fe</c><c>   1</c></rc>
    <rc><c>Fe</c><c>   1</c></rc>
    <rc><c>Fe</c><c>   1</c></rc>
    <rc><c>Fe</c><c>   1</c></rc>
    <rc><c>Fe</c><c>   1</c></rc>
    <rc><c>Fe</c><c>   1</c></rc>
    <rc><c>Fe</c><c>   1</c></rc>
    <rc><c>Fe</c><c>   1</c></rc>
    <rc><c>Fe</c><c>   1</c></rc>
    <rc><c>Fe</c><c>   1</c></rc>
    <rc><c>Fe</c><c>   1</c></rc>
    <rc><c>Fe</c><c>   1</c></rc>
    <rc><c>Fe</c><c>   1</c></rc>
    <rc><c>Fe</c><c>   1</c></rc>
    <rc><c>Fe</c><c>   1</c></rc>
    <rc><c>Fe</c><c>   1</c></rc>
    <rc><c>Fe</c><c>   1</c></rc>
    <rc><c>Fe</c><c>   1</c></rc>
    <rc><c>Fe</c><c>   1</c></rc>
    <rc><c>Fe</c><c>   1</c></rc>
    <rc><c>Fe</c><c>   1</c></rc>
    <rc><c>Fe</c><c>   1</c></rc>
    <rc><c>Fe</c><c>   1</c></rc>
    <rc><c>Fe</c><c>   1</c></rc>
    <rc><c>Fe</c><c>   1</c></rc>
    <rc><c>Fe</c><c>   1</c></rc>
    <rc><c>Fe</c><c>   1</c></rc>
    <rc><c>Fe</c><c>   1</c></rc>
    <rc><c>Fe</c><c>   1</c></rc>
    <rc><c>Fe</c><c>   1</c></rc>
    <rc><c>Fe</c><c>   1</c></rc>
    <rc><c>Fe</c><c>   1</c></rc>
    <rc><c>Fe</c><c>   1</c></rc>
    <rc><c>Fe</c><c>   1</c></rc>
    <rc><c>Fe</c><c>   1</c></rc>
    <rc><c>Fe</c><c>   1</c></rc>
    <rc><c>Fe</c><c>   1</c></rc>
    <rc><c>Fe</c><c>   1</c></rc>
    <rc><c>Fe</c><c>   1</c></rc>
    <rc><c>Fe</c><c>   1</c></rc>
    <rc><c>Fe</c><c>   1</c></rc>
    <rc><c>Fe</c><c>   1</c></rc>
    <rc><c>Fe</c><c>   1</c></rc>
    <rc><c>Fe</c><c>   1</c></rc>
    <rc><c>Fe</c><c>   1</c></rc>
    <rc><c>Fe</c><c>   1</c></rc>
    <rc><c>Fe</c><c>   1</c></rc>
    <rc><c>Fe</c><c>   1</c></rc>
    <rc><c>Fe</c><c>   1</c></rc>
    <rc><c>Fe</c><c>   1</c></rc>
    <rc><c>Fe</c><c>   1</c></rc>
    <rc><c>Fe</c><c>   1</c></rc>
    <rc><c>Fe</c><c>   1</c></rc>
    <rc><c>Fe</c><c>   1</c></rc>
    <rc><c>Fe</c><c>   1</c></rc>
    <rc><c>Fe</c><c>   1</c></rc>
    <rc><c>Fe</c><c>   1</c></rc>
    <rc><c>Fe</c><c>   1</c></rc>
    <rc><c>Fe</c><c>   1</c></rc>
    <rc><c>Fe</c><c>   1</c></rc>
    <rc><c>Fe</c><c>   1</c></rc>
    <rc><c>Fe</c><c>   1</c></rc>
    <rc><c>Fe</c><c>   1</c></rc>
    <rc><c>Fe</c><c>   1</c></rc>
    <rc><c>Fe</c><c>   1</c></rc>
    <rc><c>Fe</c><c>   1</c></rc>
    <rc><c>Fe</c><c>   1</c></rc>
    <rc><c>Fe</c><c>   1</c></rc>
    <rc><c>Fe</c><c>   1</c></rc>
    <rc><c>Fe</c><c>   1</c></rc>
    <rc><c>Fe</c><c>   1</c></rc>
    <rc><c>Fe</c><c>   1</c></rc>
    <rc><c>Fe</c><c>   1</c></rc>
    <rc><c>Fe</c><c>   1</c></rc>
    <rc><c>Fe</c><c>   1</c></rc>
    <rc><c>Fe</c><c>   1</c></rc>
    <rc><c>Fe</c><c>   1</c></rc>
    <rc><c>Fe</c><c>   1</c></rc>
    <rc><c>Fe</c><c>   1</c></rc>
    <rc><c>Fe</c><c>   1</c></rc>
    <rc><c>Fe</c><c>   1</c></rc>
    <rc><c>Fe</c><c>   1</c></rc>
    <rc><c>Fe</c><c>   1</c></rc>
    <rc><c>Fe</c><c>   1</c></rc>
    <rc><c>Fe</c><c>   1</c></rc>
    <rc><c>Fe</c><c>   1</c></rc>
    <rc><c>Fe</c><c>   1</c></rc>
    <rc><c>Fe</c><c>   1</c></rc>
    <rc><c>Fe</c><c>   1</c></rc>
    <rc><c>Fe</c><c>   1</c></rc>
    <rc><c>Fe</c><c>   1</c></rc>
    <rc><c>Fe</c><c>   1</c></rc>
    <rc><c>Fe</c><c>   1</c></rc>
    <rc><c>Fe</c><c>   1</c></rc>
    <rc><c>Fe</c><c>   1</c></rc>
    <rc><c>Fe</c><c>   1</c></rc>
    <rc><c>Fe</c><c>   1</c></rc>
    <rc><c>Fe</c><c>   1</c></rc>
    <rc><c>Fe</c><c>   1</c></rc>
    <rc><c>Fe</c><c>   1</c></rc>
   </set>
  </array>
  <array name="atomtypes" >
   <dimension dim="1">type</dimension>
   <field type="int">atomspertype</field>
   <field type="string">element</field>
   <field>mass</field>
   <field>valence</field>
   <field type="string">pseudopotential</field>
   <set>
    <rc><c> 107</c><c>Fe</c><c>     55.84700000</c><c>      8.00000000</c><c> PAW_PBE Fe 06Sep2000                   </c></rc>
   </set>
  </array>
 </atominfo>
 <structure name="initialpos" >
  <crystal>
   <varray name="basis" >
    <v>      10.33484705       0.00000000       0.00000000 </v>
    <v>       0.00000000      10.33484705       0.00000000 </v>
    <v>       0.00000000       0.00000000      10.33484705 </v>
   </varray>
   <i name="volume">   1103.85533447 </i>
   <varray name="rec_basis" >
    <v>       0.09676002       0.00000000       0.00000000 </v>
    <v>       0.00000000       0.09676002       0.00000000 </v>
    <v>       0.00000000       0.00000000       0.09676002 </v>
   </varray>
  </crystal>
  <varray name="positions" >
   <v>       0.00000000       0.00000000       0.00000000 </v>
   <v>       0.00000000       0.16666893       0.16666893 </v>
   <v>       0.00000000       0.33333106       0.00000000 </v>
   <v>       0.00000000       0.50000000       0.16666894 </v>
   <v>       0.00000000       0.66666897       0.00000000 </v>
   <v>       0.00000000       0.83333104       0.16666893 </v>
   <v>       0.00000000       0.00000000       0.33333106 </v>
   <v>       0.00000000       0.16666894       0.50000000 </v>
   <v>       0.00000000       0.33333107       0.33333107 </v>
   <v>       0.00000000       0.50000000       0.50000000 </v>
   <v>       0.00000000       0.66666896       0.33333107 </v>
   <v>       0.00000000       0.83333103       0.50000000 </v>
   <v>       0.00000000       0.00000000       0.66666897 </v>
   <v>       0.00000000       0.16666893       0.83333104 </v>
   <v>       0.00000000       0.33333107       0.66666896 </v>
   <v>       0.00000000       0.50000000       0.83333103 </v>
   <v>       0.00000000       0.66666896       0.66666896 </v>
   <v>       0.00000000       0.83333104       0.83333104 </v>
   <v>       0.16666893       0.00000000       0.16666893 </v>
   <v>       0.16666893       0.16666893       0.00000000 </v>
   <v>       0.16666893       0.83333104       0.00000000 </v>
   <v>       0.16666893       0.33333107       0.50000000 </v>
   <v>       0.16666893       0.50000000       0.33333107 </v>
   <v>       0.16666893       0.66666896       0.50000000 </v>
   <v>       0.16666893       0.00000000       0.83333104 </v>
   <v>       0.16666893       0.50000000       0.66666896 </v>
   <v>       0.16666893       0.33333107       0.16666893 </v>
   <v>       0.16666893       0.66666896       0.16666893 </v>
   <v>       0.16666893       0.16666893       0.33333107 </v>
   <v>       0.16666893       0.83333104       0.33333107 </v>
   <v>       0.16666893       0.16666893       0.66666896 </v>
   <v>       0.16666893       0.33333107       0.83333104 </v>
   <v>       0.16666893       0.66666896       0.83333104 </v>
   <v>       0.16666893       0.83333104       0.66666896 </v>
   <v>       0.16666894       0.50000000       0.00000000 </v>
   <v>       0.16666894       0.00000000       0.50000000 </v>
   <v>       0.33333106       0.00000000       0.00000000 </v>
   <v>       0.33333107       0.16666893       0.16666893 </v>
   <v>       0.33333107       0.83333104       0.16666893 </v>
   <v>       0.33333107       0.33333107       0.33333107 </v>
   <v>       0.33333107       0.66666896       0.33333107 </v>
   <v>       0.33333107       0.16666893       0.83333104 </v>
   <v>       0.33333107       0.33333107       0.66666896 </v>
   <v>       0.33333107       0.66666896       0.66666896 </v>
   <v>       0.33333107       0.83333104       0.83333104 </v>
   <v>       0.33333107       0.33333107       0.00000000 </v>
   <v>       0.33333107       0.50000000       0.16666893 </v>
   <v>       0.33333107       0.66666896       0.00000000 </v>
   <v>       0.33333107       0.00000000       0.33333107 </v>
   <v>       0.33333107       0.16666893       0.50000000 </v>
   <v>       0.33333107       0.83333104       0.50000000 </v>
   <v>       0.33333107       0.00000000       0.66666896 </v>
   <v>       0.33333107       0.50000000       0.83333104 </v>
   <v>       0.50000000       0.00000000       0.16666894 </v>
   <v>       0.50000000       0.16666894       0.00000000 </v>
   <v>       0.50000000       0.33333107       0.16666893 </v>
   <v>       0.50000000       0.50000000       0.00000000 </v>
   <v>       0.50000000       0.66666896       0.16666893 </v>
   <v>       0.50000000       0.83333103       0.00000000 </v>
   <v>       0.50000000       0.00000000       0.50000000 </v>
   <v>       0.50000000       0.16666893       0.33333107 </v>
   <v>       0.50000000       0.33333106       0.50000000 </v>
   <v>       0.50000000       0.50000000       0.33333106 </v>
   <v>       0.50000000       0.66666897       0.50000000 </v>
   <v>       0.50000000       0.83333104       0.33333107 </v>
   <v>       0.50000000       0.00000000       0.83333103 </v>
   <v>       0.50000000       0.16666893       0.66666896 </v>
   <v>       0.50000000       0.33333107       0.83333104 </v>
   <v>       0.50000000       0.66666896       0.83333104 </v>
   <v>       0.50000000       0.83333104       0.66666896 </v>
   <v>       0.66666896       0.33333107       0.00000000 </v>
   <v>       0.66666896       0.50000000       0.16666893 </v>
   <v>       0.66666896       0.66666896       0.00000000 </v>
   <v>       0.66666896       0.00000000       0.33333107 </v>
   <v>       0.66666896       0.16666893       0.50000000 </v>
   <v>       0.66666896       0.83333104       0.50000000 </v>
   <v>       0.66666896       0.00000000       0.66666896 </v>
   <v>       0.66666896       0.50000000       0.83333104 </v>
   <v>       0.66666896       0.16666893       0.16666893 </v>
   <v>       0.66666896       0.83333104       0.16666893 </v>
   <v>       0.66666896       0.33333107       0.33333107 </v>
   <v>       0.66666896       0.66666896       0.33333107 </v>
   <v>       0.66666896       0.16666893       0.83333104 </v>
   <v>       0.66666896       0.33333107       0.66666896 </v>
   <v>       0.66666896       0.66666896       0.66666896 </v>
   <v>       0.66666896       0.83333104       0.83333104 </v>
   <v>       0.66666897       0.00000000       0.00000000 </v>
   <v>       0.66666897       0.50000000       0.50000000 </v>
   <v>       0.83333103       0.50000000       0.00000000 </v>
   <v>       0.83333103       0.00000000       0.50000000 </v>
   <v>       0.83333104       0.33333107       0.16666893 </v>
   <v>       0.83333104       0.66666896       0.16666893 </v>
   <v>       0.83333104       0.16666893       0.33333107 </v>
   <v>       0.83333104       0.83333104       0.33333107 </v>
   <v>       0.83333104       0.16666893       0.66666896 </v>
   <v>       0.83333104       0.33333107       0.83333104 </v>
   <v>       0.83333104       0.66666896       0.83333104 </v>
   <v>       0.83333104       0.83333104       0.66666896 </v>
   <v>       0.83333104       0.00000000       0.16666893 </v>
   <v>       0.83333104       0.16666893       0.00000000 </v>
   <v>       0.83333104       0.83333104       0.00000000 </v>
   <v>       0.83333104       0.33333107       0.50000000 </v>
   <v>       0.83333104       0.50000000       0.33333107 </v>
   <v>       0.83333104       0.66666896       0.50000000 </v>
   <v>       0.83333104       0.00000000       0.83333104 </v>
   <v>       0.83333104       0.50000000       0.66666896 </v>
   <v>       0.33333106       0.50000000       0.50000000 </v>
  </varray>
 </structure>
 <calculation>
  <scstep>
   <time name="dav">  584.77  585.16</time>
   <time name="total">  585.29  585.68</time>
   <energy>
    <i name="alphaZ">   7165.75404585 </i>
    <i name="ewald"> -65132.79052616 </i>
    <i name="hartreedc"> -11421.99766876 </i>
    <i name="XCdc">    440.44462655 </i>
    <i name="pawpsdc">  51244.96395782 </i>
    <i name="pawaedc"> -52061.72305433 </i>
    <i name="eentropy">      0.02107684 </i>
    <i name="bandstr">  13667.60918236 </i>
    <i name="atom">  63607.21096501 </i>
    <i name="e_fr_energy">   7509.49260519 </i>
    <i name="e_wo_entrp">   7509.47152834 </i>
    <i name="e_0_energy">   7509.48557957 </i>
   </energy>
  </scstep>
  <scstep>
   <time name="dav">  531.04  531.37</time>
   <time name="total">  531.09  531.41</time>
   <energy>
    <i name="e_fr_energy">    -26.17288980 </i>
    <i name="e_wo_entrp">    -26.17120468 </i>
    <i name="e_0_energy">    -26.17232809 </i>
   </energy>
  </scstep>
  <scstep>
   <time name="dav">  484.78  485.05</time>
   <time name="total">  484.83  485.10</time>
   <energy>
    <i name="e_fr_energy">   -841.90989955 </i>
    <i name="e_wo_entrp">   -841.92964126 </i>
    <i name="e_0_energy">   -841.91648012 </i>
   </energy>
  </scstep>
  <scstep>
   <time name="dav">  766.81  767.28</time>
   <time name="total">  766.87  767.34</time>
   <energy>
    <i name="e_fr_energy">  -1017.57908037 </i>
    <i name="e_wo_entrp">  -1017.53873675 </i>
    <i name="e_0_energy">  -1017.56563250 </i>
   </energy>
  </scstep>
  <scstep>
   <time name="dav">  668.37  668.51</time>
   <time name="total">  682.97  683.11</time>
   <energy>
    <i name="e_fr_energy">  -1032.60519207 </i>
    <i name="e_wo_entrp">  -1032.54661349 </i>
    <i name="e_0_energy">  -1032.58566588 </i>
   </energy>
  </scstep>
  <scstep>
   <time name="diag">   44.61   44.61</time>
   <time name="diis">  187.94  187.98</time>
   <time name="orth">   11.22   11.23</time>
   <time name="total">  259.56  259.62</time>
   <energy>
    <i name="e_fr_energy">   -886.74554478 </i>
    <i name="e_wo_entrp">   -886.78454975 </i>
    <i name="e_0_energy">   -886.75854643 </i>
   </energy>
  </scstep>
  <scstep>
   <time name="diag">   44.54   44.56</time>
   <time name="diis">  251.38  251.44</time>
   <time name="orth">   10.29   10.29</time>
   <time name="total">  320.71  320.80</time>
   <energy>
    <i name="e_fr_energy">  -1176.34082122 </i>
    <i name="e_wo_entrp">  -1176.32636175 </i>
    <i name="e_0_energy">  -1176.33600140 </i>
   </energy>
  </scstep>
  <scstep>
   <time name="diag">   41.49   41.51</time>
   <time name="diis">  195.83  195.88</time>
   <time name="orth">   10.31   10.32</time>
   <time name="total">  262.15  262.24</time>
   <energy>
    <i name="e_fr_energy">   -875.70395182 </i>
    <i name="e_wo_entrp">   -875.61161191 </i>
    <i name="e_0_energy">   -875.67317185 </i>
   </energy>
  </scstep>
  <scstep>
   <time name="diag">   41.72   41.72</time>
   <time name="diis">  242.74  242.78</time>
   <time name="orth">   11.35   11.35</time>
   <time name="total">  314.69  314.73</time>
   <energy>
    <i name="e_fr_energy">   -869.88749058 </i>
    <i name="e_wo_entrp">   -869.83086963 </i>
    <i name="e_0_energy">   -869.86861693 </i>
   </energy>
  </scstep>
  <scstep>
   <time name="diag">   51.81   51.81</time>
   <time name="diis">  327.67  327.72</time>
   <time name="orth">   10.75   10.76</time>
   <time name="total">  408.48  408.54</time>
   <energy>
    <i name="e_fr_energy">   -873.33014695 </i>
    <i name="e_wo_entrp">   -873.29625022 </i>
    <i name="e_0_energy">   -873.31884804 </i>
   </energy>
  </scstep>
  <scstep>
   <time name="diag">   55.06   55.09</time>
   <time name="diis">  260.87  260.92</time>
   <time name="orth">   10.82   10.82</time>
   <time name="total">  343.90  343.97</time>
   <energy>
    <i name="e_fr_energy">   -870.93811432 </i>
    <i name="e_wo_entrp">   -870.90431862 </i>
    <i name="e_0_energy">   -870.92684909 </i>
   </energy>
  </scstep>
  <scstep>
   <time name="diag">   51.71   51.73</time>
   <time name="diis">  338.89  338.97</time>
   <time name="orth">   11.28   11.29</time>
   <time name="total">  419.15  419.26</time>
   <energy>
    <i name="e_fr_energy">   -870.69069024 </i>
    <i name="e_wo_entrp">   -870.64624692 </i>
    <i name="e_0_energy">   -870.67587580 </i>
   </energy>
  </scstep>
  <scstep>
   <time name="diag">   49.42   49.43</time>
   <time name="diis">  244.57  244.65</time>
   <time name="orth">   10.86   10.86</time>
   <time name="total">  322.90  322.99</time>
   <energy>
    <i name="e_fr_energy">   -869.37470061 </i>
    <i name="e_wo_entrp">   -869.31304220 </i>
    <i name="e_0_energy">   -869.35414781 </i>
   </energy>
  </scstep>
  <scstep>
   <time name="diag">   58.07   58.10</time>
   <time name="diis">  354.81  354.99</time>
   <time name="orth">   10.10   10.10</time>
   <time name="total">  439.31  439.55</time>
   <energy>
    <i name="e_fr_energy">   -869.45153722 </i>
    <i name="e_wo_entrp">   -869.38906858 </i>
    <i name="e_0_energy">   -869.43071434 </i>
   </energy>
  </scstep>
  <scstep>
   <time name="diag">   51.18   51.22</time>
   <time name="diis">  317.22  317.34</time>
   <time name="orth">   10.28   10.28</time>
   <time name="total">  395.82  395.98</time>
   <energy>
    <i name="e_fr_energy">   -869.31448599 </i>
    <i name="e_wo_entrp">   -869.24958775 </i>
    <i name="e_0_energy">   -869.29285324 </i>
   </energy>
  </scstep>
  <scstep>
   <time name="diag">   52.47   52.48</time>
   <time name="diis">  308.70  308.87</time>
   <time name="orth">   10.41   10.41</time>
   <time name="total">  387.54  387.74</time>
   <energy>
    <i name="e_fr_energy">   -869.18777959 </i>
    <i name="e_wo_entrp">   -869.12226788 </i>
    <i name="e_0_energy">   -869.16594235 </i>
   </energy>
  </scstep>
  <scstep>
   <time name="diag">   53.36   53.40</time>
   <time name="diis">  282.72  282.89</time>
   <time name="orth">    9.95    9.95</time>
   <time name="total">  365.01  365.23</time>
   <energy>
    <i name="e_fr_energy">   -869.06578482 </i>
    <i name="e_wo_entrp">   -868.99991121 </i>
    <i name="e_0_energy">   -869.04382695 </i>
   </energy>
  </scstep>
  <scstep>
   <time name="diag">   64.16   64.20</time>
   <time name="diis">  304.58  304.72</time>
   <time name="orth">   10.28   10.29</time>
   <time name="total">  397.51  397.71</time>
   <energy>
    <i name="e_fr_energy">   -868.95589037 </i>
    <i name="e_wo_entrp">   -868.89046264 </i>
    <i name="e_0_energy">   -868.93408113 </i>
   </energy>
  </scstep>
  <scstep>
   <time name="diag">   56.82   56.85</time>
   <time name="diis">  398.89  399.17</time>
   <time name="orth">   10.54   10.54</time>
   <time name="total">  488.84  489.19</time>
   <energy>
    <i name="e_fr_energy">   -868.97032573 </i>
    <i name="e_wo_entrp">   -868.90541442 </i>
    <i name="e_0_energy">   -868.94868863 </i>
   </energy>
  </scstep>
  <scstep>
   <time name="diag">   70.06   70.11</time>
   <time name="diis">  354.24  354.47</time>
   <time name="orth">   10.38   10.38</time>
   <time name="total">  453.74  454.03</time>
   <energy>
    <i name="e_fr_energy">   -868.97499353 </i>
    <i name="e_wo_entrp">   -868.91116022 </i>
    <i name="e_0_energy">   -868.95371576 </i>
   </energy>
  </scstep>
  <scstep>
   <time name="diag">   72.99   73.04</time>
   <time name="diis">  333.76  333.97</time>
   <time name="orth">   11.56   11.57</time>
   <time name="total">  439.30  439.57</time>
   <energy>
    <i name="e_fr_energy">   -868.97319059 </i>
    <i name="e_wo_entrp">   -868.90969923 </i>
    <i name="e_0_energy">   -868.95202680 </i>
   </energy>
  </scstep>
  <scstep>
   <time name="diag">   74.67   74.70</time>
   <time name="diis">  331.62  331.80</time>
   <time name="orth">   11.12   11.12</time>
   <time name="total">  436.57  436.80</time>
   <energy>
    <i name="e_fr_energy">   -868.97174366 </i>
    <i name="e_wo_entrp">   -868.90836165 </i>
    <i name="e_0_energy">   -868.95061633 </i>
   </energy>
  </scstep>
  <scstep>
   <time name="diag">   69.97   70.01</time>
   <time name="diis">  306.83  307.04</time>
   <time name="orth">   11.56   11.57</time>
   <time name="total">  408.29  408.57</time>
   <energy>
    <i name="e_fr_energy">   -868.96703460 </i>
    <i name="e_wo_entrp">   -868.90358633 </i>
    <i name="e_0_energy">   -868.94588518 </i>
   </energy>
  </scstep>
  <scstep>
   <time name="diag">   63.92   63.96</time>
   <time name="diis">  399.95  400.22</time>
   <time name="orth">   11.53   11.53</time>
   <time name="total">  495.48  495.81</time>
   <energy>
    <i name="e_fr_energy">   -868.96662142 </i>
    <i name="e_wo_entrp">   -868.90316750 </i>
    <i name="e_0_energy">   -868.94547011 </i>
   </energy>
  </scstep>
  <scstep>
   <time name="diag">   63.55   63.58</time>
   <time name="diis">  338.49  338.62</time>
   <time name="orth">   11.34   11.34</time>
   <time name="total">  433.46  433.63</time>
   <energy>
    <i name="e_fr_energy">   -868.96502045 </i>
    <i name="e_wo_entrp">   -868.90132891 </i>
    <i name="e_0_energy">   -868.94378994 </i>
   </energy>
  </scstep>
  <scstep>
   <time name="diag">   62.79   62.81</time>
   <time name="diis">  407.25  407.37</time>
   <time name="orth">   11.79   11.79</time>
   <time name="total">  501.95  502.10</time>
   <energy>
    <i name="e_fr_energy">   -868.96500578 </i>
    <i name="e_wo_entrp">   -868.90141601 </i>
    <i name="e_0_energy">   -868.94380919 </i>
   </energy>
  </scstep>
  <scstep>
   <time name="diag">   65.22   65.23</time>
   <time name="diis">  376.29  376.40</time>
   <time name="orth">   13.07   13.07</time>
   <time name="total">  479.06  479.20</time>
   <energy>
    <i name="e_fr_energy">   -868.96495628 </i>
    <i name="e_wo_entrp">   -868.90140496 </i>
    <i name="e_0_energy">   -868.94377251 </i>
   </energy>
  </scstep>
  <scstep>
   <time name="diag">   66.26   66.27</time>
   <time name="diis">  327.53  327.57</time>
   <time name="orth">   14.24   14.24</time>
   <time name="total">  437.25  437.31</time>
   <energy>
    <i name="e_fr_energy">   -868.96492316 </i>
    <i name="e_wo_entrp">   -868.90146031 </i>
    <i name="e_0_energy">   -868.94376887 </i>
   </energy>
  </scstep>
  <scstep>
   <time name="diag">   84.09   84.10</time>
   <time name="diis">  401.06  401.15</time>
   <time name="orth">   11.26   11.26</time>
   <time name="total">  515.24  515.34</time>
   <energy>
    <i name="e_fr_energy">   -868.96491998 </i>
    <i name="e_wo_entrp">   -868.90154758 </i>
    <i name="e_0_energy">   -868.94379584 </i>
   </energy>
  </scstep>
  <scstep>
   <time name="diag">   66.54   66.57</time>
   <time name="diis">  313.19  313.26</time>
   <time name="orth">   11.88   11.88</time>
   <time name="total">  412.80  412.91</time>
   <energy>
    <i name="e_fr_energy">   -868.96489557 </i>
    <i name="e_wo_entrp">   -868.90161298 </i>
    <i name="e_0_energy">   -868.94380137 </i>
   </energy>
  </scstep>
  <scstep>
   <time name="diag">   64.37   64.38</time>
   <time name="diis">  262.30  262.38</time>
   <time name="orth">   14.60   14.60</time>
   <time name="total">  365.39  365.50</time>
   <energy>
    <i name="e_fr_energy">   -868.96488948 </i>
    <i name="e_wo_entrp">   -868.90167127 </i>
    <i name="e_0_energy">   -868.94381674 </i>
   </energy>
  </scstep>
  <scstep>
   <time name="diag">   71.26   71.28</time>
   <time name="diis">  199.45  199.55</time>
   <time name="orth">   12.75   12.75</time>
   <time name="total">  305.84  305.97</time>
   <energy>
    <i name="e_fr_energy">   -868.96488426 </i>
    <i name="e_wo_entrp">   -868.90172412 </i>
    <i name="e_0_energy">   -868.94383088 </i>
   </energy>
  </scstep>
  <scstep>
   <time name="diag">   71.67   71.68</time>
   <time name="diis">  175.44  175.48</time>
   <time name="orth">   12.46   12.46</time>
   <time name="total">  279.64  279.70</time>
   <energy>
    <i name="e_fr_energy">   -868.96487984 </i>
    <i name="e_wo_entrp">   -868.90177272 </i>
    <i name="e_0_energy">   -868.94384414 </i>
   </energy>
  </scstep>
  <scstep>
   <time name="diag">   72.58   72.60</time>
   <time name="diis">  187.68  187.74</time>
   <time name="orth">   11.78   11.79</time>
   <time name="total">  292.68  292.77</time>
   <energy>
    <i name="e_fr_energy">   -868.96487727 </i>
    <i name="e_wo_entrp">   -868.90181666 </i>
    <i name="e_0_energy">   -868.94385707 </i>
   </energy>
  </scstep>
  <scstep>
   <time name="diag">   59.16   59.17</time>
   <time name="diis">  187.28  187.32</time>
   <time name="orth">   14.43   14.43</time>
   <time name="total">  284.59  284.65</time>
   <energy>
    <i name="e_fr_energy">   -868.96487562 </i>
    <i name="e_wo_entrp">   -868.90185844 </i>
    <i name="e_0_energy">   -868.94386989 </i>
   </energy>
  </scstep>
  <scstep>
   <time name="diag">   74.31   74.35</time>
   <time name="diis">  166.52  166.58</time>
   <time name="orth">   11.71   11.71</time>
   <time name="total">  272.82  272.92</time>
   <energy>
    <i name="e_fr_energy">   -868.96487301 </i>
    <i name="e_wo_entrp">   -868.90189567 </i>
    <i name="e_0_energy">   -868.94388056 </i>
   </energy>
  </scstep>
  <scstep>
   <time name="diag">   58.29   58.29</time>
   <time name="diis">  175.77  175.79</time>
   <time name="orth">   14.42   14.44</time>
   <time name="total">  272.31  272.36</time>
   <energy>
    <i name="e_fr_energy">   -868.96487105 </i>
    <i name="e_wo_entrp">   -868.90193017 </i>
    <i name="e_0_energy">   -868.94389076 </i>
   </energy>
  </scstep>
  <scstep>
   <time name="diag">   80.68   80.69</time>
   <time name="diis">  158.14  158.17</time>
   <time name="orth">   11.71   11.71</time>
   <time name="total">  270.71  270.78</time>
   <energy>
    <i name="e_fr_energy">   -868.96486883 </i>
    <i name="e_wo_entrp">   -868.90196162 </i>
    <i name="e_0_energy">   -868.94389976 </i>
   </energy>
  </scstep>
  <scstep>
   <time name="diag">   59.00   59.00</time>
   <time name="diis">  157.07  157.11</time>
   <time name="orth">   13.26   13.26</time>
   <time name="total">  253.23  253.28</time>
   <energy>
    <i name="e_fr_energy">   -868.96486673 </i>
    <i name="e_wo_entrp">   -868.90199105 </i>
    <i name="e_0_energy">   -868.94390817 </i>
   </energy>
  </scstep>
  <scstep>
   <time name="diag">   76.01   76.03</time>
   <time name="diis">  158.47  158.57</time>
   <time name="orth">   11.68   11.69</time>
   <time name="total">  264.39  264.53</time>
   <energy>
    <i name="e_fr_energy">   -868.96486483 </i>
    <i name="e_wo_entrp">   -868.90201757 </i>
    <i name="e_0_energy">   -868.94391574 </i>
   </energy>
  </scstep>
  <scstep>
   <time name="diag">   59.10   59.13</time>
   <time name="diis">  144.91  145.00</time>
   <time name="orth">   11.67   11.67</time>
   <time name="total">  236.76  236.89</time>
   <energy>
    <i name="e_fr_energy">   -868.96486299 </i>
    <i name="e_wo_entrp">   -868.90204219 </i>
    <i name="e_0_energy">   -868.94392272 </i>
   </energy>
  </scstep>
  <scstep>
   <time name="diag">   74.23   74.25</time>
   <time name="diis">  146.57  146.63</time>
   <time name="orth">   12.95   12.96</time>
   <time name="total">  255.14  255.25</time>
   <energy>
    <i name="e_fr_energy">   -868.96486135 </i>
    <i name="e_wo_entrp">   -868.90206452 </i>
    <i name="e_0_energy">   -868.94392907 </i>
   </energy>
  </scstep>
  <scstep>
   <time name="diag">   69.08   69.11</time>
   <time name="diis">  125.55  125.57</time>
   <time name="orth">   13.00   13.00</time>
   <time name="total">  229.11  229.17</time>
   <energy>
    <i name="e_fr_energy">   -868.96485980 </i>
    <i name="e_wo_entrp">   -868.90208517 </i>
    <i name="e_0_energy">   -868.94393492 </i>
   </energy>
  </scstep>
  <scstep>
   <time name="diag">   72.62   72.65</time>
   <time name="diis">  129.34  129.38</time>
   <time name="orth">   11.40   11.40</time>
   <time name="total">  232.42  232.49</time>
   <energy>
    <i name="e_fr_energy">   -868.96485836 </i>
    <i name="e_wo_entrp">   -868.90210433 </i>
    <i name="e_0_energy">   -868.94394035 </i>
   </energy>
  </scstep>
  <scstep>
   <time name="diag">   72.64   72.68</time>
   <time name="diis">  141.85  141.91</time>
   <time name="orth">   13.19   13.19</time>
   <time name="total">  248.86  248.97</time>
   <energy>
    <i name="e_fr_energy">   -868.96485706 </i>
    <i name="e_wo_entrp">   -868.90212169 </i>
    <i name="e_0_energy">   -868.94394527 </i>
   </energy>
  </scstep>
  <scstep>
   <time name="diag">   73.67   73.69</time>
   <time name="diis">  135.90  135.96</time>
   <time name="orth">   12.12   12.12</time>
   <time name="total">  240.79  240.88</time>
   <energy>
    <i name="e_fr_energy">   -868.96485588 </i>
    <i name="e_wo_entrp">   -868.90213749 </i>
    <i name="e_0_energy">   -868.94394975 </i>
   </energy>
  </scstep>
  <scstep>
   <time name="diag">   63.23   63.23</time>
   <time name="diis">  136.99  137.00</time>
   <time name="orth">   13.03   13.03</time>
   <time name="total">  234.99  235.00</time>
   <energy>
    <i name="e_fr_energy">   -868.96485478 </i>
    <i name="e_wo_entrp">   -868.90215211 </i>
    <i name="e_0_energy">   -868.94395389 </i>
   </energy>
  </scstep>
  <scstep>
   <time name="diag">   81.34   81.37</time>
   <time name="diis">  141.63  141.66</time>
   <time name="orth">   12.38   12.39</time>
   <time name="total">  236.04  236.10</time>
   <energy>
    <i name="alphaZ">   7165.75404585 </i>
    <i name="ewald"> -65132.79052616 </i>
    <i name="hartreedc">  -9603.60753080 </i>
    <i name="XCdc">    355.54073002 </i>
    <i name="pawpsdc">  57402.94110828 </i>
    <i name="pawaedc"> -58329.12526485 </i>
    <i name="eentropy">     -0.06268867 </i>
    <i name="bandstr">   3665.17430750 </i>
    <i name="atom">  63607.21096501 </i>
    <i name="e_fr_energy">   -868.96485381 </i>
    <i name="e_wo_entrp">   -868.90216514 </i>
    <i name="e_0_energy">   -868.94395759 </i>
   </energy>
  </scstep>
  <structure>
   <crystal>
    <varray name="basis" >
     <v>      10.33484705       0.00000000       0.00000000 </v>
     <v>       0.00000000      10.33484705       0.00000000 </v>
     <v>       0.00000000       0.00000000      10.33484705 </v>
    </varray>
    <i name="volume">   1103.85533447 </i>
    <varray name="rec_basis" >
     <v>       0.09676002       0.00000000       0.00000000 </v>
     <v>       0.00000000       0.09676002       0.00000000 </v>
     <v>       0.00000000       0.00000000       0.09676002 </v>
    </varray>
   </crystal>
   <varray name="positions" >
    <v>       0.00000000       0.00000000       0.00000000 </v>
    <v>       0.00000000       0.16666893       0.16666893 </v>
    <v>       0.00000000       0.33333106       0.00000000 </v>
    <v>       0.00000000       0.50000000       0.16666894 </v>
    <v>       0.00000000       0.66666897       0.00000000 </v>
    <v>       0.00000000       0.83333104       0.16666893 </v>
    <v>       0.00000000       0.00000000       0.33333106 </v>
    <v>       0.00000000       0.16666894       0.50000000 </v>
    <v>       0.00000000       0.33333107       0.33333107 </v>
    <v>       0.00000000       0.50000000       0.50000000 </v>
    <v>       0.00000000       0.66666896       0.33333107 </v>
    <v>       0.00000000       0.83333103       0.50000000 </v>
    <v>       0.00000000       0.00000000       0.66666897 </v>
    <v>       0.00000000       0.16666893       0.83333104 </v>
    <v>       0.00000000       0.33333107       0.66666896 </v>
    <v>       0.00000000       0.50000000       0.83333103 </v>
    <v>       0.00000000       0.66666896       0.66666896 </v>
    <v>       0.00000000       0.83333104       0.83333104 </v>
    <v>       0.16666893       0.00000000       0.16666893 </v>
    <v>       0.16666893       0.16666893       0.00000000 </v>
    <v>       0.16666893       0.83333104       0.00000000 </v>
    <v>       0.16666893       0.33333107       0.50000000 </v>
    <v>       0.16666893       0.50000000       0.33333107 </v>
    <v>       0.16666893       0.66666896       0.50000000 </v>
    <v>       0.16666893       0.00000000       0.83333104 </v>
    <v>       0.16666893       0.50000000       0.66666896 </v>
    <v>       0.16666893       0.33333107       0.16666893 </v>
    <v>       0.16666893       0.66666896       0.16666893 </v>
    <v>       0.16666893       0.16666893       0.33333107 </v>
    <v>       0.16666893       0.83333104       0.33333107 </v>
    <v>       0.16666893       0.16666893       0.66666896 </v>
    <v>       0.16666893       0.33333107       0.83333104 </v>
    <v>       0.16666893       0.66666896       0.83333104 </v>
    <v>       0.16666893       0.83333104       0.66666896 </v>
    <v>       0.16666894       0.50000000       0.00000000 </v>
    <v>       0.16666894       0.00000000       0.50000000 </v>
    <v>       0.33333106       0.00000000       0.00000000 </v>
    <v>       0.33333107       0.16666893       0.16666893 </v>
    <v>       0.33333107       0.83333104       0.16666893 </v>
    <v>       0.33333107       0.33333107       0.33333107 </v>
    <v>       0.33333107       0.66666896       0.33333107 </v>
    <v>       0.33333107       0.16666893       0.83333104 </v>
    <v>       0.33333107       0.33333107       0.66666896 </v>
    <v>       0.33333107       0.66666896       0.66666896 </v>
    <v>       0.33333107       0.83333104       0.83333104 </v>
    <v>       0.33333107       0.33333107       0.00000000 </v>
    <v>       0.33333107       0.50000000       0.16666893 </v>
    <v>       0.33333107       0.66666896       0.00000000 </v>
    <v>       0.33333107       0.00000000       0.33333107 </v>
    <v>       0.33333107       0.16666893       0.50000000 </v>
    <v>       0.33333107       0.83333104       0.50000000 </v>
    <v>       0.33333107       0.00000000       0.66666896 </v>
    <v>       0.33333107       0.50000000       0.83333104 </v>
    <v>       0.50000000       0.00000000       0.16666894 </v>
    <v>       0.50000000       0.16666894       0.00000000 </v>
    <v>       0.50000000       0.33333107       0.16666893 </v>
    <v>       0.50000000       0.50000000       0.00000000 </v>
    <v>       0.50000000       0.66666896       0.16666893 </v>
    <v>       0.50000000       0.83333103       0.00000000 </v>
    <v>       0.50000000       0.00000000       0.50000000 </v>
    <v>       0.50000000       0.16666893       0.33333107 </v>
    <v>       0.50000000       0.33333106       0.50000000 </v>
    <v>       0.50000000       0.50000000       0.33333106 </v>
    <v>       0.50000000       0.66666897       0.50000000 </v>
    <v>       0.50000000       0.83333104       0.33333107 </v>
    <v>       0.50000000       0.00000000       0.83333103 </v>
    <v>       0.50000000       0.16666893       0.66666896 </v>
    <v>       0.50000000       0.33333107       0.83333104 </v>
    <v>       0.50000000       0.66666896       0.83333104 </v>
    <v>       0.50000000       0.83333104       0.66666896 </v>
    <v>       0.66666896       0.33333107       0.00000000 </v>
    <v>       0.66666896       0.50000000       0.16666893 </v>
    <v>       0.66666896       0.66666896       0.00000000 </v>
    <v>       0.66666896       0.00000000       0.33333107 </v>
    <v>       0.66666896       0.16666893       0.50000000 </v>
    <v>       0.66666896       0.83333104       0.50000000 </v>
    <v>       0.66666896       0.00000000       0.66666896 </v>
    <v>       0.66666896       0.50000000       0.83333104 </v>
    <v>       0.66666896       0.16666893       0.16666893 </v>
    <v>       0.66666896       0.83333104       0.16666893 </v>
    <v>       0.66666896       0.33333107       0.33333107 </v>
    <v>       0.66666896       0.66666896       0.33333107 </v>
    <v>       0.66666896       0.16666893       0.83333104 </v>
    <v>       0.66666896       0.33333107       0.66666896 </v>
    <v>       0.66666896       0.66666896       0.66666896 </v>
    <v>       0.66666896       0.83333104       0.83333104 </v>
    <v>       0.66666897       0.00000000       0.00000000 </v>
    <v>       0.66666897       0.50000000       0.50000000 </v>
    <v>       0.83333103       0.50000000       0.00000000 </v>
    <v>       0.83333103       0.00000000       0.50000000 </v>
    <v>       0.83333104       0.33333107       0.16666893 </v>
    <v>       0.83333104       0.66666896       0.16666893 </v>
    <v>       0.83333104       0.16666893       0.33333107 </v>
    <v>       0.83333104       0.83333104       0.33333107 </v>
    <v>       0.83333104       0.16666893       0.66666896 </v>
    <v>       0.83333104       0.33333107       0.83333104 </v>
    <v>       0.83333104       0.66666896       0.83333104 </v>
    <v>       0.83333104       0.83333104       0.66666896 </v>
    <v>       0.83333104       0.00000000       0.16666893 </v>
    <v>       0.83333104       0.16666893       0.00000000 </v>
    <v>       0.83333104       0.83333104       0.00000000 </v>
    <v>       0.83333104       0.33333107       0.50000000 </v>
    <v>       0.83333104       0.50000000       0.33333107 </v>
    <v>       0.83333104       0.66666896       0.50000000 </v>
    <v>       0.83333104       0.00000000       0.83333104 </v>
    <v>       0.83333104       0.50000000       0.66666896 </v>
    <v>       0.33333106       0.50000000       0.50000000 </v>
   </varray>
  </structure>
  <varray name="forces" >
   <v>      -0.00000265       0.00000490       0.05690521 </v>
   <v>      -0.00000024      -0.05731168      -0.00041292 </v>
   <v>       0.00000203       0.00638789      -0.01297740 </v>
   <v>      -0.00000279      -0.00000558      -0.00039965 </v>
   <v>      -0.00000248      -0.00639449      -0.01298006 </v>
   <v>      -0.00000459       0.05731893      -0.00041564 </v>
   <v>      -0.00000332       0.00000815      -0.05649439 </v>
   <v>      -0.00000274       0.01256406       0.00597998 </v>
   <v>       0.00000059       0.00638130       0.01336562 </v>
   <v>       0.00000125      -0.00000751       0.01645122 </v>
   <v>      -0.00000282      -0.00639122       0.01336288 </v>
   <v>      -0.00000153      -0.01255468       0.00598644 </v>
   <v>      -0.00000205       0.00000229      -0.00040326 </v>
   <v>      -0.00000035       0.01257090      -0.00557295 </v>
   <v>       0.00000111       0.01688420      -0.00039561 </v>
   <v>       0.00000201      -0.00000338      -0.01606456 </v>
   <v>       0.00000501      -0.01688805      -0.00039220 </v>
   <v>       0.00000084      -0.01256604      -0.00557410 </v>
   <v>      -0.05731769       0.00000947      -0.00041520 </v>
   <v>      -0.02851730      -0.02851027       0.02810629 </v>
   <v>      -0.02851923       0.02851731       0.02810044 </v>
   <v>       0.01025315      -0.01044820      -0.01084339 </v>
   <v>       0.19654093      -0.00000794       0.19736937 </v>
   <v>       0.01026025       0.01044132      -0.01083558 </v>
   <v>       0.01256664       0.00000247      -0.00557428 </v>
   <v>       0.19486698      -0.00000363      -0.00039811 </v>
   <v>       0.01255871       0.00638523      -0.00040710 </v>
   <v>       0.01255721      -0.00639678      -0.00040886 </v>
   <v>      -0.02851438      -0.02850243      -0.02770008 </v>
   <v>      -0.02851161       0.02851278      -0.02769701 </v>
   <v>       0.19653966       0.19654709      -0.00039629 </v>
   <v>       0.01023559      -0.01044672       0.01125979 </v>
   <v>       0.01023829       0.01044256       0.01125506 </v>
   <v>       0.19654640      -0.19654368      -0.00039512 </v>
   <v>       0.19654514      -0.00000503      -0.19699060 </v>
   <v>       0.01255525       0.00000403       0.00598436 </v>
   <v>       0.00638648       0.00000652      -0.01297918 </v>
   <v>       0.00638636       0.01256526      -0.00040636 </v>
   <v>       0.00639074      -0.01255680      -0.00040709 </v>
   <v>      -0.01045667      -0.01045269       0.01101964 </v>
   <v>      -0.01044982       0.01044469       0.01102642 </v>
   <v>      -0.01044973       0.01024136       0.01126120 </v>
   <v>       0.04317600       0.04318618      -0.00038488 </v>
   <v>       0.04317710      -0.04318643      -0.00038536 </v>
   <v>      -0.01044808      -0.01023861       0.01125487 </v>
   <v>      -0.01044719      -0.01044428      -0.01064881 </v>
   <v>       0.01688881      -0.00000579      -0.00039597 </v>
   <v>      -0.01044369       0.01043689      -0.01065484 </v>
   <v>       0.00638568       0.00000590       0.01336490 </v>
   <v>      -0.01044939       0.01026004      -0.01084424 </v>
   <v>      -0.01044824      -0.01025733      -0.01083556 </v>
   <v>       0.01688224      -0.00000188      -0.00039427 </v>
   <v>       0.04337012      -0.00000063      -0.04253721 </v>
   <v>       0.00000443       0.00000685      -0.00039778 </v>
   <v>       0.00000125       0.19655064      -0.19698765 </v>
   <v>       0.00000215       0.01688926      -0.00039433 </v>
   <v>      -0.00000010      -0.00000404      -0.19525690 </v>
   <v>       0.00000535      -0.01689586      -0.00039573 </v>
   <v>       0.00000284      -0.19654714      -0.19699278 </v>
   <v>       0.00000296       0.00000025       0.01644971 </v>
   <v>       0.00000319       0.19654434       0.19736507 </v>
   <v>      -0.00000156       0.04330538       0.04285652 </v>
   <v>      -0.00000017      -0.00000430       0.19561679 </v>
   <v>      -0.00000459      -0.04330986       0.04286198 </v>
   <v>       0.00000505      -0.19653921       0.19736998 </v>
   <v>      -0.00000034      -0.00000007      -0.01606492 </v>
   <v>       0.00000053       0.19486775      -0.00039849 </v>
   <v>      -0.00000234       0.04337185      -0.04253031 </v>
   <v>      -0.00000376      -0.04337535      -0.04253359 </v>
   <v>      -0.00000234      -0.19486331      -0.00039728 </v>
   <v>       0.01044217      -0.01044472      -0.01064695 </v>
   <v>      -0.01688854      -0.00000160      -0.00039605 </v>
   <v>       0.01044341       0.01043887      -0.01064500 </v>
   <v>      -0.00638405       0.00000329       0.01336246 </v>
   <v>       0.01044933       0.01025651      -0.01084546 </v>
   <v>       0.01044535      -0.01025183      -0.01084357 </v>
   <v>      -0.01688235       0.00000214      -0.00039589 </v>
   <v>      -0.04337363      -0.00000145      -0.04253075 </v>
   <v>      -0.00638767       0.01256140      -0.00040405 </v>
   <v>      -0.00638710      -0.01255787      -0.00040653 </v>
   <v>       0.01045426      -0.01045703       0.01101778 </v>
   <v>       0.01045007       0.01045035       0.01101690 </v>
   <v>       0.01044688       0.01023826       0.01126083 </v>
   <v>      -0.04318158       0.04317821      -0.00038620 </v>
   <v>      -0.04318594      -0.04318131      -0.00038604 </v>
   <v>       0.01044445      -0.01023451       0.01125966 </v>
   <v>      -0.00638879       0.00000289      -0.01297552 </v>
   <v>      -0.04330850      -0.00000163       0.04285844 </v>
   <v>      -0.19654323      -0.00000168      -0.19698547 </v>
   <v>      -0.01255660       0.00000660       0.00598311 </v>
   <v>      -0.01255921       0.00638937      -0.00040341 </v>
   <v>      -0.01256171      -0.00639504      -0.00040835 </v>
   <v>       0.02851265      -0.02850584      -0.02769960 </v>
   <v>       0.02850953       0.02851511      -0.02770189 </v>
   <v>      -0.19653714       0.19654306      -0.00039890 </v>
   <v>      -0.01023059      -0.01044894       0.01126161 </v>
   <v>      -0.01023204       0.01044482       0.01126300 </v>
   <v>      -0.19654132      -0.19653716      -0.00039633 </v>
   <v>       0.05731555       0.00000471      -0.00041265 </v>
   <v>       0.02852022      -0.02851331       0.02810760 </v>
   <v>       0.02851742       0.02851861       0.02810791 </v>
   <v>      -0.01024805      -0.01045322      -0.01084727 </v>
   <v>      -0.19653899      -0.00000630       0.19736286 </v>
   <v>      -0.01025265       0.01044555      -0.01084276 </v>
   <v>      -0.01256411       0.00000252      -0.00557505 </v>
   <v>      -0.19485653      -0.00000686      -0.00039838 </v>
   <v>       0.04330451       0.00000089       0.04286405 </v>
  </varray>
  <varray name="stress" >
   <v>      -7.70628864       0.00001605      -0.00001985 </v>
   <v>       0.00001601      -7.70629448      -0.00000067 </v>
   <v>      -0.00001992      -0.00000063      -7.70737765 </v>
  </varray>
  <energy>
   <i name="e_fr_energy">   -868.96485381 </i>
   <i name="e_wo_entrp">   -868.94395759 </i>
   <i name="e_0_energy">     -0.06268867 </i>
  </energy>
  <time name="totalsc">18737.3118744.68</time>
 </calculation>
 <calculation>
  <scstep>
   <time name="dav">  542.25  542.36</time>
   <time name="total">  561.73  561.85</time>
   <energy>
    <i name="alphaZ">   7165.75404585 </i>
    <i name="ewald"> -65144.54370703 </i>
    <i name="hartreedc">  -9592.17890055 </i>
    <i name="XCdc">    355.53087533 </i>
    <i name="pawpsdc">  57402.94112012 </i>
    <i name="pawaedc"> -58329.12525497 </i>
    <i name="eentropy">     -0.06081604 </i>
    <i name="bandstr">   3665.46759629 </i>
    <i name="atom">  63607.21096501 </i>
    <i name="e_fr_energy">   -869.00407599 </i>
    <i name="e_wo_entrp">   -868.94325995 </i>
    <i name="e_0_energy">   -868.98380397 </i>
   </energy>
  </scstep>
  <scstep>
   <time name="diag">   71.89   71.90</time>
   <time name="diis">  321.16  321.23</time>
   <time name="orth">   13.35   13.36</time>
   <time name="total">  428.21  428.31</time>
   <energy>
    <i name="e_fr_energy">   -869.83626253 </i>
    <i name="e_wo_entrp">   -869.76783822 </i>
    <i name="e_0_energy">   -869.81345443 </i>
   </energy>
  </scstep>
  <scstep>
   <time name="diag">   82.98   83.01</time>
   <time name="diis">  284.01  284.08</time>
   <time name="orth">   10.70   10.70</time>
   <time name="total">  396.99  397.10</time>
   <energy>
    <i name="e_fr_energy">   -869.02950115 </i>
    <i name="e_wo_entrp">   -868.96764867 </i>
    <i name="e_0_energy">   -869.00888366 </i>
   </energy>
  </scstep>
  <scstep>
   <time name="diag">   80.61   80.65</time>
   <time name="diis">  398.74  398.85</time>
   <time name="orth">   13.54   13.55</time>
   <time name="total">  514.13  514.30</time>
   <energy>
    <i name="e_fr_energy">   -869.01008404 </i>
    <i name="e_wo_entrp">   -868.94743932 </i>
    <i name="e_0_energy">   -868.98920247 </i>
   </energy>
  </scstep>
  <scstep>
   <time name="diag">   68.46   68.47</time>
   <time name="diis">  409.70  409.77</time>
   <time name="orth">   12.47   12.47</time>
   <time name="total">  510.75  510.86</time>
   <energy>
    <i name="e_fr_energy">   -869.01675153 </i>
    <i name="e_wo_entrp">   -868.95477279 </i>
    <i name="e_0_energy">   -868.99609195 </i>
   </energy>
  </scstep>
  <scstep>
   <time name="diag">   64.57   64.59</time>
   <time name="diis">  338.93  339.00</time>
   <time name="orth">   12.25   12.25</time>
   <time name="total">  434.44  434.53</time>
   <energy>
    <i name="e_fr_energy">   -869.01101863 </i>
    <i name="e_wo_entrp">   -868.94913547 </i>
    <i name="e_0_energy">   -868.99039091 </i>
   </energy>
  </scstep>
  <scstep>
   <time name="diag">   65.73   65.75</time>
   <time name="diis">  331.84  331.91</time>
   <time name="orth">   13.49   13.49</time>
   <time name="total">  433.03  433.12</time>
   <energy>
    <i name="e_fr_energy">   -869.01440213 </i>
    <i name="e_wo_entrp">   -868.95164664 </i>
    <i name="e_0_energy">   -868.99348364 </i>
   </energy>
  </scstep>
  <scstep>
   <time name="diag">   87.59   87.64</time>
   <time name="diis">  293.30  293.36</time>
   <time name="orth">   13.54   13.54</time>
   <time name="total">  415.98  416.09</time>
   <energy>
    <i name="e_fr_energy">   -869.01022731 </i>
    <i name="e_wo_entrp">   -868.94764729 </i>
    <i name="e_0_energy">   -868.98936731 </i>
   </energy>
  </scstep>
  <scstep>
   <time name="diag">   72.89   72.91</time>
   <time name="diis">  380.21  380.40</time>
   <time name="orth">   12.47   12.48</time>
   <time name="total">  485.74  485.96</time>
   <energy>
    <i name="e_fr_energy">   -869.01047003 </i>
    <i name="e_wo_entrp">   -868.94798489 </i>
    <i name="e_0_energy">   -868.98964165 </i>
   </energy>
  </scstep>
  <scstep>
   <time name="diag">   67.87   67.89</time>
   <time name="diis">  307.76  307.89</time>
   <time name="orth">   13.54   13.56</time>
   <time name="total">  409.76  409.94</time>
   <energy>
    <i name="e_fr_energy">   -869.01004757 </i>
    <i name="e_wo_entrp">   -868.94769836 </i>
    <i name="e_0_energy">   -868.98926450 </i>
   </energy>
  </scstep>
  <scstep>
   <time name="diag">   75.19   75.21</time>
   <time name="diis">  427.31  427.47</time>
   <time name="orth">   11.93   11.94</time>
   <time name="total">  533.50  533.70</time>
   <energy>
    <i name="e_fr_energy">   -869.01008311 </i>
    <i name="e_wo_entrp">   -868.94770359 </i>
    <i name="e_0_energy">   -868.98928994 </i>
   </energy>
  </scstep>
  <scstep>
   <time name="diag">   67.48   67.51</time>
   <time name="diis">  360.05  360.19</time>
   <time name="orth">   12.49   12.49</time>
   <time name="total">  458.99  459.18</time>
   <energy>
    <i name="e_fr_energy">   -869.01008314 </i>
    <i name="e_wo_entrp">   -868.94768666 </i>
    <i name="e_0_energy">   -868.98928431 </i>
   </energy>
  </scstep>
  <scstep>
   <time name="diag">   64.62   64.63</time>
   <time name="diis">  322.41  322.53</time>
   <time name="orth">   11.94   11.95</time>
   <time name="total">  418.87  419.02</time>
   <energy>
    <i name="e_fr_energy">   -869.01006180 </i>
    <i name="e_wo_entrp">   -868.94766878 </i>
    <i name="e_0_energy">   -868.98926413 </i>
   </energy>
  </scstep>
  <scstep>
   <time name="diag">   74.00   74.02</time>
   <time name="diis">  344.48  344.67</time>
   <time name="orth">   13.31   13.32</time>
   <time name="total">  454.24  454.48</time>
   <energy>
    <i name="e_fr_energy">   -869.01006950 </i>
    <i name="e_wo_entrp">   -868.94766640 </i>
    <i name="e_0_energy">   -868.98926846 </i>
   </energy>
  </scstep>
[...]
       <r>    -1.9511     1.5723     0.1615 </r>
       <r>    -1.9058     2.1388     0.2584 </r>
       <r>    -1.8605     2.7348     0.3822 </r>
       <r>    -1.8153     3.2735     0.5304 </r>
       <r>    -1.7700     3.6684     0.6965 </r>
       <r>    -1.7247     3.8850     0.8724 </r>
       <r>    -1.6794     3.9591     1.0517 </r>
       <r>    -1.6342     3.9714     1.2315 </r>
       <r>    -1.5889     4.0078     1.4130 </r>
       <r>    -1.5436     4.1359     1.6002 </r>
       <r>    -1.4983     4.3986     1.7994 </r>
       <r>    -1.4530     4.8096     2.0171 </r>
       <r>    -1.4078     5.3507     2.2594 </r>
       <r>    -1.3625     5.9722     2.5298 </r>
       <r>    -1.3172     6.5891     2.8282 </r>
       <r>    -1.2719     7.0736     3.1484 </r>
       <r>    -1.2267     7.2722     3.4777 </r>
       <r>    -1.1814     7.0759     3.7981 </r>
       <r>    -1.1361     6.5110     4.0929 </r>
       <r>    -1.0908     5.7784     4.3545 </r>
       <r>    -1.0455     5.1912     4.5896 </r>
       <r>    -1.0003     5.0407     4.8178 </r>
       <r>    -0.9550     5.4739     5.0656 </r>
       <r>    -0.9097     6.4489     5.3576 </r>
       <r>    -0.8644     7.7740     5.7096 </r>
       <r>    -0.8192     9.1811     6.1253 </r>
       <r>    -0.7739    10.3815     6.5954 </r>
       <r>    -0.7286    11.0997     7.0979 </r>
       <r>    -0.6833    11.1263     7.6017 </r>
       <r>    -0.6380    10.4114     8.0731 </r>
       <r>    -0.5928     9.1469     8.4873 </r>
       <r>    -0.5475     7.7512     8.8382 </r>
       <r>    -0.5022     6.7266     9.1428 </r>
       <r>    -0.4569     6.4563     9.4351 </r>
       <r>    -0.4117     7.0539     9.7545 </r>
       <r>    -0.3664     8.3372    10.1320 </r>
       <r>    -0.3211     9.9206    10.5812 </r>
       <r>    -0.2758    11.3659    11.0958 </r>
       <r>    -0.2305    12.3265    11.6539 </r>
       <r>    -0.1853    12.6461    12.2265 </r>
       <r>    -0.1400    12.3965    12.7878 </r>
       <r>    -0.0947    11.8446    13.3241 </r>
       <r>    -0.0494    11.3425    13.8376 </r>
       <r>    -0.0042    11.1763    14.3437 </r>
       <r>     0.0411    11.4467    14.8619 </r>
       <r>     0.0864    12.0509    15.4076 </r>
       <r>     0.1317    12.7719    15.9859 </r>
       <r>     0.1770    13.4043    16.5928 </r>
       <r>     0.2222    13.8326    17.2191 </r>
       <r>     0.2675    14.0260    17.8541 </r>
       <r>     0.3128    13.9896    18.4876 </r>
       <r>     0.3581    13.7317    19.1093 </r>
       <r>     0.4033    13.2787    19.7105 </r>
       <r>     0.4486    12.7217    20.2865 </r>
       <r>     0.4939    12.2580    20.8416 </r>
       <r>     0.5392    12.1844    21.3932 </r>
       <r>     0.5845    12.8072    21.9731 </r>
       <r>     0.6297    14.2719    22.6193 </r>
       <r>     0.6750    16.3986    23.3618 </r>
       <r>     0.7203    18.6640    24.2069 </r>
       <r>     0.7656    20.4087    25.1309 </r>
       <r>     0.8108    21.1844    26.0901 </r>
       <r>     0.8561    21.0050    27.0412 </r>
       <r>     0.9014    20.2974    27.9602 </r>
       <r>     0.9467    19.5633    28.8460 </r>
       <r>     0.9920    19.0128    29.7068 </r>
       <r>     1.0372    18.4836    30.5437 </r>
       <r>     1.0825    17.7358    31.3467 </r>
       <r>     1.1278    16.8671    32.1104 </r>
       <r>     1.1731    16.4607    32.8557 </r>
       <r>     1.2183    17.2942    33.6388 </r>
       <r>     1.2636    19.8073    34.5356 </r>
       <r>     1.3089    23.7170    35.6095 </r>
       <r>     1.3542    28.0395    36.8790 </r>
       <r>     1.3995    31.4924    38.3049 </r>
       <r>     1.4447    33.0558    39.8016 </r>
       <r>     1.4900    32.4310    41.2700 </r>
       <r>     1.5353    30.2214    42.6384 </r>
       <r>     1.5806    27.7757    43.8960 </r>
       <r>     1.6258    26.7563    45.1075 </r>
       <r>     1.6711    28.5900    46.4019 </r>
       <r>     1.7164    33.9972    47.9413 </r>
       <r>     1.7617    42.7768    49.8781 </r>
       <r>     1.8070    53.9377    52.3203 </r>
       <r>     1.8522    66.1052    55.3134 </r>
       <r>     1.8975    77.9634    58.8434 </r>
       <r>     1.9428    88.4758    62.8493 </r>
       <r>     1.9881    96.8482    67.2344 </r>
       <r>     2.0333   102.4619    71.8736 </r>
       <r>     2.0786   105.0187    76.6286 </r>
       <r>     2.1239   104.8478    81.3759 </r>
       <r>     2.1692   103.0496    86.0417 </r>
       <r>     2.2144   101.2066    90.6241 </r>
       <r>     2.2597   100.7318    95.1850 </r>
       <r>     2.3050   102.2271    99.8136 </r>
       <r>     2.3503   105.2625   104.5797 </r>
       <r>     2.3956   108.7671   109.5044 </r>
       <r>     2.4408   111.8373   114.5681 </r>
       <r>     2.4861   114.4294   119.7492 </r>
       <r>     2.5314   117.3855   125.0641 </r>
       <r>     2.5767   121.7036   130.5746 </r>
       <r>     2.6219   127.6217   136.3530 </r>
       <r>     2.6672   134.3132   142.4344 </r>
       <r>     2.7125   140.4860   148.7953 </r>
       <r>     2.7578   145.3627   155.3770 </r>
       <r>     2.8031   149.1799   162.1315 </r>
       <r>     2.8483   152.8102   169.0504 </r>
       <r>     2.8936   156.8946   176.1542 </r>
       <r>     2.9389   161.2445   183.4549 </r>
       <r>     2.9842   164.9540   190.9237 </r>
       <r>     3.0294   167.0325   198.4865 </r>
       <r>     3.0747   167.0038   206.0480 </r>
       <r>     3.1200   165.0636   213.5217 </r>
       <r>     3.1653   161.8282   220.8489 </r>
       <r>     3.2106   158.0070   228.0031 </r>
       <r>     3.2558   154.2665   234.9880 </r>
       <r>     3.3011   151.2431   241.8359 </r>
       <r>     3.3464   149.4744   248.6037 </r>
       <r>     3.3917   149.1513   255.3570 </r>
       <r>     3.4369   149.8753   262.1430 </r>
       <r>     3.4822   150.7056   268.9665 </r>
       <r>     3.5275   150.5632   275.7837 </r>
       <r>     3.5728   148.7706   282.5197 </r>
       <r>     3.6181   145.4066   289.1033 </r>
       <r>     3.6633   141.2910   295.5007 </r>
       <r>     3.7086   137.6052   301.7311 </r>
       <r>     3.7539   135.2932   307.8569 </r>
       <r>     3.7992   134.5048   313.9469 </r>
       <r>     3.8444   134.4266   320.0335 </r>
       <r>     3.8897   133.7496   326.0893 </r>
       <r>     3.9350   131.6197   332.0487 </r>
       <r>     3.9803   128.4481   337.8646 </r>
       <r>     4.0256   125.8931   343.5647 </r>
       <r>     4.0708   125.8934   349.2649 </r>
       <r>     4.1161   129.4383   355.1255 </r>
       <r>     4.1614   136.0474   361.2854 </r>
       <r>     4.2067   144.3420   367.8209 </r>
       <r>     4.2519   153.1072   374.7532 </r>
       <r>     4.2972   161.8328   382.0807 </r>
       <r>     4.3425   170.3123   389.7920 </r>
       <r>     4.3878   177.8714   397.8456 </r>
       <r>     4.4331   183.1606   406.1387 </r>
       <r>     4.4783   184.8474   414.5081 </r>
       <r>     4.5236   182.6631   422.7787 </r>
       <r>     4.5689   177.9627   430.8364 </r>
       <r>     4.6142   173.3860   438.6869 </r>
       <r>     4.6594   171.8336   446.4672 </r>
       <r>     4.7047   175.2882   454.4038 </r>
       <r>     4.7500   183.9910   462.7345 </r>
       <r>     4.7953   196.3041   471.6227 </r>
       <r>     4.8406   209.3399   481.1011 </r>
       <r>     4.8858   220.1122   491.0672 </r>
       <r>     4.9311   226.6899   501.3312 </r>
       <r>     4.9764   228.8104   511.6912 </r>
       <r>     5.0217   227.7298   522.0023 </r>
       <r>     5.0669   225.5153   532.2131 </r>
       <r>     5.1122   224.2406   542.3662 </r>
       <r>     5.1575   225.4461   552.5739 </r>
       <r>     5.2028   229.8977   562.9831 </r>
       <r>     5.2481   237.4210   573.7329 </r>
       <r>     5.2933   246.6726   584.9017 </r>
       <r>     5.3386   255.0617   596.4503 </r>
       <r>     5.3839   259.2618   608.1891 </r>
       <r>     5.4292   256.4491   619.8005 </r>
       <r>     5.4744   245.7471   630.9273 </r>
       <r>     5.5197   228.9326   641.2928 </r>
       <r>     5.5650   209.7682   650.7907 </r>
       <r>     5.6103   192.2236   659.4941 </r>
       <r>     5.6556   178.6535   667.5831 </r>
       <r>     5.7008   169.0602   675.2378 </r>
       <r>     5.7461   161.8194   682.5646 </r>
       <r>     5.7914   155.2430   689.5936 </r>
       <r>     5.8367   148.8701   696.3341 </r>
       <r>     5.8819   143.7136   702.8411 </r>
       <r>     5.9272   141.4919   709.2475 </r>
       <r>     5.9725   143.4825   715.7441 </r>
       <r>     6.0178   149.7074   722.5225 </r>
       <r>     6.0630   158.8359   729.7142 </r>
       <r>     6.1083   168.7893   737.3566 </r>
       <r>     6.1536   177.7230   745.4034 </r>
       <r>     6.1989   184.8601   753.7735 </r>
       <r>     6.2442   190.6446   762.4054 </r>
       <r>     6.2894   196.0527   771.2822 </r>
       <r>     6.3347   201.5402   780.4075 </r>
       <r>     6.3800   206.4950   789.7571 </r>
       <r>     6.4253   209.7095   799.2522 </r>
       <r>     6.4705   210.4760   808.7821 </r>
       <r>     6.5158   209.2751   818.2576 </r>
       <r>     6.5611   207.3389   827.6454 </r>
       <r>     6.6064   205.4264   836.9466 </r>
       <r>     6.6517   202.9564   846.1360 </r>
       <r>     6.6969   198.4163   855.1198 </r>
       <r>     6.7422   190.8411   863.7607 </r>
       <r>     6.7875   181.1364   871.9621 </r>
       <r>     6.8328   172.0383   879.7516 </r>
       <r>     6.8780   166.5930   887.2945 </r>
       <r>     6.9233   166.2682   894.8228 </r>
       <r>     6.9686   170.1224   902.5255 </r>
       <r>     7.0139   175.6046   910.4765 </r>
       <r>     7.0592   180.2831   918.6393 </r>
       <r>     7.1044   183.1943   926.9339 </r>
       <r>     7.1497   185.0032   935.3104 </r>
       <r>     7.1950   187.1998   943.7863 </r>
       <r>     7.2403   191.1327   952.4404 </r>
       <r>     7.2855   197.3988   961.3781 </r>
       <r>     7.3308   205.4952   970.6825 </r>
       <r>     7.3761   213.4707   980.3479 </r>
       <r>     7.4214   217.7574   990.2075 </r>
       <r>     7.4667   213.7784   999.8869 </r>
       <r>     7.5119   197.6483  1008.8359 </r>
       <r>     7.5572   168.3485  1016.4583 </r>
       <r>     7.6025   129.0195  1022.3000 </r>
       <r>     7.6478    86.2698  1026.2061 </r>
       <r>     7.6930    47.6456  1028.3634 </r>
       <r>     7.7383    18.6792  1029.2092 </r>
       <r>     7.7836     1.1823  1029.2627 </r>
       <r>     7.8289    -6.4908  1028.9688 </r>
       <r>     7.8742    -7.7877  1028.6162 </r>
       <r>     7.9194    -6.1347  1028.3384 </r>
       <r>     7.9647    -3.8643  1028.1635 </r>
       <r>     8.0100    -2.0621  1028.0701 </r>
       <r>     8.0553    -0.9555  1028.0268 </r>
       <r>     8.1005    -0.3894  1028.0092 </r>
       <r>     8.1458    -0.1406  1028.0028 </r>
       <r>     8.1911    -0.0452  1028.0008 </r>
       <r>     8.2364    -0.0130  1028.0002 </r>
       <r>     8.2817    -0.0033  1028.0000 </r>
       <r>     8.3269    -0.0008  1028.0000 </r>
       <r>     8.3722    -0.0002  1028.0000 </r>
       <r>     8.4175    -0.0000  1028.0000 </r>
       <r>     8.4628    -0.0000  1028.0000 </r>
       <r>     8.5080    -0.0000  1028.0000 </r>
       <r>     8.5533    -0.0000  1028.0000 </r>
       <r>     8.5986    -0.0000  1028.0000 </r>
       <r>     8.6439    -0.0000  1028.0000 </r>
       <r>     8.6892    -0.0000  1028.0000 </r>
       <r>     8.7344    -0.0000  1028.0000 </r>
       <r>     8.7797    -0.0000  1028.0000 </r>
       <r>     8.8250    -0.0000  1028.0000 </r>
       <r>     8.8703     0.0000  1028.0000 </r>
       <r>     8.9155     0.0000  1028.0000 </r>
       <r>     8.9608     0.0000  1028.0000 </r>
       <r>     9.0061     0.0000  1028.0000 </r>
       <r>     9.0514     0.0000  1028.0000 </r>
       <r>     9.0967     0.0000  1028.0000 </r>
       <r>     9.1419     0.0000  1028.0000 </r>
       <r>     9.1872     0.0000  1028.0000 </r>
       <r>     9.2325     0.0000  1028.0000 </r>
       <r>     9.2778     0.0000  1028.0000 </r>
       <r>     9.3230     0.0000  1028.0000 </r>
       <r>     9.3683     0.0000  1028.0000 </r>
       <r>     9.4136     0.0000  1028.0000 </r>
       <r>     9.4589     0.0000  1028.0000 </r>
       <r>     9.5042     0.0000  1028.0000 </r>
       <r>     9.5494     0.0000  1028.0000 </r>
       <r>     9.5947     0.0000  1028.0000 </r>
      </set>
     </set>
    </array>
   </total>
  </dos>
 </calculation>
 <structure name="finalpos" >
  <crystal>
   <varray name="basis" >
    <v>      10.33484705       0.00000000       0.00000000 </v>
    <v>       0.00000000      10.33484705       0.00000000 </v>
    <v>       0.00000000       0.00000000      10.33484705 </v>
   </varray>
   <i name="volume">   1103.85533447 </i>
   <varray name="rec_basis" >
    <v>       0.09676002       0.00000000       0.00000000 </v>
    <v>       0.00000000       0.09676002       0.00000000 </v>
    <v>       0.00000000       0.00000000       0.09676002 </v>
   </varray>
  </crystal>
  <varray name="positions" >
   <v>      -0.00000062       0.00000098       0.00016562 </v>
   <v>      -0.00000066       0.16650171       0.16666795 </v>
   <v>      -0.00000056       0.33376685      -0.00019373 </v>
   <v>      -0.00000070       0.49999902       0.16666782 </v>
   <v>      -0.00000066       0.66623220      -0.00019376 </v>
   <v>      -0.00000070       0.83349920       0.16666804 </v>
   <v>      -0.00000074       0.00000094       0.33316834 </v>
   <v>      -0.00000071       0.16686131       0.50043282 </v>
   <v>      -0.00000068       0.33376689       0.33352795 </v>
   <v>      -0.00000058       0.49999901       0.50045706 </v>
   <v>      -0.00000076       0.66623220       0.33352798 </v>
   <v>      -0.00000065       0.83313964       0.50043280 </v>
   <v>      -0.00000066       0.00000094       0.66666541 </v>
   <v>      -0.00000063       0.16686130       0.83289896 </v>
   <v>      -0.00000054       0.33379006       0.66666536 </v>
   <v>      -0.00000052       0.49999895       0.83287482 </v>
   <v>      -0.00000054       0.66620903       0.66666528 </v>
   <v>      -0.00000060       0.83313970       0.83289890 </v>
   <v>       0.16650234       0.00000098       0.16666790 </v>
   <v>       0.16641578       0.16641522       0.00025253 </v>
   <v>       0.16641576       0.83358588       0.00025250 </v>
   <v>       0.16655682       0.33319083       0.49985824 </v>
   <v>       0.16866287       0.49999901       0.33532981 </v>
   <v>       0.16655664       0.66680837       0.49985819 </v>
   <v>       0.16686199       0.00000091       0.83289887 </v>
   <v>       0.16850551       0.49999888       0.66666533 </v>
   <v>       0.16686172       0.33376669       0.16666777 </v>
   <v>       0.16686169       0.66623236       0.16666783 </v>
   <v>       0.16641583       0.16641530       0.33308135 </v>
   <v>       0.16641579       0.83358573       0.33308146 </v>
   <v>       0.16866051       0.16865981       0.66666471 </v>
   <v>       0.16655674       0.33319051       0.83347364 </v>
   <v>       0.16655659       0.66680864       0.83347363 </v>
   <v>       0.16866046       0.83134129       0.66666454 </v>
   <v>       0.16866304       0.49999894      -0.00199551 </v>
   <v>       0.16686195       0.00000085       0.50043296 </v>
   <v>       0.33376897       0.00000098      -0.00019380 </v>
   <v>       0.33376876       0.16686111       0.16666781 </v>
   <v>       0.33376876       0.83313992       0.16666782 </v>
   <v>       0.33319337       0.33319112       0.33322327 </v>
   <v>       0.33319325       0.66680797       0.33322314 </v>
   <v>       0.33319273       0.16655616       0.83347357 </v>
   <v>       0.33430839       0.33430480       0.66666817 </v>
   <v>       0.33430668       0.66569446       0.66666883 </v>
   <v>       0.33319257       0.83344508       0.83347361 </v>
   <v>       0.33319318       0.33319103       0.00011123 </v>
   <v>       0.33379238       0.49999892       0.16666764 </v>
   <v>       0.33319316       0.66680805       0.00011136 </v>
   <v>       0.33376905       0.00000097       0.33352799 </v>
   <v>       0.33319309       0.16655633       0.49985827 </v>
   <v>       0.33319287       0.83344492       0.49985821 </v>
   <v>       0.33379221       0.00000092       0.66666541 </v>
   <v>       0.33430824       0.49999881       0.83235635 </v>
   <v>       0.50000051       0.00000098       0.16666779 </v>
   <v>       0.50000037       0.16866242      -0.00199557 </v>
   <v>       0.50000050       0.33379024       0.16666768 </v>
   <v>       0.50000047       0.49999884      -0.00183717 </v>
   <v>       0.50000055       0.66620880       0.16666764 </v>
   <v>       0.50000048       0.83133868      -0.00199567 </v>
   <v>       0.50000055       0.00000093       0.50045712 </v>
   <v>       0.50000045       0.16866231       0.33532986 </v>
   <v>       0.50000156       0.33430527       0.50097546 </v>
   <v>       0.50000056       0.49999884       0.33517210 </v>
   <v>       0.50000227       0.66569247       0.50097524 </v>
   <v>       0.50000054       0.83133880       0.33532973 </v>
   <v>       0.50000044       0.00000093       0.83287479 </v>
   <v>       0.50000048       0.16850497       0.66666532 </v>
   <v>       0.50000144       0.33430502       0.83235656 </v>
   <v>       0.50000144       0.66569406       0.83235684 </v>
   <v>       0.50000048       0.83149653       0.66666525 </v>
   <v>       0.66680710       0.33319110       0.00011134 </v>
   <v>       0.66620806       0.49999897       0.16666768 </v>
   <v>       0.66680723       0.66680809       0.00011153 </v>
   <v>       0.66623142       0.00000089       0.33352798 </v>
   <v>       0.66680733       0.16655630       0.49985828 </v>
   <v>       0.66680750       0.83344500       0.49985811 </v>
   <v>       0.66620819       0.00000091       0.66666527 </v>
   <v>       0.66569199       0.49999880       0.83235629 </v>
   <v>       0.66623164       0.16686108       0.16666788 </v>
   <v>       0.66623167       0.83313991       0.16666786 </v>
   <v>       0.66680703       0.33319119       0.33322331 </v>
   <v>       0.66680723       0.66680798       0.33322310 </v>
   <v>       0.66680763       0.16655615       0.83347349 </v>
   <v>       0.66569322       0.33430460       0.66666872 </v>
   <v>       0.66569359       0.66569449       0.66666867 </v>
   <v>       0.66680775       0.83344513       0.83347367 </v>
   <v>       0.66623137       0.00000087      -0.00019375 </v>
   <v>       0.66569288       0.49999774       0.50097509 </v>
   <v>       0.83133624       0.49999904      -0.00199548 </v>
   <v>       0.83313726       0.00000091       0.50043285 </v>
   <v>       0.83313754       0.33376671       0.16666790 </v>
   <v>       0.83313752       0.66623237       0.16666792 </v>
   <v>       0.83358344       0.16641525       0.33308141 </v>
   <v>       0.83358338       0.83358570       0.33308146 </v>
   <v>       0.83133880       0.16865969       0.66666452 </v>
   <v>       0.83344258       0.33319042       0.83347361 </v>
   <v>       0.83344275       0.66680870       0.83347372 </v>
   <v>       0.83133882       0.83134137       0.66666436 </v>
   <v>       0.83349693       0.00000094       0.16666806 </v>
   <v>       0.83358357       0.16641517       0.00025257 </v>
   <v>       0.83358347       0.83358583       0.00025260 </v>
   <v>       0.83344235       0.33319077       0.49985815 </v>
   <v>       0.83133636       0.49999908       0.33532958 </v>
   <v>       0.83344258       0.66680837       0.49985799 </v>
   <v>       0.83313734       0.00000094       0.83289883 </v>
   <v>       0.83149375       0.49999887       0.66666519 </v>
   <v>       0.33431120       0.49999883       0.50097605 </v>
  </varray>
 </structure>
</modeling>
