Opt                                     
           1
    10.334847    0.000000    0.000000
     0.000000   10.334847    0.000000
     0.000000    0.000000   10.334847
   Fe
 107
Direct configuration=     1
   0.00000000  0.00000000  0.00000000
   0.00000000  0.16666893  0.16666893
   0.00000000  0.33333106  0.00000000
   0.00000000  0.50000000  0.16666894
   0.00000000  0.66666897  0.00000000
   0.00000000  0.83333104  0.16666893
   0.00000000  0.00000000  0.33333106
   0.00000000  0.16666894  0.50000000
   0.00000000  0.33333107  0.33333107
   0.00000000  0.50000000  0.50000000
   0.00000000  0.66666896  0.33333107
   0.00000000  0.83333103  0.50000000
   0.00000000  0.00000000  0.66666897
   0.00000000  0.16666893  0.83333104
   0.00000000  0.33333107  0.66666896
   0.00000000  0.50000000  0.83333103
   0.00000000  0.66666896  0.66666896
   0.00000000  0.83333104  0.83333104
   0.16666893  0.00000000  0.16666893
   0.16666893  0.16666893  0.00000000
   0.16666893  0.83333104  0.00000000
   0.16666893  0.33333107  0.50000000
   0.16666893  0.50000000  0.33333107
   0.16666893  0.66666896  0.50000000
   0.16666893  0.00000000  0.83333104
   0.16666893  0.50000000  0.66666896
   0.16666893  0.33333107  0.16666893
   0.16666893  0.66666896  0.16666893
   0.16666893  0.16666893  0.33333107
   0.16666893  0.83333104  0.33333107
   0.16666893  0.16666893  0.66666896
   0.16666893  0.33333107  0.83333104
   0.16666893  0.66666896  0.83333104
   0.16666893  0.83333104  0.66666896
   0.16666894  0.50000000  0.00000000
   0.16666894  0.00000000  0.50000000
   0.33333106  0.00000000  0.00000000
   0.33333107  0.16666893  0.16666893
   0.33333107  0.83333104  0.16666893
   0.33333107  0.33333107  0.33333107
   0.33333107  0.66666896  0.33333107
   0.33333107  0.16666893  0.83333104
   0.33333107  0.33333107  0.66666896
   0.33333107  0.66666896  0.66666896
   0.33333107  0.83333104  0.83333104
   0.33333107  0.33333107  0.00000000
   0.33333107  0.50000000  0.16666893
   0.33333107  0.66666896  0.00000000
   0.33333107  0.00000000  0.33333107
   0.33333107  0.16666893  0.50000000
   0.33333107  0.83333104  0.50000000
   0.33333107  0.00000000  0.66666896
   0.33333107  0.50000000  0.83333104
   0.50000000  0.00000000  0.16666894
   0.50000000  0.16666894  0.00000000
   0.50000000  0.33333107  0.16666893
   0.50000000  0.50000000  0.00000000
   0.50000000  0.66666896  0.16666893
   0.50000000  0.83333103  0.00000000
   0.50000000  0.00000000  0.50000000
   0.50000000  0.16666893  0.33333107
   0.50000000  0.33333106  0.50000000
   0.50000000  0.50000000  0.33333106
   0.50000000  0.66666897  0.50000000
   0.50000000  0.83333104  0.33333107
   0.50000000  0.00000000  0.83333103
   0.50000000  0.16666893  0.66666896
   0.50000000  0.33333107  0.83333104
   0.50000000  0.66666896  0.83333104
   0.50000000  0.83333104  0.66666896
   0.66666896  0.33333107  0.00000000
   0.66666896  0.50000000  0.16666893
   0.66666896  0.66666896  0.00000000
   0.66666896  0.00000000  0.33333107
   0.66666896  0.16666893  0.50000000
   0.66666896  0.83333104  0.50000000
   0.66666896  0.00000000  0.66666896
   0.66666896  0.50000000  0.83333104
   0.66666896  0.16666893  0.16666893
   0.66666896  0.83333104  0.16666893
   0.66666896  0.33333107  0.33333107
   0.66666896  0.66666896  0.33333107
   0.66666896  0.16666893  0.83333104
   0.66666896  0.33333107  0.66666896
   0.66666896  0.66666896  0.66666896
   0.66666896  0.83333104  0.83333104
   0.66666897  0.00000000  0.00000000
   0.66666897  0.50000000  0.50000000
   0.83333103  0.50000000  0.00000000
   0.83333103  0.00000000  0.50000000
   0.83333104  0.33333107  0.16666893
   0.83333104  0.66666896  0.16666893
   0.83333104  0.16666893  0.33333107
   0.83333104  0.83333104  0.33333107
   0.83333104  0.16666893  0.66666896
   0.83333104  0.33333107  0.83333104
   0.83333104  0.66666896  0.83333104
   0.83333104  0.83333104  0.66666896
   0.83333104  0.00000000  0.16666893
   0.83333104  0.16666893  0.00000000
   0.83333104  0.83333104  0.00000000
   0.83333104  0.33333107  0.50000000
   0.83333104  0.50000000  0.33333107
   0.83333104  0.66666896  0.50000000
   0.83333104  0.00000000  0.83333104
   0.83333104  0.50000000  0.66666896
   0.33333106  0.50000000  0.50000000
Direct configuration=     2
  -0.00000001  0.00000002  0.00026563
  -0.00000000  0.16640140  0.16666701
   0.00000001  0.33336088 -0.00006058
  -0.00000001  0.49999997  0.16666707
  -0.00000001  0.66663912 -0.00006059
  -0.00000002  0.83359860  0.16666699
  -0.00000002  0.00000004  0.33306735
  -0.00000001  0.16672759  0.50002791
   0.00000000  0.33336085  0.33339346
   0.00000001  0.49999996  0.50007679
  -0.00000001  0.66663913  0.33339344
  -0.00000001  0.83327243  0.50002794
  -0.00000001  0.00000001  0.66666708
  -0.00000000  0.16672761  0.83330502
   0.00000001  0.33340988  0.66666712
   0.00000001  0.49999998  0.83325604
   0.00000002  0.66659013  0.66666713
   0.00000000  0.83327238  0.83330502
   0.16640138  0.00000004  0.16666699
   0.16653582  0.16653585  0.00013120
   0.16653581  0.83346416  0.00013117
   0.16671679  0.33328230  0.49994938
   0.16758638  0.49999996  0.33425238
   0.16671683  0.66671770  0.49994942
   0.16672759  0.00000001  0.83330502
   0.16757856  0.49999998  0.66666710
   0.16672756  0.33336087  0.16666703
   0.16672755  0.66663910  0.16666703
   0.16653583  0.16653589  0.33320176
   0.16653584  0.83346413  0.33320178
   0.16758637  0.16758641  0.66666711
   0.16671671  0.33328230  0.83338360
   0.16671673  0.66671771  0.83338358
   0.16758640  0.83241358  0.66666712
   0.16758640  0.49999998 -0.00091954
   0.16672755  0.00000002  0.50002793
   0.33336087  0.00000003 -0.00006059
   0.33336088  0.16672759  0.16666704
   0.33336090  0.83327242  0.16666703
   0.33328225  0.33328227  0.33338251
   0.33328229  0.66671772  0.33338254
   0.33328229  0.16671674  0.83338360
   0.33353261  0.33353266  0.66666717
   0.33353261  0.66646737  0.66666716
   0.33328229  0.83328324  0.83338357
   0.33328230  0.33328231 -0.00004971
   0.33340990  0.49999997  0.16666708
   0.33328232  0.66671768 -0.00004974
   0.33336088  0.00000003  0.33339345
   0.33328229  0.16671683  0.49994938
   0.33328230  0.83328316  0.49994942
   0.33340987 -0.00000001  0.66666712
   0.33353352  0.50000000  0.83313248
   0.50000002  0.00000003  0.16666708
   0.50000001  0.16758643 -0.00091953
   0.50000001  0.33340991  0.16666709
   0.50000000  0.49999998 -0.00091145
   0.50000002  0.66659009  0.16666709
   0.50000001  0.83241356 -0.00091955
   0.50000001  0.00000000  0.50007679
   0.50000001  0.16758639  0.33425236
   0.49999999  0.33353321  0.50020005
   0.50000000  0.49999998  0.33424419
   0.49999998  0.66646680  0.50020008
   0.50000002  0.83241360  0.33425238
   0.50000000 -0.00000000  0.83325604
   0.50000000  0.16757857  0.66666710
   0.49999999  0.33353353  0.83313251
   0.49999998  0.66646649  0.83313249
   0.49999999  0.83242142  0.66666711
   0.66671771  0.33328231 -0.00004970
   0.66659013  0.49999999  0.16666708
   0.66671771  0.66671769 -0.00004969
   0.66663916  0.00000002  0.33339344
   0.66671774  0.16671681  0.49994937
   0.66671772  0.83328318  0.49994938
   0.66659016  0.00000001  0.66666711
   0.66646650  0.49999999  0.83313251
   0.66663915  0.16672757  0.16666705
   0.66663915  0.83327242  0.16666704
   0.66671776  0.33328225  0.33338250
   0.66671774  0.66671774  0.33338249
   0.66671773  0.16671673  0.83338360
   0.66646739  0.33353262  0.66666716
   0.66646737  0.66646739  0.66666716
   0.66671772  0.83328326  0.83338360
   0.66663914  0.00000001 -0.00006057
   0.66646680  0.49999999  0.50020006
   0.83241358  0.49999999 -0.00091952
   0.83327242  0.00000003  0.50002793
   0.83327241  0.33336089  0.16666705
   0.83327240  0.66663911  0.16666703
   0.83346413  0.16653587  0.33320177
   0.83346412  0.83346414  0.33320175
   0.83241361  0.16758639  0.66666710
   0.83328328  0.33328229  0.83338361
   0.83328327  0.66671772  0.83338361
   0.83241359  0.83241361  0.66666711
   0.83359858  0.00000002  0.16666701
   0.83346417  0.16653583  0.00013121
   0.83346416  0.83346416  0.00013121
   0.83328320  0.33328227  0.49994937
   0.83241360  0.49999997  0.33425235
   0.83328318  0.66671772  0.49994939
   0.83327239  0.00000001  0.83330501
   0.83242146  0.49999997  0.66666710
   0.33353321  0.50000000  0.50020009
Direct configuration=     3
  -0.00000003  0.00000005  0.00055199
  -0.00000000  0.16611300  0.16666493
   0.00000002  0.33339303 -0.00012588
  -0.00000003  0.49999995  0.16666506
  -0.00000002  0.66660694 -0.00012591
  -0.00000004  0.83388705  0.16666490
  -0.00000003  0.00000008  0.33278305
  -0.00000003  0.16679081  0.50005801
   0.00000001  0.33339297  0.33346072
   0.00000001  0.49999993  0.50015958
  -0.00000003  0.66660697  0.33346069
  -0.00000001  0.83320925  0.50005807
  -0.00000002  0.00000002  0.66666506
  -0.00000000  0.16679087  0.83327698
   0.00000001  0.33349485  0.66666512
   0.00000002  0.49999997  0.83317520
   0.00000005  0.66650514  0.66666516
   0.00000001  0.83320914  0.83327697
   0.16611294  0.00000009  0.16666491
   0.16639231  0.16639238  0.00027264
   0.16639229  0.83360766  0.00027258
   0.16676839  0.33322972  0.49989482
   0.16857543  0.49999992  0.33524560
   0.16676846  0.66677025  0.49989489
   0.16679083  0.00000002  0.83327697
   0.16855919  0.49999996  0.66666510
   0.16679076  0.33339300  0.16666499
   0.16679074  0.66660691  0.16666497
   0.16639234  0.16639245  0.33306237
   0.16639236  0.83360762  0.33306240
   0.16857542  0.16857549  0.66666512
   0.16676822  0.33322973  0.83344026
   0.16676825  0.66677026  0.83344021
   0.16857548  0.83142451  0.66666513
   0.16857548  0.49999995 -0.00191086
   0.16679073  0.00000004  0.50005805
   0.33339301  0.00000006 -0.00012590
   0.33339302  0.16679082  0.16666499
   0.33339306  0.83320923  0.16666499
   0.33322963  0.33322967  0.33343796
   0.33322970  0.66677028  0.33343803
   0.33322970  0.16676828  0.83344027
   0.33374988  0.33374998  0.66666523
   0.33374989  0.66625004  0.66666522
   0.33322972  0.83323172  0.83344021
   0.33322973  0.33322975 -0.00010330
   0.33349489  0.49999994  0.16666509
   0.33322976  0.66677020 -0.00010335
   0.33339301  0.00000006  0.33346071
   0.33322971  0.16676846  0.49989481
   0.33322972  0.83323154  0.49989489
   0.33349483 -0.00000002  0.66666514
   0.33375177  0.49999999  0.83291842
   0.50000004  0.00000007  0.16666508
   0.50000001  0.16857553 -0.00191083
   0.50000002  0.33349490  0.16666511
   0.50000000  0.49999996 -0.00189404
   0.50000005  0.66650507  0.16666509
   0.50000003  0.83142448 -0.00191088
   0.50000003  0.00000000  0.50015957
   0.50000003  0.16857546  0.33524556
   0.49999998  0.33375114  0.50041572
   0.50000000  0.49999996  0.33522859
   0.49999996  0.66624885  0.50041577
   0.50000005  0.83142456  0.33524561
   0.50000000 -0.00000000  0.83317520
   0.50000001  0.16855920  0.66666510
   0.49999998  0.33375178  0.83291848
   0.49999996  0.66624821  0.83291845
   0.49999998  0.83144081  0.66666511
   0.66677025  0.33322975 -0.00010328
   0.66650514  0.49999998  0.16666509
   0.66677027  0.66677022 -0.00010326
   0.66660704  0.00000003  0.33346069
   0.66677032  0.16676842  0.49989480
   0.66677028  0.83323159  0.49989481
   0.66650520  0.00000002  0.66666512
   0.66624823  0.49999999  0.83291848
   0.66660700  0.16679078  0.16666501
   0.66660701  0.83320922  0.16666499
   0.66677037  0.33322963  0.33343794
   0.66677033  0.66677033  0.33343793
   0.66677030  0.16676825  0.83344027
   0.66625009  0.33374991  0.66666522
   0.66625005  0.66625009  0.66666522
   0.66677028  0.83323176  0.83344026
   0.66660699  0.00000003 -0.00012587
   0.66624886  0.49999998  0.50041574
   0.83142451  0.49999998 -0.00191081
   0.83320923  0.00000006  0.50005804
   0.83320921  0.33339304  0.16666502
   0.83320919  0.66660693  0.16666497
   0.83360762  0.16639242  0.33306237
   0.83360759  0.83360764  0.33306235
   0.83142458  0.16857545  0.66666509
   0.83323180  0.33322971  0.83344028
   0.83323178  0.66677028  0.83344029
   0.83142454  0.83142458  0.66666512
   0.83388701  0.00000005  0.16666493
   0.83360769  0.16639235  0.00027265
   0.83360766  0.83360768  0.00027265
   0.83323163  0.33322967  0.49989478
   0.83142456  0.49999994  0.33524554
   0.83323158  0.66677029  0.49989482
   0.83320916  0.00000002  0.83327696
   0.83144088  0.49999993  0.66666510
   0.33375113  0.50000001  0.50041579
Direct configuration=     4
  -0.00000003  0.00000005  0.00053847
  -0.00000000  0.16612662  0.16666503
   0.00000002  0.33339151 -0.00012280
  -0.00000003  0.49999995  0.16666516
  -0.00000002  0.66660846 -0.00012282
  -0.00000004  0.83387342  0.16666500
  -0.00000003  0.00000008  0.33279648
  -0.00000003  0.16678783  0.50005659
   0.00000001  0.33339145  0.33345754
   0.00000001  0.49999993  0.50015567
  -0.00000003  0.66660848  0.33345751
  -0.00000001  0.83321223  0.50005665
  -0.00000002  0.00000002  0.66666515
  -0.00000000  0.16678789  0.83327830
   0.00000001  0.33349084  0.66666522
   0.00000002  0.49999997  0.83317902
   0.00000005  0.66650916  0.66666525
   0.00000001  0.83321213  0.83327829
   0.16612656  0.00000009  0.16666500
   0.16639909  0.16639915  0.00026596
   0.16639907  0.83360089  0.00026590
   0.16676595  0.33323220  0.49989739
   0.16852872  0.49999992  0.33519869
   0.16676602  0.66676776  0.49989747
   0.16678785  0.00000002  0.83327829
   0.16851288  0.49999997  0.66666519
   0.16678777  0.33339149  0.16666508
   0.16678776  0.66660843  0.16666507
   0.16639911  0.16639923  0.33306895
   0.16639914  0.83360084  0.33306898
   0.16852871  0.16852878  0.66666521
   0.16676579  0.33323221  0.83343758
   0.16676581  0.66676778  0.83343754
   0.16852877  0.83147122  0.66666522
   0.16852876  0.49999995 -0.00186404
   0.16678774  0.00000004  0.50005663
   0.33339149  0.00000006 -0.00012282
   0.33339150  0.16678783  0.16666509
   0.33339154  0.83321222  0.16666508
   0.33323212  0.33323216  0.33343534
   0.33323218  0.66676780  0.33343540
   0.33323218  0.16676584  0.83343760
   0.33373962  0.33373972  0.66666532
   0.33373963  0.66626031  0.66666532
   0.33323220  0.83323415  0.83343754
   0.33323221  0.33323224 -0.00010077
   0.33349088  0.49999995  0.16666519
   0.33323224  0.66676772 -0.00010082
   0.33339149  0.00000006  0.33345753
   0.33323219  0.16676602  0.49989739
   0.33323220  0.83323398  0.49989747
   0.33349082 -0.00000002  0.66666523
   0.33374146  0.49999999  0.83292853
   0.50000004  0.00000006  0.16666517
   0.50000001  0.16852882 -0.00186401
   0.50000002  0.33349088  0.16666520
   0.50000000  0.49999996 -0.00184764
   0.50000005  0.66650908  0.16666519
   0.50000003  0.83147119 -0.00186406
   0.50000003  0.00000000  0.50015566
   0.50000003  0.16852875  0.33519865
   0.49999999  0.33374084  0.50040553
   0.50000000  0.49999996  0.33518210
   0.49999996  0.66625914  0.50040559
   0.50000005  0.83147127  0.33519870
   0.50000000 -0.00000000  0.83317902
   0.50000001  0.16851289  0.66666519
   0.49999998  0.33374148  0.83292859
   0.49999996  0.66625852  0.83292856
   0.49999998  0.83148713  0.66666520
   0.66676777  0.33323223 -0.00010075
   0.66650915  0.49999998  0.16666519
   0.66676778  0.66676774 -0.00010073
   0.66660855  0.00000003  0.33345751
   0.66676784  0.16676599  0.49989737
   0.66676780  0.83323403  0.49989739
   0.66650921  0.00000002  0.66666522
   0.66625854  0.49999999  0.83292859
   0.66660852  0.16678780  0.16666511
   0.66660852  0.83321221  0.16666509
   0.66676789  0.33323212  0.33343532
   0.66676785  0.66676785  0.33343531
   0.66676782  0.16676581  0.83343759
   0.66626035  0.33373964  0.66666531
   0.66626031  0.66626036  0.66666531
   0.66676779  0.83323419  0.83343758
   0.66660851  0.00000003 -0.00012278
   0.66625916  0.49999998  0.50040555
   0.83147123  0.49999998 -0.00186399
   0.83321222  0.00000006  0.50005662
   0.83321219  0.33339153  0.16666512
   0.83321217  0.66660845  0.16666507
   0.83360084  0.16639919  0.33306896
   0.83360081  0.83360086  0.33306893
   0.83147129  0.16852874  0.66666519
   0.83323423  0.33323219  0.83343760
   0.83323422  0.66676780  0.83343761
   0.83147125  0.83147129  0.66666521
   0.83387339  0.00000004  0.16666503
   0.83360091  0.16639912  0.00026597
   0.83360089  0.83360090  0.00026597
   0.83323406  0.33323215  0.49989736
   0.83147127  0.49999994  0.33519863
   0.83323402  0.66676780  0.49989740
   0.83321215  0.00000002  0.83327828
   0.83148719  0.49999994  0.66666519
   0.33374083  0.50000001  0.50040560
Direct configuration=     5
  -0.00000012  0.00000011  0.00036231
  -0.00000012  0.16630420  0.16666654
  -0.00000008  0.33361421 -0.00011120
  -0.00000011  0.49999990  0.16666640
  -0.00000009  0.66638569 -0.00011121
  -0.00000013  0.83369589  0.16666656
  -0.00000013  0.00000012  0.33297122
  -0.00000015  0.16677782  0.50028073
  -0.00000013  0.33361418  0.33344482
  -0.00000015  0.49999989  0.50030563
  -0.00000011  0.66638571  0.33344480
  -0.00000013  0.83322228  0.50028075
  -0.00000013  0.00000010  0.66666653
  -0.00000008  0.16677786  0.83305292
  -0.00000013  0.33363911  0.66666652
  -0.00000008  0.49999991  0.83302797
  -0.00000009  0.66636080  0.66666653
  -0.00000010  0.83322221  0.83305291
   0.16630433  0.00000013  0.16666653
   0.16640008  0.16639997  0.00026664
   0.16640008  0.83360011  0.00026664
   0.16664460  0.33322602  0.49989252
   0.16859796  0.49999990  0.33526483
   0.16664460  0.66677386  0.49989253
   0.16677798  0.00000012  0.83305292
   0.16855679  0.49999990  0.66666659
   0.16677796  0.33361420  0.16666645
   0.16677795  0.66638567  0.16666646
   0.16640003  0.16639993  0.33306690
   0.16640003  0.83360015  0.33306692
   0.16859371  0.16859362  0.66666544
   0.16664462  0.33322596  0.83344107
   0.16664461  0.66677392  0.83344107
   0.16859371  0.83140647  0.66666538
   0.16859799  0.49999991 -0.00193130
   0.16677790  0.00000011  0.50028075
   0.33361449  0.00000011 -0.00011117
   0.33361449  0.16677783  0.16666646
   0.33361451  0.83322228  0.16666644
   0.33322630  0.33322602  0.33331146
   0.33322627  0.66677387  0.33331145
   0.33322619  0.16664451  0.83344108
   0.33399045  0.33399018  0.66666659
   0.33399036  0.66600972  0.66666660
   0.33322620  0.83335559  0.83344108
   0.33322627  0.33322603  0.00002208
   0.33363931  0.49999989  0.16666646
   0.33322628  0.66677386  0.00002208
   0.33361448  0.00000011  0.33344478
   0.33322631  0.16664451  0.49989251
   0.33322626  0.83335561  0.49989251
   0.33363936  0.00000011  0.66666653
   0.33399075  0.49999989  0.83267629
   0.50000010  0.00000012  0.16666639
   0.50000008  0.16859785 -0.00193124
   0.50000009  0.33363903  0.16666652
   0.50000005  0.49999989 -0.00188975
   0.50000010  0.66636087  0.16666647
   0.50000008  0.83140224 -0.00193130
   0.50000011  0.00000013  0.50030559
   0.50000015  0.16859787  0.33526483
   0.50000015  0.33399043  0.50065705
   0.50000014  0.49999985  0.33522343
   0.50000012  0.66600942  0.50065701
   0.50000012  0.83140227  0.33526474
   0.50000009  0.00000010  0.83302801
   0.50000013  0.16855670  0.66666652
   0.50000008  0.33399052  0.83267623
   0.50000009  0.66600936  0.83267630
   0.50000009  0.83144347  0.66666654
   0.66677382  0.33322601  0.00002211
   0.66636080  0.49999990  0.16666653
   0.66677382  0.66677388  0.00002212
   0.66638566  0.00000014  0.33344478
   0.66677383  0.16664455  0.49989249
   0.66677387  0.83335562  0.49989249
   0.66636077  0.00000014  0.66666651
   0.66600934  0.49999989  0.83267620
   0.66638564  0.16677781  0.16666652
   0.66638563  0.83322228  0.16666647
   0.66677384  0.33322600  0.33331151
   0.66677385  0.66677385  0.33331145
   0.66677389  0.16664448  0.83344104
   0.66600969  0.33399017  0.66666650
   0.66600974  0.66600968  0.66666654
   0.66677391  0.83335562  0.83344108
   0.66638562  0.00000010 -0.00011117
   0.66600946  0.49999984  0.50065703
   0.83140195  0.49999991 -0.00193132
   0.83322198  0.00000013  0.50028074
   0.83322194  0.33361421  0.16666652
   0.83322195  0.66638569  0.16666647
   0.83359982  0.16639995  0.33306694
   0.83359985  0.83360018  0.33306693
   0.83140616  0.16859363  0.66666531
   0.83335530  0.33322596  0.83344103
   0.83335531  0.66677395  0.83344105
   0.83140620  0.83140649  0.66666530
   0.83369557  0.00000011  0.16666658
   0.83359986  0.16639993  0.00026668
   0.83359984  0.83360016  0.00026669
   0.83335524  0.33322602  0.49989250
   0.83140189  0.49999987  0.33526482
   0.83335528  0.66677385  0.49989253
   0.83322194  0.00000009  0.83305290
   0.83144311  0.49999987  0.66666647
   0.33399071  0.49999987  0.50065705
Direct configuration=     6
  -0.00000021  0.00000017  0.00019907
  -0.00000023  0.16646876  0.16666794
  -0.00000017  0.33382057 -0.00010046
  -0.00000019  0.49999986  0.16666755
  -0.00000016  0.66617925 -0.00010045
  -0.00000021  0.83353138  0.16666801
  -0.00000023  0.00000016  0.33313315
  -0.00000026  0.16676855  0.50048844
  -0.00000026  0.33382057  0.33343303
  -0.00000031  0.49999986  0.50044459
  -0.00000018  0.66617927  0.33343303
  -0.00000024  0.83323159  0.50048842
  -0.00000023  0.00000017  0.66666781
  -0.00000015  0.16676858  0.83284406
  -0.00000026  0.33377651  0.66666773
  -0.00000017  0.49999985  0.83288800
  -0.00000022  0.66622332  0.66666771
  -0.00000020  0.83323155  0.83284405
   0.16646907  0.00000016  0.16666795
   0.16640100  0.16640073  0.00026728
   0.16640102  0.83359940  0.00026732
   0.16653215  0.33322030  0.49988800
   0.16866213  0.49999988  0.33532613
   0.16653208  0.66677952  0.49988795
   0.16676883  0.00000020  0.83284407
   0.16859748  0.49999985  0.66666787
   0.16676886  0.33382058  0.16666772
   0.16676885  0.66617925  0.16666775
   0.16640088  0.16640059  0.33306499
   0.16640086  0.83359952  0.33306502
   0.16865395  0.16865370  0.66666565
   0.16653234  0.33322016  0.83344431
   0.16653229  0.66677962  0.83344434
   0.16865388  0.83134646  0.66666553
   0.16866214  0.49999986 -0.00199362
   0.16676878  0.00000017  0.50048844
   0.33382113  0.00000015 -0.00010038
   0.33382113  0.16676855  0.16666773
   0.33382112  0.83323160  0.16666770
   0.33322091  0.33322033  0.33319665
   0.33322079  0.66677950  0.33319658
   0.33322064  0.16653207  0.83344430
   0.33422288  0.33422228  0.66666777
   0.33422269  0.66577750  0.66666778
   0.33322063  0.83346813  0.83344437
   0.33322076  0.33322028  0.00013592
   0.33377686  0.49999984  0.16666764
   0.33322075  0.66677955  0.00013597
   0.33382112  0.00000016  0.33343296
   0.33322087  0.16653191  0.49988800
   0.33322076  0.83346833  0.49988792
   0.33377701  0.00000023  0.66666773
   0.33422175  0.49999978  0.83244255
   0.50000015  0.00000016  0.16666753
   0.50000014  0.16866182 -0.00199354
   0.50000016  0.33377631  0.16666773
   0.50000010  0.49999983 -0.00192878
   0.50000015  0.66622352  0.16666765
   0.50000013  0.83133835 -0.00199361
   0.50000019  0.00000025  0.50044453
   0.50000026  0.16866193  0.33532616
   0.50000030  0.33422171  0.50089012
   0.50000027  0.49999975  0.33526172
   0.50000027  0.66577801  0.50088999
   0.50000018  0.83133832  0.33532594
   0.50000018  0.00000020  0.83288808
   0.50000025  0.16859730  0.66666776
   0.50000017  0.33422131  0.83244237
   0.50000020  0.66577848  0.83244253
   0.50000019  0.83140301  0.66666777
   0.66677942  0.33322025  0.00013596
   0.66622333  0.49999983  0.16666778
   0.66677941  0.66677957  0.00013597
   0.66617912  0.00000025  0.33343298
   0.66677939  0.16653201  0.49988797
   0.66677948  0.83346829  0.49988796
   0.66622321  0.00000024  0.66666771
   0.66577842  0.49999981  0.83244231
   0.66617910  0.16676855  0.16666783
   0.66617908  0.83323162  0.16666775
   0.66677936  0.33322032  0.33319678
   0.66677941  0.66677942  0.33319668
   0.66677952  0.16653205  0.83344424
   0.66577740  0.33422233  0.66666761
   0.66577754  0.66577739  0.66666768
   0.66677957  0.83346814  0.83344432
   0.66617908  0.00000017 -0.00010041
   0.66577807  0.49999971  0.50089006
   0.83133776  0.49999983 -0.00199371
   0.83323104  0.00000019  0.50048843
   0.83323097  0.33382056  0.16666781
   0.83323101  0.66617926  0.16666776
   0.83359888  0.16640065  0.33306508
   0.83359897  0.83359955  0.33306508
   0.83134582  0.16865377  0.66666543
   0.83346750  0.33322019  0.83344420
   0.83346753  0.66677965  0.83344424
   0.83134593  0.83134644  0.66666537
   0.83353079  0.00000017  0.16666802
   0.83359888  0.16640067  0.00026735
   0.83359888  0.83359947  0.00026735
   0.83346754  0.33322034  0.49988800
   0.83133760  0.49999980  0.33532616
   0.83346766  0.66677945  0.49988801
   0.83323101  0.00000016  0.83284405
   0.83140227  0.49999980  0.66666765
   0.33422226  0.49999974  0.50089007
Direct configuration=     7
  -0.00000021  0.00000017  0.00021556
  -0.00000021  0.16645213  0.16666779
  -0.00000016  0.33379972 -0.00010155
  -0.00000018  0.49999986  0.16666743
  -0.00000015  0.66620011 -0.00010154
  -0.00000021  0.83354800  0.16666786
  -0.00000022  0.00000016  0.33311679
  -0.00000025  0.16676948  0.50046745
  -0.00000025  0.33379972  0.33343423
  -0.00000029  0.49999986  0.50043054
  -0.00000018  0.66620012  0.33343422
  -0.00000023  0.83323065  0.50046744
  -0.00000022  0.00000016  0.66666768
  -0.00000015  0.16676952  0.83286516
  -0.00000024  0.33376262  0.66666761
  -0.00000016  0.49999985  0.83290214
  -0.00000021  0.66623721  0.66666759
  -0.00000019  0.83323061  0.83286516
   0.16645242  0.00000016  0.16666781
   0.16640090  0.16640065  0.00026721
   0.16640092  0.83359947  0.00026726
   0.16654352  0.33322087  0.49988846
   0.16865564  0.49999988  0.33531993
   0.16654345  0.66677895  0.49988842
   0.16676975  0.00000019  0.83286517
   0.16859337  0.49999985  0.66666774
   0.16676978  0.33379973  0.16666759
   0.16676977  0.66620010  0.16666762
   0.16640079  0.16640052  0.33306519
   0.16640078  0.83359958  0.33306521
   0.16864786  0.16864763  0.66666563
   0.16654368  0.33322075  0.83344398
   0.16654364  0.66677905  0.83344401
   0.16864780  0.83135252  0.66666551
   0.16865565  0.49999987 -0.00198732
   0.16676970  0.00000017  0.50046745
   0.33380025  0.00000015 -0.00010147
   0.33380025  0.16676949  0.16666760
   0.33380025  0.83323066  0.16666757
   0.33322146  0.33322091  0.33320825
   0.33322134  0.66677893  0.33320818
   0.33322121  0.16654343  0.83344397
   0.33419940  0.33419883  0.66666765
   0.33419922  0.66580096  0.66666766
   0.33322120  0.83345676  0.83344403
   0.33322132  0.33322086  0.00012442
   0.33376296  0.49999984  0.16666752
   0.33322131  0.66677897  0.00012446
   0.33380024  0.00000016  0.33343415
   0.33322142  0.16654329  0.49988846
   0.33322131  0.83345694  0.49988839
   0.33376310  0.00000021  0.66666761
   0.33419841  0.49999979  0.83246617
   0.50000014  0.00000016  0.16666741
   0.50000013  0.16865535 -0.00198724
   0.50000015  0.33376243  0.16666761
   0.50000009  0.49999984 -0.00192484
   0.50000014  0.66623740  0.16666753
   0.50000013  0.83134481 -0.00198731
   0.50000018  0.00000024  0.50043049
   0.50000025  0.16865546  0.33531997
   0.50000029  0.33419834  0.50086657
   0.50000026  0.49999976  0.33525785
   0.50000026  0.66580139  0.50086645
   0.50000017  0.83134478  0.33531976
   0.50000017  0.00000019  0.83290221
   0.50000024  0.16859320  0.66666763
   0.50000016  0.33419799  0.83246600
   0.50000019  0.66580181  0.83246615
   0.50000018  0.83140709  0.66666765
   0.66677885  0.33322083  0.00012446
   0.66623722  0.49999984  0.16666765
   0.66677885  0.66677900  0.00012446
   0.66619999  0.00000023  0.33343417
   0.66677882  0.16654338  0.49988842
   0.66677892  0.83345691  0.49988842
   0.66623711  0.00000023  0.66666759
   0.66580176  0.49999982  0.83246594
   0.66619997  0.16676948  0.16666770
   0.66619995  0.83323068  0.16666762
   0.66677881  0.33322090  0.33320838
   0.66677885  0.66677886  0.33320827
   0.66677895  0.16654341  0.83344392
   0.66580087  0.33419887  0.66666750
   0.66580100  0.66580086  0.66666756
   0.66677900  0.83345677  0.83344399
   0.66619995  0.00000016 -0.00010150
   0.66580145  0.49999973  0.50086652
   0.83134425  0.49999984 -0.00198740
   0.83323012  0.00000019  0.50046744
   0.83323006  0.33379971  0.16666768
   0.83323009  0.66620011  0.16666763
   0.83359897  0.16640058  0.33306527
   0.83359906  0.83359961  0.33306527
   0.83135192  0.16864769  0.66666542
   0.83345617  0.33322077  0.83344388
   0.83345619  0.66677907  0.83344392
   0.83135202  0.83135251  0.66666537
   0.83354744  0.00000016  0.16666787
   0.83359897  0.16640060  0.00026728
   0.83359898  0.83359954  0.00026728
   0.83345619  0.33322092  0.49988845
   0.83134410  0.49999980  0.33531996
   0.83345630  0.66677888  0.49988847
   0.83323009  0.00000015  0.83286515
   0.83140640  0.49999981  0.66666753
   0.33419887  0.49999976  0.50086652
Direct configuration=     8
  -0.00000062  0.00000098  0.00016562
  -0.00000066  0.16650171  0.16666795
  -0.00000056  0.33376685 -0.00019373
  -0.00000070  0.49999902  0.16666782
  -0.00000066  0.66623220 -0.00019376
  -0.00000070  0.83349920  0.16666804
  -0.00000074  0.00000094  0.33316834
  -0.00000071  0.16686131  0.50043282
  -0.00000068  0.33376689  0.33352795
  -0.00000058  0.49999901  0.50045706
  -0.00000076  0.66623220  0.33352798
  -0.00000065  0.83313964  0.50043280
  -0.00000066  0.00000094  0.66666541
  -0.00000063  0.16686130  0.83289896
  -0.00000054  0.33379006  0.66666536
  -0.00000052  0.49999895  0.83287482
  -0.00000054  0.66620903  0.66666528
  -0.00000060  0.83313970  0.83289890
   0.16650234  0.00000098  0.16666790
   0.16641578  0.16641522  0.00025253
   0.16641576  0.83358588  0.00025250
   0.16655682  0.33319083  0.49985824
   0.16866287  0.49999901  0.33532981
   0.16655664  0.66680837  0.49985819
   0.16686199  0.00000091  0.83289887
   0.16850551  0.49999888  0.66666533
   0.16686172  0.33376669  0.16666777
   0.16686169  0.66623236  0.16666783
   0.16641583  0.16641530  0.33308135