 108 108   0   0
  0.1022088E+02  0.1033485E-08  0.1033485E-08  0.1033485E-08  0.5000000E-15
  1.000000000000000E-004
  CAR 
 Opt                                     
      9.66684711     -3.93738759  301      6.77717186      1.00000000
     -3.937  0.0000E+00  0.0000E+00
     -3.892  0.0000E+00  0.0000E+00
     -3.847  0.0000E+00  0.0000E+00
     -3.801  0.0000E+00  0.0000E+00
     -3.756  0.0000E+00  0.0000E+00
     -3.711  0.0000E+00  0.0000E+00
     -3.665  0.0000E+00  0.0000E+00
     -3.620  0.0000E+00  0.0000E+00
     -3.575 -0.1004E-29 -0.4554E-31
     -3.529 -0.3697E-28 -0.1722E-29
     -3.484 -0.1257E-26 -0.5870E-28
     -3.439 -0.3849E-25 -0.1804E-26
     -3.393 -0.1063E-23 -0.4999E-25
     -3.348 -0.2643E-22 -0.1248E-23
     -3.303 -0.5922E-21 -0.2810E-22
     -3.257 -0.1195E-19 -0.5702E-21
     -3.212 -0.2173E-18 -0.1043E-19
     -3.166 -0.3558E-17 -0.1718E-18
     -3.121 -0.4940E-16 -0.2412E-17
     -3.076 -0.6778E-15 -0.3315E-16
     -3.030 -0.8036E-14 -0.3976E-15
     -2.985 -0.8612E-13 -0.4303E-14
     -2.940 -0.8296E-12 -0.4192E-13
     -2.894 -0.7182E-11 -0.3676E-12
     -2.849 -0.5585E-10 -0.2900E-11
     -2.804 -0.3899E-09 -0.2058E-10
     -2.758 -0.2442E-08 -0.1313E-09
     -2.713 -0.1371E-07 -0.7528E-09
     -2.668 -0.6888E-07 -0.3876E-08
     -2.622 -0.3095E-06 -0.1791E-07
     -2.577 -0.1242E-05 -0.7422E-07
     -2.532 -0.4437E-05 -0.2754E-06
     -2.486 -0.1408E-04 -0.9140E-06
     -2.441 -0.3955E-04 -0.2707E-05
     -2.396 -0.9774E-04 -0.7139E-05
     -2.350 -0.2108E-03 -0.1670E-04
     -2.305 -0.3917E-03 -0.3446E-04
     -2.260 -0.6113E-03 -0.6218E-04
     -2.214 -0.7580E-03 -0.9656E-04
     -2.169 -0.6196E-03 -0.1247E-03
     -2.123  0.7145E-04 -0.1214E-03
     -2.078  0.1535E-02 -0.5180E-04
     -2.033  0.3859E-02  0.1232E-03
     -1.987  0.7022E-02  0.4416E-03
     -1.942  0.1101E-01  0.9410E-03
     -1.897  0.1586E-01  0.1660E-02
     -1.851  0.2147E-01  0.2634E-02
     -1.806  0.2736E-01  0.3874E-02
     -1.761  0.3264E-01  0.5354E-02
     -1.715  0.3646E-01  0.7008E-02
     -1.670  0.3854E-01  0.8755E-02
     -1.625  0.3931E-01  0.1054E-01
     -1.579  0.3961E-01  0.1233E-01
     -1.534  0.4024E-01  0.1416E-01
     -1.489  0.4175E-01  0.1605E-01
     -1.443  0.4442E-01  0.1807E-01
     -1.398  0.4840E-01  0.2026E-01
     -1.353  0.5365E-01  0.2269E-01
     -1.307  0.5988E-01  0.2541E-01
     -1.262  0.6628E-01  0.2842E-01
     -1.217  0.7137E-01  0.3165E-01
     -1.171  0.7331E-01  0.3498E-01
     -1.126  0.7090E-01  0.3819E-01
     -1.080  0.6469E-01  0.4112E-01
     -1.035  0.5709E-01  0.4371E-01
     -0.990  0.5147E-01  0.4605E-01
     -0.944  0.5057E-01  0.4834E-01
     -0.899  0.5548E-01  0.5086E-01
     -0.854  0.6552E-01  0.5383E-01
     -0.808  0.7884E-01  0.5740E-01
     -0.763  0.9305E-01  0.6162E-01
     -0.718  0.1055E+00  0.6640E-01
     -0.672  0.1131E+00  0.7153E-01
     -0.627  0.1133E+00  0.7667E-01
     -0.582  0.1052E+00  0.8144E-01
     -0.536  0.9104E-01  0.8557E-01
     -0.491  0.7581E-01  0.8901E-01
     -0.446  0.6536E-01  0.9197E-01
     -0.400  0.6364E-01  0.9486E-01
     -0.355  0.7117E-01  0.9808E-01
     -0.310  0.8525E-01  0.1019E+00
     -0.264  0.1015E+00  0.1066E+00
     -0.219  0.1156E+00  0.1118E+00
     -0.174  0.1244E+00  0.1174E+00
     -0.128  0.1267E+00  0.1232E+00
     -0.083  0.1235E+00  0.1288E+00
     -0.038  0.1177E+00  0.1341E+00
      0.008  0.1128E+00  0.1392E+00
      0.053  0.1119E+00  0.1443E+00
      0.099  0.1155E+00  0.1495E+00
      0.144  0.1223E+00  0.1551E+00
      0.189  0.1297E+00  0.1610E+00
      0.235  0.1359E+00  0.1671E+00
      0.280  0.1399E+00  0.1735E+00
      0.325  0.1416E+00  0.1799E+00
      0.371  0.1410E+00  0.1863E+00
      0.416  0.1381E+00  0.1926E+00
      0.461  0.1330E+00  0.1986E+00
      0.507  0.1268E+00  0.2043E+00
      0.552  0.1215E+00  0.2098E+00
      0.597  0.1205E+00  0.2153E+00
      0.643  0.1274E+00  0.2211E+00
      0.688  0.1437E+00  0.2276E+00
      0.733  0.1674E+00  0.2352E+00
      0.779  0.1919E+00  0.2439E+00
      0.824  0.2099E+00  0.2534E+00
      0.869  0.2166E+00  0.2632E+00
      0.915  0.2127E+00  0.2729E+00
      0.960  0.2035E+00  0.2821E+00
      1.005  0.1944E+00  0.2909E+00
      1.051  0.1873E+00  0.2994E+00
      1.096  0.1805E+00  0.3076E+00
      1.142  0.1720E+00  0.3154E+00
      1.187  0.1636E+00  0.3228E+00
      1.232  0.1618E+00  0.3302E+00
      1.278  0.1740E+00  0.3381E+00
      1.323  0.2034E+00  0.3473E+00
      1.368  0.2460E+00  0.3584E+00
      1.414  0.2906E+00  0.3716E+00
      1.459  0.3242E+00  0.3863E+00
      1.504  0.3365E+00  0.4016E+00
      1.550  0.3254E+00  0.4163E+00
      1.595  0.2978E+00  0.4298E+00
      1.640  0.2682E+00  0.4420E+00
      1.686  0.2545E+00  0.4535E+00
      1.731  0.2719E+00  0.4659E+00
      1.776  0.3284E+00  0.4808E+00
      1.822  0.4219E+00  0.4999E+00
      1.867  0.5410E+00  0.5244E+00
      1.912  0.6695E+00  0.5548E+00
      1.958  0.7921E+00  0.5907E+00
      2.003  0.8975E+00  0.6314E+00
      2.048  0.9790E+00  0.6758E+00
      2.094  0.1032E+01  0.7226E+00
      2.139  0.1056E+01  0.7705E+00
      2.185  0.1052E+01  0.8182E+00
      2.230  0.1033E+01  0.8651E+00
      2.275  0.1015E+01  0.9111E+00
      2.321  0.1011E+01  0.9569E+00
      2.366  0.1030E+01  0.1004E+01
      2.411  0.1065E+01  0.1052E+01
      2.457  0.1106E+01  0.1102E+01
      2.502  0.1140E+01  0.1154E+01
      2.547  0.1164E+01  0.1207E+01
      2.593  0.1187E+01  0.1260E+01
      2.638  0.1221E+01  0.1316E+01
      2.683  0.1273E+01  0.1374E+01
      2.729  0.1338E+01  0.1434E+01
      2.774  0.1402E+01  0.1498E+01
      2.819  0.1457E+01  0.1564E+01
      2.865  0.1504E+01  0.1632E+01
      2.910  0.1551E+01  0.1702E+01
      2.955  0.1604E+01  0.1775E+01
      3.001  0.1658E+01  0.1850E+01
      3.046  0.1699E+01  0.1927E+01
      3.091  0.1714E+01  0.2005E+01
      3.137  0.1700E+01  0.2082E+01
      3.182  0.1664E+01  0.2158E+01
      3.228  0.1620E+01  0.2231E+01
      3.273  0.1580E+01  0.2303E+01
      3.318  0.1544E+01  0.2373E+01
      3.364  0.1516E+01  0.2442E+01
      3.409  0.1497E+01  0.2509E+01
      3.454  0.1492E+01  0.2577E+01
      3.500  0.1501E+01  0.2645E+01
      3.545  0.1512E+01  0.2714E+01
      3.590  0.1513E+01  0.2782E+01
      3.636  0.1493E+01  0.2850E+01
      3.681  0.1451E+01  0.2916E+01
      3.726  0.1399E+01  0.2979E+01
      3.772  0.1354E+01  0.3041E+01
      3.817  0.1330E+01  0.3101E+01
      3.862  0.1327E+01  0.3161E+01
      3.908  0.1334E+01  0.3222E+01
      3.953  0.1332E+01  0.3282E+01
      3.998  0.1311E+01  0.3342E+01
      4.044  0.1278E+01  0.3399E+01
      4.089  0.1252E+01  0.3456E+01
      4.134  0.1257E+01  0.3513E+01
      4.180  0.1298E+01  0.3572E+01
      4.225  0.1366E+01  0.3634E+01
      4.271  0.1446E+01  0.3700E+01
      4.316  0.1527E+01  0.3769E+01
      4.361  0.1614E+01  0.3842E+01
      4.407  0.1707E+01  0.3919E+01
      4.452  0.1799E+01  0.4001E+01
      4.497  0.1868E+01  0.4086E+01
      4.543  0.1891E+01  0.4172E+01
      4.588  0.1862E+01  0.4256E+01
      4.633  0.1797E+01  0.4337E+01
      4.679  0.1729E+01  0.4416E+01
      4.724  0.1698E+01  0.4493E+01
      4.769  0.1730E+01  0.4571E+01
      4.815  0.1832E+01  0.4654E+01
      4.860  0.1981E+01  0.4744E+01
      4.905  0.2139E+01  0.4841E+01
      4.951  0.2264E+01  0.4944E+01
      4.996  0.2331E+01  0.5050E+01
      5.041  0.2339E+01  0.5156E+01
      5.087  0.2307E+01  0.5260E+01
      5.132  0.2264E+01  0.5363E+01
      5.177  0.2233E+01  0.5464E+01
      5.223  0.2235E+01  0.5566E+01
      5.268  0.2280E+01  0.5669E+01
      5.313  0.2371E+01  0.5776E+01
      5.359  0.2494E+01  0.5890E+01
      5.404  0.2615E+01  0.6008E+01
      5.450  0.2688E+01  0.6130E+01
      5.495  0.2671E+01  0.6251E+01
      5.540  0.2551E+01  0.6367E+01
      5.586  0.2353E+01  0.6474E+01
      5.631  0.2128E+01  0.6570E+01
      5.676  0.1928E+01  0.6658E+01
      5.722  0.1780E+01  0.6738E+01
      5.767  0.1678E+01  0.6814E+01
      5.812  0.1601E+01  0.6887E+01
      5.858  0.1528E+01  0.6956E+01
      5.903  0.1460E+01  0.7022E+01
      5.948  0.1410E+01  0.7086E+01
      5.994  0.1398E+01  0.7150E+01
      6.039  0.1434E+01  0.7215E+01
      6.084  0.1511E+01  0.7283E+01
      6.130  0.1607E+01  0.7356E+01
      6.175  0.1702E+01  0.7433E+01
      6.220  0.1780E+01  0.7514E+01
      6.266  0.1843E+01  0.7598E+01
      6.311  0.1900E+01  0.7684E+01
      6.356  0.1964E+01  0.7773E+01
      6.402  0.2035E+01  0.7865E+01
      6.447  0.2097E+01  0.7960E+01
      6.493  0.2130E+01  0.8057E+01
      6.538  0.2124E+01  0.8153E+01
      6.583  0.2093E+01  0.8248E+01
      6.629  0.2058E+01  0.8341E+01
      6.674  0.2036E+01  0.8434E+01
      6.719  0.2021E+01  0.8525E+01
      6.765  0.1989E+01  0.8615E+01
      6.810  0.1920E+01  0.8703E+01
      6.855  0.1820E+01  0.8785E+01
      6.901  0.1720E+01  0.8863E+01
      6.946  0.1658E+01  0.8938E+01
      6.991  0.1653E+01  0.9013E+01
      7.037  0.1696E+01  0.9090E+01
      7.082  0.1757E+01  0.9170E+01
      7.127  0.1809E+01  0.9252E+01
      7.173  0.1838E+01  0.9335E+01
      7.218  0.1852E+01  0.9419E+01
      7.263  0.1866E+01  0.9504E+01
      7.309  0.1895E+01  0.9590E+01
      7.354  0.1948E+01  0.9678E+01
      7.399  0.2022E+01  0.9770E+01
      7.445  0.2100E+01  0.9865E+01
      7.490  0.2151E+01  0.9963E+01
      7.536  0.2130E+01  0.1006E+02
      7.581  0.1997E+01  0.1015E+02
      7.626  0.1736E+01  0.1023E+02
      7.672  0.1369E+01  0.1029E+02
      7.717  0.9529E+00  0.1033E+02
      7.762  0.5597E+00  0.1036E+02
      7.808  0.2492E+00  0.1037E+02
      7.853  0.4867E-01  0.1037E+02
      7.898 -0.4976E-01  0.1037E+02
      7.944 -0.7629E-01  0.1037E+02
      7.989 -0.6553E-01  0.1036E+02
      8.034 -0.4360E-01  0.1036E+02
      8.080 -0.2427E-01  0.1036E+02
      8.125 -0.1166E-01  0.1036E+02
      8.170 -0.4909E-02  0.1036E+02
      8.216 -0.1826E-02  0.1036E+02
      8.261 -0.6034E-03  0.1036E+02
      8.306 -0.1777E-03  0.1036E+02
      8.352 -0.4678E-04  0.1036E+02
      8.397 -0.1102E-04  0.1036E+02
      8.442 -0.2329E-05  0.1036E+02
      8.488 -0.4415E-06  0.1036E+02
      8.533 -0.7516E-07  0.1036E+02
      8.579 -0.1150E-07  0.1036E+02
      8.624 -0.1582E-08  0.1036E+02
      8.669 -0.1958E-09  0.1036E+02
      8.715 -0.2181E-10  0.1036E+02
      8.760 -0.2187E-11  0.1036E+02
      8.805 -0.1974E-12  0.1036E+02
      8.851 -0.1607E-13  0.1036E+02
      8.896 -0.1285E-14  0.1036E+02
      8.941  0.0000E+00  0.1036E+02
      8.987  0.0000E+00  0.1036E+02
      9.032  0.0000E+00  0.1036E+02
      9.077  0.0000E+00  0.1036E+02
      9.123  0.0000E+00  0.1036E+02
      9.168  0.0000E+00  0.1036E+02
      9.213  0.0000E+00  0.1036E+02
      9.259  0.0000E+00  0.1036E+02
      9.304  0.0000E+00  0.1036E+02
      9.349  0.0000E+00  0.1036E+02
      9.395  0.0000E+00  0.1036E+02
      9.440  0.0000E+00  0.1036E+02
      9.485  0.0000E+00  0.1036E+02
      9.531  0.0000E+00  0.1036E+02
      9.576  0.0000E+00  0.1036E+02
      9.621  0.0000E+00  0.1036E+02
      9.667  0.0000E+00  0.1036E+02
