 running on    8 total cores
 distrk:  each k-point on    8 cores,    1 groups
 distr:  one band on    4 cores,    2 groups
 using from now: INCAR     
 vasp.5.4.4.18Apr17-6-g9f103f2a35 (build Aug 17 2017 06:00:38) complex          
  
 POSCAR found type information on POSCAR  Fe
 POSCAR found :  1 types and     108 ions
 scaLAPACK will be used
 LDA part: xc-table for Pade appr. of Perdew

 ----------------------------------------------------------------------------- 
|                                                                             |
|           W    W    AA    RRRRR   N    N  II  N    N   GGGG   !!!           |
|           W    W   A  A   R    R  NN   N  II  NN   N  G    G  !!!           |
|           W    W  A    A  R    R  N N  N  II  N N  N  G       !!!           |
|           W WW W  AAAAAA  RRRRR   N  N N  II  N  N N  G  GGG   !            |
|           WW  WW  A    A  R   R   N   NN  II  N   NN  G    G                |
|           W    W  A    A  R    R  N    N  II  N    N   GGGG   !!!           |
|                                                                             |
|      Your FFT grids (NGX,NGY,NGZ) are not sufficient for an accurate        |
|      calculation.                                                           |
|      The results might be wrong                                             |
|      good settings for NGX NGY and  NGZ are                                 |
|                        80  80  and  80                                      |
|     Mind: This setting results in a small but reasonable wrap around error  |
|     It is also necessary to adjust these  values to the FFT routines you use|
|                                                                             |
 ----------------------------------------------------------------------------- 

 POSCAR, INCAR and KPOINTS ok, starting setup
 FFT: planning ...
 WAVECAR not read
 entering main loop
       N       E                     dE             d eps       ncg     rms          rms(c)
DAV:   1     0.107729866654E+05    0.10773E+05   -0.49054E+05  4144   0.335E+03
DAV:   2     0.575064104234E+03   -0.10198E+05   -0.10061E+05  4144   0.640E+02
DAV:   3    -0.797070485387E+03   -0.13721E+04   -0.11847E+04  4144   0.295E+02
DAV:   4    -0.102437977260E+04   -0.22731E+03   -0.21396E+03  7512   0.757E+01
DAV:   5    -0.104507741712E+04   -0.20698E+02   -0.19643E+02  6720   0.274E+01    0.935E+01
RMM:   6    -0.877026262059E+03    0.16805E+03   -0.13539E+03  4144   0.112E+02    0.882E+00
RMM:   7    -0.880209606490E+03   -0.31833E+01   -0.11236E+02  4560   0.243E+01    0.375E+00
RMM:   8    -0.880347859771E+03   -0.13825E+00   -0.15074E+01  4462   0.105E+01    0.146E+01
RMM:   9    -0.879611902859E+03    0.73596E+00   -0.47706E+00  4976   0.389E+00    0.255E+00
RMM:  10    -0.879501181290E+03    0.11072E+00   -0.20767E+00  5792   0.142E+00    0.907E-01
RMM:  11    -0.879513957182E+03   -0.12776E-01   -0.15303E-01  5745   0.418E-01    0.656E-01
RMM:  12    -0.879508619349E+03    0.53378E-02   -0.35437E-02  4580   0.497E-01    0.177E-01
RMM:  13    -0.879509584535E+03   -0.96519E-03   -0.17473E-02  5756   0.125E-01    0.743E-02
RMM:  14    -0.879509603746E+03   -0.19211E-04   -0.88734E-04  4869   0.728E-02    0.192E-02
RMM:  15    -0.879509623805E+03   -0.20059E-04   -0.22484E-04  6195   0.157E-02    0.122E-02
RMM:  16    -0.879509594492E+03    0.29313E-04    0.27022E-04  4495   0.546E-03    0.460E-03
RMM:  17    -0.879509557948E+03    0.36543E-04    0.26714E-04  3291   0.498E-03    0.312E-03
RMM:  18    -0.879509530662E+03    0.27286E-04    0.23814E-04  2816   0.262E-03    0.940E-04
RMM:  19    -0.879509501841E+03    0.28821E-04    0.24989E-04  2716   0.298E-03    0.136E-03
RMM:  20    -0.879509486000E+03    0.15841E-04    0.14275E-04  2669   0.212E-03    0.140E-04
RMM:  21    -0.879509474580E+03    0.11420E-04    0.11092E-04  2474   0.113E-03    0.759E-04
RMM:  22    -0.879509456382E+03    0.18197E-04    0.16744E-04  2480   0.152E-03    0.912E-05
RMM:  23    -0.879509443017E+03    0.13365E-04    0.11816E-04  1820   0.662E-04    0.142E-04
RMM:  24    -0.879509433735E+03    0.92817E-05    0.83433E-05  1644   0.703E-04    0.179E-04
RMM:  25    -0.879509426564E+03    0.71712E-05    0.67382E-05  1672   0.634E-04    0.837E-05
RMM:  26    -0.879509420260E+03    0.63039E-05    0.59907E-05  1574   0.588E-04    0.125E-04
RMM:  27    -0.879509414685E+03    0.55755E-05    0.53653E-05  1497   0.552E-04    0.148E-04
RMM:  28    -0.879509409531E+03    0.51541E-05    0.49994E-05  1364   0.463E-04    0.126E-04
RMM:  29    -0.879509404822E+03    0.47084E-05    0.45769E-05  1302   0.471E-04    0.190E-04
RMM:  30    -0.879509400420E+03    0.44017E-05    0.42879E-05  1107   0.407E-04    0.139E-04
RMM:  31    -0.879509396391E+03    0.40292E-05    0.39459E-05  1086   0.402E-04    0.178E-04
RMM:  32    -0.879509392608E+03    0.37829E-05    0.36936E-05   995   0.369E-04    0.138E-04
RMM:  33    -0.879509389127E+03    0.34810E-05    0.34038E-05   949   0.362E-04    0.173E-04
RMM:  34    -0.879509385883E+03    0.32447E-05    0.31781E-05   885   0.343E-04    0.151E-04
RMM:  35    -0.879509382900E+03    0.29829E-05    0.29283E-05   915   0.336E-04    0.158E-04
RMM:  36    -0.879509380119E+03    0.27806E-05    0.27265E-05   876   0.326E-04    0.140E-04
RMM:  37    -0.879509377564E+03    0.25546E-05    0.25107E-05   831   0.320E-04    0.169E-04
RMM:  38    -0.879509375206E+03    0.23587E-05    0.23313E-05   835   0.311E-04    0.177E-04
RMM:  39    -0.879509373036E+03    0.21694E-05    0.21447E-05  1029   0.325E-04    0.247E-04
RMM:  40    -0.879509371024E+03    0.20123E-05    0.19868E-05   868   0.300E-04    0.242E-04
RMM:  41    -0.879509369170E+03    0.18545E-05    0.18268E-05   721   0.285E-04    0.248E-04
RMM:  42    -0.879509367457E+03    0.17122E-05    0.16884E-05   682   0.275E-04    0.252E-04
RMM:  43    -0.879509365881E+03    0.15761E-05    0.15510E-05   662   0.274E-04    0.256E-04
RMM:  44    -0.879509364415E+03    0.14662E-05    0.14306E-05   735   0.274E-04    0.214E-04
RMM:  45    -0.879509363074E+03    0.13416E-05    0.13130E-05   677   0.266E-04    0.205E-04
RMM:  46    -0.879509361875E+03    0.11984E-05    0.12093E-05   640   0.260E-04    0.231E-04
RMM:  47    -0.879509360730E+03    0.11454E-05    0.11090E-05   690   0.266E-04    0.193E-04
RMM:  48    -0.879509359678E+03    0.10516E-05    0.10194E-05  1005   0.287E-04    0.139E-04
RMM:  49    -0.879509358714E+03    0.96436E-06    0.93446E-06   809   0.265E-04
   1 F= -.87950936E+03 E0= -.87948547E+03  d E =-.879509E+03
 curvature:   0.00 expect dE= 0.000E+00 dE for cont linesearch  0.000E+00
 trial: gam= 0.00000 g(F)=  0.302E-37 g(S)=  0.215E-01 ort = 0.000E+00 (trialstep = 0.100E+01)
 search vector abs. value=  0.215E-01
 bond charge predicted
       N       E                     dE             d eps       ncg     rms          rms(c)
DAV:   1    -0.879737075030E+03   -0.22772E+00   -0.59934E+00  4728   0.779E+00    0.365E+00
RMM:   2    -0.879510768927E+03    0.22631E+00   -0.19626E+00  4153   0.388E+00    0.451E-01
RMM:   3    -0.879509698796E+03    0.10701E-02   -0.15873E-01  4616   0.729E-01    0.363E-01
RMM:   4    -0.879506477369E+03    0.32214E-02   -0.64965E-02  4144   0.845E-01    0.386E-01
RMM:   5    -0.879508210070E+03   -0.17327E-02   -0.10277E-02  4219   0.244E-01    0.766E-01
RMM:   6    -0.879504645096E+03    0.35650E-02   -0.13023E-02  4153   0.319E-01    0.604E-02
RMM:   7    -0.879504719698E+03   -0.74601E-04   -0.17591E-03  5332   0.478E-02    0.739E-02
RMM:   8    -0.879504680161E+03    0.39537E-04   -0.16257E-04  4198   0.358E-02    0.424E-02
RMM:   9    -0.879504690976E+03   -0.10815E-04   -0.20270E-04  4185   0.353E-02    0.676E-03
RMM:  10    -0.879504693945E+03   -0.29694E-05   -0.34997E-05  4548   0.549E-03    0.473E-03
RMM:  11    -0.879504692443E+03    0.15027E-05   -0.61113E-07  2314   0.308E-03    0.403E-03
RMM:  12    -0.879504691188E+03    0.12551E-05   -0.12878E-06  2249   0.367E-03    0.209E-03
RMM:  13    -0.879504692120E+03   -0.93252E-06    0.41325E-07  2215   0.207E-03
   2 F= -.87950469E+03 E0= -.87948204E+03  d E =0.466659E-02
 trial-energy change:    0.004667  1 .order    0.004757   -0.021450    0.030963
 step:   0.4117(harm=  0.4092)  dis= 0.00000  next Energy=  -879.513781 (dE=-0.442E-02)
 bond charge predicted
       N       E                     dE             d eps       ncg     rms          rms(c)
DAV:   1    -0.879593112384E+03   -0.88421E-01   -0.20628E+00  4632   0.456E+00    0.214E+00
RMM:   2    -0.879515468295E+03    0.77644E-01   -0.66893E-01  4153   0.227E+00    0.266E-01
RMM:   3    -0.879515563117E+03   -0.94822E-04   -0.55793E-02  4619   0.425E-01    0.213E-01
RMM:   4    -0.879514792030E+03    0.77109E-03   -0.19935E-02  4144   0.464E-01    0.380E-01
RMM:   5    -0.879514569924E+03    0.22211E-03   -0.29182E-03  4273   0.130E-01    0.261E-01
RMM:   6    -0.879513819273E+03    0.75065E-03   -0.58774E-03  4165   0.211E-01    0.339E-02
RMM:   7    -0.879513857076E+03   -0.37803E-04   -0.71150E-04  4822   0.287E-02    0.524E-02
RMM:   8    -0.879513785130E+03    0.71946E-04   -0.20734E-04  4147   0.446E-02    0.156E-02
RMM:   9    -0.879513766784E+03    0.18346E-04   -0.57697E-05  4320   0.140E-02    0.255E-03
RMM:  10    -0.879513769676E+03   -0.28919E-05   -0.43235E-06  2849   0.211E-03    0.322E-03
RMM:  11    -0.879513770804E+03   -0.11281E-05   -0.27240E-07  2229   0.145E-03    0.205E-03
RMM:  12    -0.879513771867E+03   -0.10631E-05   -0.72922E-07  2232   0.229E-03    0.312E-04
RMM:  13    -0.879513771885E+03   -0.17761E-07   -0.14005E-07  2192   0.144E-03
   3 F= -.87951377E+03 E0= -.87949043E+03  d E =-.441317E-02
 curvature:  -0.20 expect dE=-0.167E-05 dE for cont linesearch -0.167E-05
 trial: gam= 0.00000 g(F)=  0.362E-37 g(S)=  0.818E-05 ort =-0.419E-03 (trialstep = 0.882E+00)
 search vector abs. value=  0.818E-05
 reached required accuracy - stopping structural energy minimisation
