 vasp.5.4.4.18Apr17-6-g9f103f2a35 (build Aug 17 2017 06:00:38) complex          
  
 executed on             LinuxIFC date 2019.07.12  15:32:34
 running on    8 total cores
 distrk:  each k-point on    8 cores,    1 groups
 distr:  one band on NCORES_PER_BAND=   4 cores,    2 groups


--------------------------------------------------------------------------------------------------------


 INCAR:
 POTCAR:   PAW_PBE Fe 06Sep2000                   
 POTCAR:   PAW_PBE Fe 06Sep2000                   
   VRHFIN =Fe:  d7 s1                                                           
   LEXCH  = PE                                                                  
   EATOM  =   594.4687 eV,   43.6922 Ry                                         
                                                                                
   TITEL  = PAW_PBE Fe 06Sep2000                                                
   LULTRA =        F    use ultrasoft PP ?                                      
   IUNSCR =        1    unscreen: 0-lin 1-nonlin 2-no                           
   RPACOR =    2.000    partial core radius                                     
   POMASS =   55.847; ZVAL   =    8.000    mass and valenz                      
   RCORE  =    2.300    outmost cutoff radius                                   
   RWIGS  =    2.460; RWIGS  =    1.302    wigner-seitz radius (au A)           
   ENMAX  =  267.883; ENMIN  =  200.912 eV                                      
   RCLOC  =    1.701    cutoff for local pot                                    
   LCOR   =        T    correct aug charges                                     
   LPAW   =        T    paw PP                                                  
   EAUG   =  511.368                                                            
   DEXC   =    -.022                                                            
   RMAX   =    2.817    core radius for proj-oper                               
   RAUG   =    1.300    factor for augmentation sphere                          
   RDEP   =    2.442    radius for radial grids                                 
   QCUT   =   -4.437; QGAM   =    8.874    optimization parameters              
                                                                                
   Description                                                                  
     l     E      TYP  RCUT    TYP  RCUT                                        
     2   .000     23  2.300                                                     
     2   .000     23  2.300                                                     
     0   .000     23  2.300                                                     
     0   .000     23  2.300                                                     
     1  -.200     23  2.300                                                     
     1   .000     23  2.300                                                     
     3   .000      7   .000                                                     
  local pseudopotential read in
  partial core-charges read in
  atomic valenz-charges read in
  non local Contribution for L=           2  read in
    real space projection operators read in
  non local Contribution for L=           2  read in
    real space projection operators read in
  non local Contribution for L=           0  read in
    real space projection operators read in
  non local Contribution for L=           0  read in
    real space projection operators read in
  non local Contribution for L=           1  read in
    real space projection operators read in
  non local Contribution for L=           1  read in
    real space projection operators read in
    PAW grid and wavefunctions read in
 
   number of l-projection  operators is LMAX  =           6
   number of lm-projection operators is LMMAX =          18
 
 Optimization of the real space projectors (new method)

 maximal supplied QI-value         = 16.25
 optimisation between [QCUT,QGAM] = [ 15.28, 30.72] = [ 65.35,264.19] Ry 
 Optimized for a Real-space Cutoff    1.31 Angstroem

   l    n(q)    QCUT    max X(q) W(low)/X(q) W(high)/X(q)  e(spline) 
   2     11    15.277     4.378    0.56E-05    0.15E-04    0.68E-07
   2     11    15.277    23.237    0.20E-03    0.24E-03    0.11E-05
   0     12    15.277    17.641    0.15E-04    0.92E-06    0.78E-07
   0     12    15.277    50.908    0.43E-04    0.10E-04    0.77E-06
   1     12    15.277     6.148    0.12E-04    0.16E-04    0.11E-06
   1     12    15.277     8.345    0.24E-04    0.71E-04    0.87E-06
 PAW_PBE Fe 06Sep2000                   :
 energy of atom  1       EATOM= -594.4687
 kinetic energy error for atom=    0.0003 (will be added to EATOM!!)
 
 
 POSCAR: fcc_Fe_CON_333                          
  positions in direct lattice
  velocities in cartesian coordinates
 exchange correlation table for  LEXCH =        8
   RHO(1)=    0.500       N(1)  =     2000
   RHO(2)=  100.500       N(2)  =     4000
 


--------------------------------------------------------------------------------------------------------


 ion  position               nearest neighbor table
   1  0.000  0.000  0.000-   2 2.44   3 2.44   4 2.44  11 2.44  12 2.44  26 2.44  28 2.44  74 2.44
                            75 2.44  36 2.44  83 2.44  98 2.44
   2  0.000  0.167  0.167-  49 2.44  37 2.44  13 2.44  40 2.44  15 2.44  48 2.44  23 2.44   3 2.44
                             4 2.44   1 2.44  12 2.44  11 2.44
   3  0.167  0.000  0.167-  41 2.44  37 2.44   5 2.44  40 2.44   6 2.44  30 2.44  64 2.44   2 2.44
                             4 2.44   1 2.44  28 2.44  26 2.44
   4  0.167  0.167  0.000-  17 2.44  13 2.44   5 2.44  15 2.44   6 2.44  78 2.44  87 2.44   2 2.44
                             3 2.44   1 2.44  74 2.44  75 2.44
   5  0.333  0.000  0.000-   3 2.44   4 2.44  28 2.44  75 2.44   6 2.44   7 2.44   8 2.44  30 2.44
                            78 2.44  32 2.44  79 2.44 102 2.44
   6  0.333  0.167  0.167-  15 2.44  40 2.44  53 2.44  17 2.44  19 2.44   4 2.44  41 2.44  44 2.44
                             3 2.44   7 2.44   8 2.44   5 2.44
   7  0.500  0.000  0.167-  41 2.44  44 2.44  45 2.44  68 2.44   6 2.44   5 2.44   8 2.44  10 2.44
                            30 2.44   9 2.44  32 2.44  34 2.44
   8  0.500  0.167  0.000-  17 2.44  19 2.44  21 2.44  91 2.44   6 2.44   5 2.44   7 2.44  78 2.44
                            10 2.44  79 2.44   9 2.44  82 2.44
   9  0.667  0.000  0.000-  11 2.44  12 2.44  36 2.44  83 2.44  10 2.44  82 2.44  34 2.44   8 2.44
                             7 2.44 106 2.44  79 2.44  32 2.44
  10  0.667  0.167  0.167-  23 2.44  48 2.44  57 2.44  12 2.44  11 2.44  21 2.44  45 2.44  44 2.44
                            19 2.44   9 2.44   7 2.44   8 2.44
  11  0.833  0.000  0.167-  45 2.44   9 2.44  10 2.44  34 2.44  48 2.44  37 2.44  72 2.44  12 2.44
                             2 2.44  36 2.44   1 2.44  26 2.44
  12  0.833  0.167  0.000-  21 2.44   9 2.44  10 2.44  82 2.44  23 2.44  13 2.44  95 2.44  11 2.44
                             1 2.44  83 2.44   2 2.44  74 2.44
  13  0.000  0.333  0.000-   2 2.44   4 2.44  12 2.44  74 2.44  15 2.44  16 2.44  14 2.44  23 2.44
                            87 2.44  86 2.44  24 2.44  95 2.44
  14  0.000  0.500  0.167-  49 2.44  52 2.44  60 2.44  61 2.44  15 2.44  13 2.44  16 2.44  23 2.44
                            27 2.44  25 2.44  24 2.44  35 2.44
  15  0.167  0.333  0.167-   6 2.44  40 2.44  53 2.44  17 2.44  18 2.44   4 2.44  49 2.44  52 2.44
                             2 2.44  13 2.44  14 2.44  16 2.44
  16  0.167  0.500  0.000-  17 2.44  18 2.44  29 2.44  90 2.44  15 2.44  14 2.44  13 2.44  87 2.44
                            27 2.44  25 2.44  86 2.44  99 2.44
  17  0.333  0.333  0.000-   4 2.44   8 2.44  16 2.44  15 2.44   6 2.44  78 2.44  87 2.44  20 2.44
                            18 2.44  19 2.44  90 2.44  91 2.44
  18  0.333  0.500  0.167-  52 2.44  16 2.44  56 2.44  53 2.44  15 2.44  27 2.44  65 2.44  20 2.44
                            17 2.44  19 2.44  29 2.44  31 2.44
  19  0.500  0.333  0.167-  44 2.44   8 2.44  56 2.44  53 2.44   6 2.44  10 2.44  57 2.44  18 2.44
                            20 2.44  17 2.44  21 2.44  22 2.44
  20  0.500  0.500  0.000-  17 2.44  18 2.44  19 2.44  21 2.44  22 2.44  29 2.44  31 2.44  90 2.44
                            91 2.44  33 2.44  94 2.44 103 2.44
  21  0.667  0.333  0.000-  12 2.44  24 2.44  23 2.44  95 2.44  10 2.44   8 2.44  82 2.44  22 2.44
                            20 2.44  94 2.44  19 2.44  91 2.44
  22  0.667  0.500  0.167-  60 2.44  24 2.44  23 2.44  35 2.44  57 2.44  56 2.44  69 2.44  21 2.44
                            33 2.44  20 2.44  19 2.44  31 2.44
  23  0.833  0.333  0.167-  10 2.44  57 2.44  48 2.44  21 2.44  22 2.44  12 2.44  60 2.44   2 2.44
                            49 2.44  24 2.44  14 2.44  13 2.44
  24  0.833  0.500  0.000-  21 2.44  22 2.44  33 2.44  94 2.44  23 2.44  35 2.44  95 2.44  14 2.44
                            13 2.44 107 2.44  86 2.44  25 2.44
  25  0.000  0.667  0.000-  26 2.44  28 2.44  36 2.44  98 2.44  27 2.44  35 2.44  99 2.44  16 2.44
                            14 2.44 107 2.44  86 2.44  24 2.44
  26  0.000  0.833  0.167-  61 2.44  25 2.44  27 2.44  35 2.44  64 2.44  37 2.44  72 2.44  28 2.44
                             3 2.44  36 2.44   1 2.44  11 2.44
  27  0.167  0.667  0.167-  30 2.44  64 2.44  65 2.44  28 2.44  26 2.44  29 2.44  61 2.44  52 2.44
                            18 2.44  25 2.44  14 2.44  16 2.44
  28  0.167  0.833  0.000-  29 2.44  25 2.44  27 2.44  99 2.44  30 2.44   5 2.44 102 2.44  26 2.44
                            98 2.44   1 2.44   3 2.44  75 2.44
  29  0.333  0.667  0.000-  28 2.44  32 2.44  30 2.44 102 2.44  27 2.44  16 2.44  99 2.44  31 2.44
                            20 2.44  18 2.44 103 2.44  90 2.44
  30  0.333  0.833  0.167-  27 2.44  65 2.44  64 2.44  29 2.44  31 2.44  28 2.44  68 2.44  41 2.44
                             3 2.44  32 2.44   7 2.44   5 2.44
  31  0.500  0.667  0.167-  68 2.44  32 2.44  30 2.44  34 2.44  65 2.44  56 2.44  69 2.44  29 2.44
                            33 2.44  20 2.44  18 2.44  22 2.44
  32  0.500  0.833  0.000-  29 2.44  31 2.44  33 2.44 103 2.44  30 2.44 102 2.44  34 2.44   7 2.44
                             5 2.44 106 2.44  79 2.44   9 2.44
  33  0.667  0.667  0.000-  36 2.44  35 2.44  34 2.44  32 2.44  24 2.44 106 2.44 107 2.44  22 2.44
                            31 2.44 103 2.44  20 2.44  94 2.44
  34  0.667  0.833  0.167-  35 2.44  69 2.44  72 2.44  33 2.44  36 2.44  31 2.44  11 2.44  45 2.44
                            68 2.44  32 2.44   9 2.44   7 2.44
  35  0.833  0.667  0.167-  34 2.44  69 2.44  72 2.44  33 2.44  36 2.44  26 2.44  22 2.44  60 2.44
                            61 2.44  24 2.44  25 2.44  14 2.44
  36  0.833  0.833  0.000-  33 2.44  34 2.44  35 2.44  25 2.44   9 2.44 106 2.44 107 2.44  26 2.44
                            11 2.44  98 2.44   1 2.44  83 2.44
  37  0.000  0.000  0.333-   2 2.44   3 2.44  11 2.44  26 2.44  40 2.44  39 2.44  38 2.44  48 2.44
                            64 2.44  62 2.44  47 2.44  72 2.44
  38  0.000  0.167  0.500-  49 2.44  51 2.44  59 2.44  85 2.44  40 2.44  39 2.44  37 2.44  76 2.44
                            48 2.44  47 2.44  73 2.44  84 2.44
  39  0.167  0.000  0.500-  41 2.44  42 2.44  66 2.44  77 2.44  40 2.44  38 2.44  37 2.44  76 2.44
                            64 2.44  62 2.44  73 2.44 100 2.44
  40  0.167  0.167  0.333-   6 2.44  15 2.44  53 2.44   3 2.44  41 2.44  42 2.44  49 2.44  51 2.44
                             2 2.44  39 2.44  37 2.44  38 2.44
  41  0.333  0.000  0.333-   3 2.44   7 2.44  39 2.44   6 2.44  40 2.44  30 2.44  64 2.44  43 2.44
                            44 2.44  42 2.44  66 2.44  68 2.44
  42  0.333  0.167  0.500-  51 2.44  39 2.44  55 2.44  53 2.44  40 2.44  76 2.44  89 2.44  44 2.44
                            41 2.44  43 2.44  80 2.44  77 2.44
  43  0.500  0.000  0.500-  41 2.44  42 2.44  44 2.44  45 2.44  46 2.44  66 2.44  68 2.44  77 2.44
                            80 2.44  70 2.44  81 2.44 104 2.44
  44  0.500  0.167  0.333-  19 2.44   7 2.44  55 2.44  53 2.44   6 2.44  10 2.44  57 2.44  41 2.44
                            42 2.44  43 2.44  46 2.44  45 2.44
  45  0.667  0.000  0.333-  11 2.44  47 2.44  48 2.44  72 2.44  10 2.44   7 2.44  34 2.44  46 2.44
                            43 2.44  70 2.44  44 2.44  68 2.44
  46  0.667  0.167  0.500-  59 2.44  47 2.44  48 2.44  84 2.44  57 2.44  55 2.44  93 2.44  45 2.44
                            81 2.44  43 2.44  44 2.44  80 2.44
  47  0.833  0.000  0.500-  45 2.44  46 2.44  70 2.44  81 2.44  48 2.44  72 2.44  84 2.44  38 2.44
                            37 2.44 108 2.44  73 2.44  62 2.44
  48  0.833  0.167  0.333-  10 2.44  57 2.44  23 2.44  46 2.44  45 2.44  11 2.44  59 2.44   2 2.44
                            49 2.44  47 2.44  37 2.44  38 2.44
  49  0.000  0.333  0.333-   2 2.44  14 2.44  38 2.44  15 2.44  40 2.44  23 2.44  48 2.44  50 2.44
                            51 2.44  52 2.44  59 2.44  60 2.44
  50  0.000  0.500  0.500-  49 2.44  51 2.44  52 2.44  59 2.44  60 2.44  61 2.44  63 2.44  85 2.44
                            88 2.44  71 2.44  96 2.44  97 2.44
  51  0.167  0.333  0.500-  42 2.44  38 2.44  54 2.44  53 2.44  40 2.44  76 2.44  89 2.44  50 2.44
                            52 2.44  49 2.44  88 2.44  85 2.44
  52  0.167  0.500  0.333-  18 2.44  14 2.44  54 2.44  53 2.44  15 2.44  27 2.44  65 2.44  49 2.44
                            50 2.44  51 2.44  63 2.44  61 2.44
  53  0.333  0.333  0.333-   6 2.44  15 2.44  40 2.44  19 2.44  18 2.44  42 2.44  44 2.44  51 2.44
                            52 2.44  54 2.44  55 2.44  56 2.44
  54  0.333  0.500  0.500-  51 2.44  52 2.44  63 2.44  88 2.44  53 2.44  55 2.44  56 2.44  65 2.44
                            89 2.44  67 2.44  92 2.44 101 2.44
  55  0.500  0.333  0.500-  42 2.44  44 2.44  46 2.44  80 2.44  53 2.44  56 2.44  54 2.44  57 2.44
                            89 2.44  58 2.44  92 2.44  93 2.44
  56  0.500  0.500  0.333-  18 2.44  19 2.44  22 2.44  31 2.44  53 2.44  54 2.44  55 2.44  57 2.44
                            65 2.44  58 2.44  67 2.44  69 2.44
  57  0.667  0.333  0.333-  23 2.44  48 2.44  10 2.44  59 2.44  60 2.44  46 2.44  22 2.44  19 2.44
                            44 2.44  58 2.44  56 2.44  55 2.44
  58  0.667  0.500  0.500-  59 2.44  60 2.44  71 2.44  96 2.44  57 2.44  93 2.44  69 2.44  56 2.44
                            55 2.44 105 2.44  92 2.44  67 2.44
  59  0.833  0.333  0.500-  46 2.44  58 2.44  57 2.44  93 2.44  48 2.44  38 2.44  84 2.44  60 2.44
                            50 2.44  49 2.44  96 2.44  85 2.44
  60  0.833  0.500  0.333-  22 2.44  58 2.44  57 2.44  69 2.44  23 2.44  14 2.44  35 2.44  59 2.44
                            49 2.44  50 2.44  71 2.44  61 2.44
  61  0.000  0.667  0.333-  26 2.44  62 2.44  64 2.44  72 2.44  27 2.44  14 2.44  35 2.44  63 2.44
                            50 2.44  71 2.44  52 2.44  60 2.44
  62  0.000  0.833  0.500-  61 2.44  63 2.44  71 2.44  97 2.44  64 2.44  72 2.44 100 2.44  39 2.44
                            37 2.44 108 2.44  73 2.44  47 2.44
  63  0.167  0.667  0.500-  66 2.44  62 2.44  64 2.44 100 2.44  65 2.44  54 2.44 101 2.44  61 2.44
                            97 2.44  50 2.44  52 2.44  88 2.44
  64  0.167  0.833  0.333-  27 2.44  65 2.44  30 2.44  63 2.44  61 2.44  26 2.44  66 2.44   3 2.44
                            41 2.44  62 2.44  37 2.44  39 2.44
  65  0.333  0.667  0.333-  30 2.44  64 2.44  27 2.44  66 2.44  68 2.44  63 2.44  31 2.44  18 2.44
                            52 2.44  67 2.44  56 2.44  54 2.44
  66  0.333  0.833  0.500-  63 2.44  67 2.44  65 2.44 101 2.44  64 2.44  39 2.44 100 2.44  68 2.44
                            43 2.44  41 2.44 104 2.44  77 2.44
  67  0.500  0.667  0.500-  66 2.44  68 2.44  70 2.44 104 2.44  65 2.44 101 2.44  69 2.44  56 2.44
                            54 2.44 105 2.44  92 2.44  58 2.44
  68  0.500  0.833  0.333-  31 2.44  67 2.44  65 2.44  69 2.44  30 2.44   7 2.44  34 2.44  66 2.44
                            41 2.44  43 2.44  70 2.44  45 2.44
  69  0.667  0.667  0.333-  72 2.44  35 2.44  34 2.44  71 2.44  70 2.44  68 2.44  60 2.44  31 2.44
                            22 2.44  58 2.44  67 2.44  56 2.44
  70  0.667  0.833  0.500-  71 2.44  69 2.44  72 2.44  67 2.44  47 2.44 105 2.44 108 2.44  68 2.44
                            45 2.44 104 2.44  43 2.44  81 2.44
  71  0.833  0.667  0.500-  70 2.44  69 2.44  72 2.44  62 2.44  58 2.44 105 2.44 108 2.44  60 2.44
                            61 2.44  97 2.44  50 2.44  96 2.44
  72  0.833  0.833  0.333-  69 2.44  35 2.44  34 2.44  70 2.44  71 2.44  61 2.44  45 2.44  26 2.44
                            11 2.44  62 2.44  47 2.44  37 2.44
  73  0.000  0.000  0.667-  74 2.44  75 2.44  83 2.44  98 2.44  76 2.44  84 2.44 100 2.44  39 2.44
                            38 2.44 108 2.44  47 2.44  62 2.44
  74  0.000  0.167  0.833-  85 2.44  73 2.44  76 2.44  84 2.44  87 2.44  13 2.44  95 2.44  75 2.44
                             4 2.44  83 2.44   1 2.44  12 2.44
  75  0.167  0.000  0.833-  77 2.44  73 2.44  76 2.44 100 2.44  78 2.44   5 2.44 102 2.44  74 2.44
                            98 2.44   1 2.44   4 2.44  28 2.44
  76  0.167  0.167  0.667-  78 2.44  87 2.44  89 2.44  75 2.44  74 2.44  77 2.44  85 2.44  51 2.44
                            42 2.44  73 2.44  38 2.44  39 2.44
  77  0.333  0.000  0.667-  75 2.44  79 2.44  78 2.44 102 2.44  76 2.44  39 2.44 100 2.44  80 2.44
                            43 2.44  42 2.44 104 2.44  66 2.44
  78  0.333  0.167  0.833-  76 2.44  89 2.44  87 2.44  77 2.44  80 2.44  75 2.44  91 2.44  17 2.44
                             4 2.44  79 2.44   8 2.44   5 2.44
  79  0.500  0.000  0.833-  77 2.44  80 2.44  81 2.44 104 2.44  78 2.44 102 2.44  82 2.44   8 2.44
                             5 2.44 106 2.44   9 2.44  32 2.44
  80  0.500  0.167  0.667-  91 2.44  79 2.44  78 2.44  82 2.44  89 2.44  55 2.44  93 2.44  77 2.44
                            43 2.44  81 2.44  42 2.44  46 2.44
  81  0.667  0.000  0.667-  83 2.44  82 2.44  84 2.44  79 2.44  47 2.44 106 2.44 108 2.44  80 2.44
                            46 2.44 104 2.44  70 2.44  43 2.44
  82  0.667  0.167  0.833-  84 2.44  93 2.44  95 2.44  83 2.44  81 2.44  80 2.44  12 2.44  21 2.44
                            91 2.44  79 2.44   9 2.44   8 2.44
  83  0.833  0.000  0.833-  81 2.44  82 2.44  84 2.44  73 2.44   9 2.44 106 2.44 108 2.44  74 2.44
                            12 2.44  98 2.44  36 2.44   1 2.44
  84  0.833  0.167  0.667-  82 2.44  93 2.44  95 2.44  81 2.44  83 2.44  74 2.44  46 2.44  59 2.44
                            85 2.44  73 2.44  47 2.44  38 2.44
  85  0.000  0.333  0.667-  74 2.44  86 2.44  87 2.44  95 2.44  76 2.44  38 2.44  84 2.44  88 2.44
                            51 2.44  50 2.44  96 2.44  59 2.44
  86  0.000  0.500  0.833-  85 2.44  88 2.44  96 2.44  97 2.44  87 2.44  95 2.44  99 2.44  16 2.44
                            13 2.44 107 2.44  24 2.44  25 2.44
  87  0.167  0.333  0.833-  76 2.44  89 2.44  78 2.44  88 2.44  85 2.44  74 2.44  90 2.44  17 2.44
                             4 2.44  86 2.44  16 2.44  13 2.44
  88  0.167  0.500  0.667-  90 2.44  86 2.44  87 2.44  99 2.44  89 2.44  54 2.44 101 2.44  85 2.44
                            97 2.44  50 2.44  51 2.44  63 2.44
  89  0.333  0.333  0.667-  78 2.44  87 2.44  76 2.44  90 2.44  91 2.44  80 2.44  88 2.44  51 2.44
                            42 2.44  92 2.44  54 2.44  55 2.44
  90  0.333  0.500  0.833-  88 2.44  92 2.44  89 2.44 101 2.44  87 2.44  16 2.44  99 2.44  91 2.44
                            20 2.44  17 2.44 103 2.44  29 2.44
  91  0.500  0.333  0.833-  80 2.44  92 2.44  89 2.44  93 2.44  78 2.44   8 2.44  82 2.44  90 2.44
                            20 2.44  17 2.44  94 2.44  21 2.44
  92  0.500  0.500  0.667-  90 2.44  91 2.44  94 2.44 103 2.44  89 2.44 101 2.44  93 2.44  55 2.44
                            54 2.44 105 2.44  58 2.44  67 2.44
  93  0.667  0.333  0.667-  95 2.44  84 2.44  82 2.44  94 2.44  96 2.44  91 2.44  59 2.44  46 2.44
                            80 2.44  92 2.44  58 2.44  55 2.44
  94  0.667  0.500  0.833-  96 2.44  95 2.44  93 2.44  92 2.44  24 2.44 105 2.44 107 2.44  21 2.44
                            91 2.44 103 2.44  33 2.44  20 2.44
  95  0.833  0.333  0.833-  93 2.44  84 2.44  82 2.44  94 2.44  96 2.44  85 2.44  21 2.44  12 2.44
                            74 2.44  86 2.44  24 2.44  13 2.44
  96  0.833  0.500  0.667-  94 2.44  93 2.44  95 2.44  86 2.44  58 2.44 105 2.44 107 2.44  59 2.44
                            85 2.44  97 2.44  71 2.44  50 2.44
  97  0.000  0.667  0.667-  98 2.44  99 2.44 100 2.44  86 2.44  62 2.44 107 2.44 108 2.44  88 2.44
                            63 2.44  96 2.44  50 2.44  71 2.44
  98  0.000  0.833  0.833-  97 2.44  99 2.44 100 2.44  73 2.44  25 2.44 107 2.44 108 2.44  75 2.44
                            28 2.44  83 2.44   1 2.44  36 2.44
  99  0.167  0.667  0.833- 100 2.44 101 2.44 102 2.44  98 2.44  97 2.44  88 2.44  28 2.44  90 2.44
                            29 2.44  86 2.44  25 2.44  16 2.44
 100  0.167  0.833  0.667-  99 2.44 101 2.44 102 2.44  98 2.44  97 2.44  75 2.44  63 2.44  77 2.44
                            66 2.44  73 2.44  62 2.44  39 2.44
 101  0.333  0.667  0.667- 102 2.44 100 2.44  99 2.44 103 2.44 104 2.44  90 2.44  66 2.44  63 2.44
                            88 2.44  92 2.44  67 2.44  54 2.44
 102  0.333  0.833  0.833- 101 2.44 100 2.44  99 2.44 103 2.44 104 2.44  77 2.44  29 2.44  28 2.44
                            75 2.44  79 2.44  32 2.44   5 2.44
 103  0.500  0.667  0.833- 104 2.44 102 2.44 101 2.44  92 2.44  32 2.44 105 2.44 106 2.44  29 2.44
                            90 2.44  94 2.44  20 2.44  33 2.44
 104  0.500  0.833  0.667- 103 2.44 102 2.44 101 2.44  79 2.44  67 2.44 105 2.44 106 2.44  66 2.44
                            77 2.44  81 2.44  43 2.44  70 2.44
 105  0.667  0.667  0.667- 106 2.44 107 2.44 108 2.44  96 2.44 103 2.44 104 2.44  70 2.44  71 2.44
                            94 2.44  67 2.44  92 2.44  58 2.44
 106  0.667  0.833  0.833- 105 2.44 107 2.44 108 2.44  83 2.44 103 2.44 104 2.44  33 2.44  36 2.44
                            81 2.44  32 2.44  79 2.44   9 2.44
 107  0.833  0.667  0.833- 105 2.44 106 2.44 108 2.44  96 2.44  97 2.44  98 2.44  33 2.44  36 2.44
                            94 2.44  25 2.44  86 2.44  24 2.44
 108  0.833  0.833  0.667- 105 2.44 106 2.44 107 2.44  83 2.44  97 2.44  98 2.44  70 2.44  71 2.44
                            81 2.44  62 2.44  73 2.44  47 2.44
 
  LATTYP: Found a simple cubic cell.
 ALAT       =    10.3348470474
  
  Lattice vectors:
  
 A1 = (  10.3348470474,   0.0000000000,   0.0000000000)
 A2 = (   0.0000000000,  10.3348470474,   0.0000000000)
 A3 = (   0.0000000000,   0.0000000000,  10.3348470474)


Analysis of symmetry for initial positions (statically):
=====================================================================
 Subroutine PRICEL returns following result:
 
  LATTYP: Found a simple cubic cell.
 ALAT       =     3.4449252899
  
  Lattice vectors:
  
 A1 = (   3.4449252899,   0.0000000000,   0.0000000000)
 A2 = (   0.0000000000,   3.4449252899,   0.0000000000)
 A3 = (   0.0000000000,   0.0000000000,   3.4449252443)
 
  27 primitive cells build up your supercell.
 

 Routine SETGRP: Setting up the symmetry group for a 
 simple cubic supercell.


 Subroutine GETGRP returns: Found 48 space group operations
 (whereof 48 operations were pure point group operations)
 out of a pool of 48 trial point group operations.


The static configuration has the point symmetry O_h .


Analysis of symmetry for dynamics (positions and initial velocities):
=====================================================================
 Subroutine PRICEL returns following result:
 
  LATTYP: Found a simple cubic cell.
 ALAT       =     3.4449252899
  
  Lattice vectors:
  
 A1 = (   3.4449252899,   0.0000000000,   0.0000000000)
 A2 = (   0.0000000000,   3.4449252899,   0.0000000000)
 A3 = (   0.0000000000,   0.0000000000,   3.4449252443)
 
  27 primitive cells build up your supercell.
 

 Routine SETGRP: Setting up the symmetry group for a 
 simple cubic supercell.


 Subroutine GETGRP returns: Found 48 space group operations
 (whereof 48 operations were pure point group operations)
 out of a pool of 48 trial point group operations.


The dynamic configuration has the point symmetry O_h .


 Subroutine INISYM returns: Found 48 space group operations
 (whereof 48 operations are pure point group operations),
 and found    27 'primitive' translations

 
 
 KPOINTS: pymatgen generated KPOINTS with grid den

Automatic generation of k-mesh.
Space group operators:
 irot       det(A)        alpha          n_x          n_y          n_z        tau_x        tau_y        tau_z
    1     1.000000     0.000000     1.000000     0.000000     0.000000     0.000000     0.000000     0.000000
    2    -1.000000     0.000000     1.000000     0.000000     0.000000     0.000000     0.000000     0.000000
    3     1.000000   120.000000    -0.577350    -0.577350    -0.577350     0.000000     0.000000     0.000000
    4    -1.000000   120.000000    -0.577350    -0.577350    -0.577350     0.000000     0.000000     0.000000
    5     1.000000   120.000000     0.577350     0.577350     0.577350     0.000000     0.000000     0.000000
    6    -1.000000   120.000000     0.577350     0.577350     0.577350     0.000000     0.000000     0.000000
    7     1.000000    90.000000     0.000000     0.000000    -1.000000     0.000000     0.000000     0.000000
    8    -1.000000    90.000000     0.000000     0.000000    -1.000000     0.000000     0.000000     0.000000
    9     1.000000   180.000000     0.000000     0.707107     0.707107     0.000000     0.000000     0.000000
   10    -1.000000   180.000000     0.000000     0.707107     0.707107     0.000000     0.000000     0.000000
   11     1.000000    90.000000     0.000000     1.000000     0.000000     0.000000     0.000000     0.000000
   12    -1.000000    90.000000     0.000000     1.000000     0.000000     0.000000     0.000000     0.000000
   13     1.000000   180.000000     0.000000     0.000000     1.000000     0.000000     0.000000     0.000000
   14    -1.000000   180.000000     0.000000     0.000000     1.000000     0.000000     0.000000     0.000000
   15     1.000000   120.000000    -0.577350     0.577350     0.577350     0.000000     0.000000     0.000000
   16    -1.000000   120.000000    -0.577350     0.577350     0.577350     0.000000     0.000000     0.000000
   17     1.000000   120.000000    -0.577350     0.577350    -0.577350     0.000000     0.000000     0.000000
   18    -1.000000   120.000000    -0.577350     0.577350    -0.577350     0.000000     0.000000     0.000000
   19     1.000000    90.000000     0.000000     0.000000     1.000000     0.000000     0.000000     0.000000
   20    -1.000000    90.000000     0.000000     0.000000     1.000000     0.000000     0.000000     0.000000
   21     1.000000    90.000000    -1.000000     0.000000     0.000000     0.000000     0.000000     0.000000
   22    -1.000000    90.000000    -1.000000     0.000000     0.000000     0.000000     0.000000     0.000000
   23     1.000000   180.000000     0.707107     0.000000     0.707107     0.000000     0.000000     0.000000
   24    -1.000000   180.000000     0.707107     0.000000     0.707107     0.000000     0.000000     0.000000
   25     1.000000   120.000000     0.577350    -0.577350     0.577350     0.000000     0.000000     0.000000
   26    -1.000000   120.000000     0.577350    -0.577350     0.577350     0.000000     0.000000     0.000000
   27     1.000000   120.000000    -0.577350    -0.577350     0.577350     0.000000     0.000000     0.000000
   28    -1.000000   120.000000    -0.577350    -0.577350     0.577350     0.000000     0.000000     0.000000
   29     1.000000   180.000000     1.000000     0.000000     0.000000     0.000000     0.000000     0.000000
   30    -1.000000   180.000000     1.000000     0.000000     0.000000     0.000000     0.000000     0.000000
   31     1.000000    90.000000     0.000000    -1.000000     0.000000     0.000000     0.000000     0.000000
   32    -1.000000    90.000000     0.000000    -1.000000     0.000000     0.000000     0.000000     0.000000
   33     1.000000   180.000000     0.707107     0.707107     0.000000     0.000000     0.000000     0.000000
   34    -1.000000   180.000000     0.707107     0.707107     0.000000     0.000000     0.000000     0.000000
   35     1.000000    90.000000     1.000000     0.000000     0.000000     0.000000     0.000000     0.000000
   36    -1.000000    90.000000     1.000000     0.000000     0.000000     0.000000     0.000000     0.000000
   37     1.000000   120.000000     0.577350    -0.577350    -0.577350     0.000000     0.000000     0.000000
   38    -1.000000   120.000000     0.577350    -0.577350    -0.577350     0.000000     0.000000     0.000000
   39     1.000000   180.000000     0.000000     1.000000     0.000000     0.000000     0.000000     0.000000
   40    -1.000000   180.000000     0.000000     1.000000     0.000000     0.000000     0.000000     0.000000
   41     1.000000   120.000000     0.577350     0.577350    -0.577350     0.000000     0.000000     0.000000
   42    -1.000000   120.000000     0.577350     0.577350    -0.577350     0.000000     0.000000     0.000000
   43     1.000000   180.000000     0.000000    -0.707107     0.707107     0.000000     0.000000     0.000000
   44    -1.000000   180.000000     0.000000    -0.707107     0.707107     0.000000     0.000000     0.000000
   45     1.000000   180.000000     0.707107    -0.707107     0.000000     0.000000     0.000000     0.000000
   46    -1.000000   180.000000     0.707107    -0.707107     0.000000     0.000000     0.000000     0.000000
   47     1.000000   180.000000     0.707107     0.000000    -0.707107     0.000000     0.000000     0.000000
   48    -1.000000   180.000000     0.707107     0.000000    -0.707107     0.000000     0.000000     0.000000
 
 Subroutine IBZKPT returns following result:
 ===========================================
 
 Found      4 irreducible k-points:
 
 Following reciprocal coordinates:
            Coordinates               Weight
  0.125000  0.125000  0.125000      8.000000
  0.375000  0.125000  0.125000     24.000000
  0.375000  0.375000  0.125000     24.000000
  0.375000  0.375000  0.375000      8.000000
 
 Following cartesian coordinates:
            Coordinates               Weight
  0.012095  0.012095  0.012095      8.000000
  0.036285  0.012095  0.012095     24.000000
  0.036285  0.036285  0.012095     24.000000
  0.036285  0.036285  0.036285      8.000000
 


--------------------------------------------------------------------------------------------------------




 Dimension of arrays:
   k-points           NKPTS =      4   k-points in BZ     NKDIM =      4   number of bands    NBANDS=    518
   number of dos      NEDOS =    301   number of ions     NIONS =    108
   non local maximal  LDIM  =      6   non local SUM 2l+1 LMDIM =     18
   total plane-waves  NPLWV = 373248
   max r-space proj   IRMAX =   3250   max aug-charges    IRDMAX=  12243
   dimension x,y,z NGX =    72 NGY =   72 NGZ =   72
   dimension x,y,z NGXF=   144 NGYF=  144 NGZF=  144
   support grid    NGXF=   144 NGYF=  144 NGZF=  144
   ions per type =             108
   NGX,Y,Z   is equivalent  to a cutoff of  11.58, 11.58, 11.58 a.u.
   NGXF,Y,Z  is equivalent  to a cutoff of  23.16, 23.16, 23.16 a.u.

 Based on PREC, I would recommend the following setting:
   dimension x,y,z NGX =    80 NGY =   80 NGZ =   80


 ----------------------------------------------------------------------------- 
|                                                                             |
|           W    W    AA    RRRRR   N    N  II  N    N   GGGG   !!!           |
|           W    W   A  A   R    R  NN   N  II  NN   N  G    G  !!!           |
|           W    W  A    A  R    R  N N  N  II  N N  N  G       !!!           |
|           W WW W  AAAAAA  RRRRR   N  N N  II  N  N N  G  GGG   !            |
|           WW  WW  A    A  R   R   N   NN  II  N   NN  G    G                |
|           W    W  A    A  R    R  N    N  II  N    N   GGGG   !!!           |
|                                                                             |
|      Your FFT grids (NGX,NGY,NGZ) are not sufficient for an accurate        |
|      calculation.                                                           |
|      The results might be wrong                                             |
|      good settings for NGX NGY and  NGZ are                                 |
|                        80  80  and  80                                      |
|     Mind: This setting results in a small but reasonable wrap around error  |
|     It is also necessary to adjust these  values to the FFT routines you use|
|                                                                             |
 ----------------------------------------------------------------------------- 

 SYSTEM =  Opt                                     
 POSCAR =  fcc_Fe_CON_333                          

 Startparameter for this run:
   NWRITE =      2    write-flag & timer
   PREC   = normal    normal or accurate (medium, high low for compatibility)
   ISTART =      0    job   : 0-new  1-cont  2-samecut
   ICHARG =      2    charge: 1-file 2-atom 10-const
   ISPIN  =      1    spin polarized calculation?
   LNONCOLLINEAR =      F non collinear calculations
   LSORBIT =      F    spin-orbit coupling
   INIWAV =      1    electr: 0-lowe 1-rand  2-diag
   LASPH  =      F    aspherical Exc in radial PAW
   METAGGA=      F    non-selfconsistent MetaGGA calc.

 Electronic Relaxation 1
   ENCUT  =  900.0 eV  66.15 Ry    8.13 a.u.  25.28 25.28 25.28*2*pi/ulx,y,z
   ENINI  =  900.0     initial cutoff
   ENAUG  =  511.4 eV  augmentation charge cutoff
   NELM   =    400;   NELMIN=  2; NELMDL= -5     # of ELM steps 
   EDIFF  = 0.1E-05   stopping-criterion for ELM
   LREAL  =      T    real-space projection
   NLSPLINE    = F    spline interpolate recip. space projectors
   LCOMPAT=      F    compatible to vasp.4.4
   GGA_COMPAT  = T    GGA compatible to vasp.4.4-vasp.4.6
   LMAXPAW     = -100 max onsite density
   LMAXMIX     =    2 max onsite mixed and CHGCAR
   VOSKOWN=      0    Vosko Wilk Nusair interpolation
   ROPT   =   -0.00050
 Ionic relaxation
   EDIFFG = -.1E-01   stopping-criterion for IOM
   NSW    =    100    number of steps for IOM
   NBLOCK =      1;   KBLOCK =    100    inner block; outer block 
   IBRION =      2    ionic relax: 0-MD 1-quasi-New 2-CG
   NFREE  =      1    steps in history (QN), initial steepest desc. (CG)
   ISIF   =      3    stress and relaxation
   IWAVPR =     11    prediction:  0-non 1-charg 2-wave 3-comb
   ISYM   =      2    0-nonsym 1-usesym 2-fastsym
   LCORR  =      T    Harris-Foulkes like correction to forces

   POTIM  = 0.5000    time-step for ionic-motion
   TEIN   =    0.0    initial temperature
   TEBEG  =    0.0;   TEEND  =   0.0 temperature during run
   SMASS  =  -3.00    Nose mass-parameter (am)
   estimated Nose-frequenzy (Omega)   =  0.10E-29 period in steps =****** mass=  -0.244E-26a.u.
   SCALEE = 1.0000    scale energy and forces
   NPACO  =    256;   APACO  = 16.0  distance and # of slots for P.C.
   PSTRESS=    0.0 pullay stress

  Mass of Ions in am
   POMASS =  55.85
  Ionic Valenz
   ZVAL   =   8.00
  Atomic Wigner-Seitz radii
   RWIGS  =  -1.00
  virtual crystal weights 
   VCA    =   1.00
   NELECT =     864.0000    total number of electrons
   NUPDOWN=      -1.0000    fix difference up-down

 DOS related values:
   EMIN   =  10.00;   EMAX   =-10.00  energy-range for DOS
   EFERMI =   0.00
   ISMEAR =     1;   SIGMA  =   0.20  broadening in eV -4-tet -1-fermi 0-gaus

 Electronic relaxation 2 (details)
   IALGO  =     68    algorithm
   LDIAG  =      T    sub-space diagonalisation (order eigenvalues)
   LSUBROT=      F    optimize rotation matrix (better conditioning)
   TURBO    =      0    0=normal 1=particle mesh
   IRESTART =      0    0=no restart 2=restart with 2 vectors
   NREBOOT  =      0    no. of reboots
   NMIN     =      0    reboot dimension
   EREF     =   0.00    reference energy to select bands
   IMIX   =      4    mixing-type and parameters
     AMIX     =   0.40;   BMIX     =  1.00
     AMIX_MAG =   1.60;   BMIX_MAG =  1.00
     AMIN     =   0.10
     WC   =   100.;   INIMIX=   1;  MIXPRE=   1;  MAXMIX= -45

 Intra band minimization:
   WEIMIN = 0.0010     energy-eigenvalue tresh-hold
   EBREAK =  0.48E-09  absolut break condition
   DEPER  =   0.30     relativ break condition  

   TIME   =   0.40     timestep for ELM

  volume/ion in A,a.u.               =      10.22        68.97
  Fermi-wavevector in a.u.,A,eV,Ry     =   1.508720  2.851068 30.970078  2.276236
  Thomas-Fermi vector in A             =   2.619137
 
 Write flags
   LWAVE        =      F    write WAVECAR
   LDOWNSAMPLE  =      F    k-point downsampling of WAVECAR
   LCHARG       =      F    write CHGCAR
   LVTOT        =      F    write LOCPOT, total local potential
   LVHAR        =      F    write LOCPOT, Hartree potential only
   LELF         =      F    write electronic localiz. function (ELF)
   LORBIT       =      0    0 simple, 1 ext, 2 COOP (PROOUT), +10 PAW based schemes


 Dipole corrections
   LMONO  =      F    monopole corrections only (constant potential shift)
   LDIPOL =      F    correct potential (dipole corrections)
   IDIPOL =      0    1-x, 2-y, 3-z, 4-all directions 
   EPSILON=  1.0000000 bulk dielectric constant

 Exchange correlation treatment:
   GGA     =    --    GGA type
   LEXCH   =     8    internal setting for exchange type
   VOSKOWN=      0    Vosko Wilk Nusair interpolation
   LHFCALC =     F    Hartree Fock is set to
   LHFONE  =     F    Hartree Fock one center treatment
   AEXX    =    0.0000 exact exchange contribution

 Linear response parameters
   LEPSILON=     F    determine dielectric tensor
   LRPA    =     F    only Hartree local field effects (RPA)
   LNABLA  =     F    use nabla operator in PAW spheres
   LVEL    =     F    velocity operator in full k-point grid
   LINTERFAST=   F  fast interpolation
   KINTER  =     0    interpolate to denser k-point grid
   CSHIFT  =0.1000    complex shift for real part using Kramers Kronig
   OMEGAMAX=  -1.0    maximum frequency
   DEG_THRESHOLD= 0.2000000E-02 threshold for treating states as degnerate
   RTIME   =   -0.100 relaxation time in fs
  (WPLASMAI=    0.000 imaginary part of plasma frequency in eV, 0.658/RTIME)
   DFIELD  = 0.0000000 0.0000000 0.0000000 field for delta impulse in time
 
 Orbital magnetization related:
   ORBITALMAG=     F  switch on orbital magnetization
   LCHIMAG   =     F  perturbation theory with respect to B field
   DQ        =  0.001000  dq finite difference perturbation B field
   LLRAUG    =     F  two centre corrections for induced B field



--------------------------------------------------------------------------------------------------------


 conjugate gradient relaxation of ions
 charge density and potential will be updated during run
 non-spin polarized calculation
 RMM-DIIS sequential band-by-band and
  variant of blocked Davidson during initial phase
 perform sub-space diagonalisation
    before iterative eigenvector-optimisation
 modified Broyden-mixing scheme, WC =      100.0
 initial mixing is a Kerker type mixing with AMIX =  0.4000 and BMIX =      1.0000
 Hartree-type preconditioning will be used
 using additional bands           86
 real space projection scheme for non local part
 use partial core corrections
 calculate Harris-corrections to forces 
   (improved forces if not selfconsistent)
 use gradient corrections 
 use of overlap-Matrix (Vanderbilt PP)
 Methfessel and Paxton  Order N= 1 SIGMA  =   0.20


--------------------------------------------------------------------------------------------------------


  energy-cutoff  :      900.00
  volume of cell :     1103.86
      direct lattice vectors                 reciprocal lattice vectors
    10.334847047  0.000000000  0.000000000     0.096760019  0.000000000  0.000000000
     0.000000000 10.334847047  0.000000000     0.000000000  0.096760019  0.000000000
     0.000000000  0.000000000 10.334847047     0.000000000  0.000000000  0.096760019

  length of vectors
    10.334847047 10.334847047 10.334847047     0.096760019  0.096760019  0.096760019


 
 k-points in units of 2pi/SCALE and weight: pymatgen generated KPOINTS with grid den
   0.01209500  0.01209500  0.01209500       0.125
   0.03628501  0.01209500  0.01209500       0.375
   0.03628501  0.03628501  0.01209500       0.375
   0.03628501  0.03628501  0.03628501       0.125
 
 k-points in reciprocal lattice and weights: pymatgen generated KPOINTS with grid den
   0.12500000  0.12500000  0.12500000       0.125
   0.37500000  0.12500000  0.12500000       0.375
   0.37500000  0.37500000  0.12500000       0.375
   0.37500000  0.37500000  0.37500000       0.125
 
 position of ions in fractional coordinates (direct lattice) 
   0.00000000  0.00000000  0.00000000
   0.00000000  0.16666893  0.16666893
   0.16666893  0.00000000  0.16666893
   0.16666893  0.16666893  0.00000000
   0.33333106  0.00000000  0.00000000
   0.33333107  0.16666893  0.16666893
   0.50000000  0.00000000  0.16666894
   0.50000000  0.16666894  0.00000000
   0.66666897  0.00000000  0.00000000
   0.66666896  0.16666893  0.16666893
   0.83333104  0.00000000  0.16666893
   0.83333104  0.16666893  0.00000000
   0.00000000  0.33333106  0.00000000
   0.00000000  0.50000000  0.16666894
   0.16666893  0.33333107  0.16666893
   0.16666894  0.50000000  0.00000000
   0.33333107  0.33333107  0.00000000
   0.33333107  0.50000000  0.16666893
   0.50000000  0.33333107  0.16666893
   0.50000000  0.50000000  0.00000000
   0.66666896  0.33333107  0.00000000
   0.66666896  0.50000000  0.16666893
   0.83333104  0.33333107  0.16666893
   0.83333103  0.50000000  0.00000000
   0.00000000  0.66666897  0.00000000
   0.00000000  0.83333104  0.16666893
   0.16666893  0.66666896  0.16666893
   0.16666893  0.83333104  0.00000000
   0.33333107  0.66666896  0.00000000
   0.33333107  0.83333104  0.16666893
   0.50000000  0.66666896  0.16666893
   0.50000000  0.83333103  0.00000000
   0.66666896  0.66666896  0.00000000
   0.66666896  0.83333104  0.16666893
   0.83333104  0.66666896  0.16666893
   0.83333104  0.83333104  0.00000000
   0.00000000  0.00000000  0.33333106
   0.00000000  0.16666894  0.50000000
   0.16666894  0.00000000  0.50000000
   0.16666893  0.16666893  0.33333107
   0.33333107  0.00000000  0.33333107
   0.33333107  0.16666893  0.50000000
   0.50000000  0.00000000  0.50000000
   0.50000000  0.16666893  0.33333107
   0.66666896  0.00000000  0.33333107
   0.66666896  0.16666893  0.50000000
   0.83333103  0.00000000  0.50000000
   0.83333104  0.16666893  0.33333107
   0.00000000  0.33333107  0.33333107
   0.00000000  0.50000000  0.50000000
   0.16666893  0.33333107  0.50000000
   0.16666893  0.50000000  0.33333107
   0.33333107  0.33333107  0.33333107
   0.33333106  0.50000000  0.50000000
   0.50000000  0.33333106  0.50000000
   0.50000000  0.50000000  0.33333106
   0.66666896  0.33333107  0.33333107
   0.66666897  0.50000000  0.50000000
   0.83333104  0.33333107  0.50000000
   0.83333104  0.50000000  0.33333107
   0.00000000  0.66666896  0.33333107
   0.00000000  0.83333103  0.50000000
   0.16666893  0.66666896  0.50000000
   0.16666893  0.83333104  0.33333107
   0.33333107  0.66666896  0.33333107
   0.33333107  0.83333104  0.50000000
   0.50000000  0.66666897  0.50000000
   0.50000000  0.83333104  0.33333107
   0.66666896  0.66666896  0.33333107
   0.66666896  0.83333104  0.50000000
   0.83333104  0.66666896  0.50000000
   0.83333104  0.83333104  0.33333107
   0.00000000  0.00000000  0.66666897
   0.00000000  0.16666893  0.83333104
   0.16666893  0.00000000  0.83333104
   0.16666893  0.16666893  0.66666896
   0.33333107  0.00000000  0.66666896
   0.33333107  0.16666893  0.83333104
   0.50000000  0.00000000  0.83333103
   0.50000000  0.16666893  0.66666896
   0.66666896  0.00000000  0.66666896
   0.66666896  0.16666893  0.83333104
   0.83333104  0.00000000  0.83333104
   0.83333104  0.16666893  0.66666896
   0.00000000  0.33333107  0.66666896
   0.00000000  0.50000000  0.83333103
   0.16666893  0.33333107  0.83333104
   0.16666893  0.50000000  0.66666896
   0.33333107  0.33333107  0.66666896
   0.33333107  0.50000000  0.83333104
   0.50000000  0.33333107  0.83333104
   0.50000000  0.50000000  0.66666897
   0.66666896  0.33333107  0.66666896
   0.66666896  0.50000000  0.83333104
   0.83333104  0.33333107  0.83333104
   0.83333104  0.50000000  0.66666896
   0.00000000  0.66666896  0.66666896
   0.00000000  0.83333104  0.83333104
   0.16666893  0.66666896  0.83333104
   0.16666893  0.83333104  0.66666896
   0.33333107  0.66666896  0.66666896
   0.33333107  0.83333104  0.83333104
   0.50000000  0.66666896  0.83333104
   0.50000000  0.83333104  0.66666896
   0.66666896  0.66666896  0.66666896
   0.66666896  0.83333104  0.83333104
   0.83333104  0.66666896  0.83333104
   0.83333104  0.83333104  0.66666896
 
 position of ions in cartesian coordinates  (Angst):
   0.00000000  0.00000000  0.00000000
   0.00000000  1.72249793  1.72249793
   1.72249793  0.00000000  1.72249793
   1.72249793  1.72249793  0.00000000
   3.44492554  0.00000000  0.00000000
   3.44492559  1.72249794  1.72249794
   5.16742352  0.00000000  1.72249798
   5.16742352  1.72249798  0.00000000
   6.88992180  0.00000000  0.00000000
   6.88992176  1.72249794  1.72249794
   8.61234881  0.00000000  1.72249793
   8.61234881  1.72249793  0.00000000
   0.00000000  3.44492554  0.00000000
   0.00000000  5.16742352  1.72249798
   1.72249794  3.44492559  1.72249794
   1.72249798  5.16742352  0.00000000
   3.44492559  3.44492559  0.00000000
   3.44492559  5.16742352  1.72249793
   5.16742352  3.44492559  1.72249793
   5.16742352  5.16742352  0.00000000
   6.88992176  3.44492559  0.00000000
   6.88992176  5.16742352  1.72249793
   8.61234881  3.44492559  1.72249794
   8.61234877  5.16742352  0.00000000
   0.00000000  6.88992180  0.00000000
   0.00000000  8.61234881  1.72249793
   1.72249794  6.88992176  1.72249794
   1.72249793  8.61234881  0.00000000
   3.44492559  6.88992176  0.00000000
   3.44492559  8.61234881  1.72249794
   5.16742352  6.88992176  1.72249793
   5.16742352  8.61234877  0.00000000
   6.88992176  6.88992176  0.00000000
   6.88992176  8.61234881  1.72249794
   8.61234881  6.88992176  1.72249794
   8.61234881  8.61234881  0.00000000
   0.00000000  0.00000000  3.44492554
   0.00000000  1.72249798  5.16742352
   1.72249798  0.00000000  5.16742352
   1.72249794  1.72249794  3.44492559
   3.44492559  0.00000000  3.44492559
   3.44492559  1.72249793  5.16742352
   5.16742352  0.00000000  5.16742352
   5.16742352  1.72249793  3.44492559
   6.88992176  0.00000000  3.44492559
   6.88992176  1.72249793  5.16742352
   8.61234877  0.00000000  5.16742352
   8.61234881  1.72249794  3.44492559
   0.00000000  3.44492559  3.44492559
   0.00000000  5.16742352  5.16742352
   1.72249793  3.44492559  5.16742352
   1.72249793  5.16742352  3.44492559
   3.44492559  3.44492559  3.44492559
   3.44492554  5.16742352  5.16742352
   5.16742352  3.44492554  5.16742352
   5.16742352  5.16742352  3.44492554
   6.88992176  3.44492559  3.44492559
   6.88992180  5.16742352  5.16742352
   8.61234881  3.44492559  5.16742352
   8.61234881  5.16742352  3.44492559
   0.00000000  6.88992176  3.44492559
   0.00000000  8.61234877  5.16742352
   1.72249793  6.88992176  5.16742352
   1.72249794  8.61234881  3.44492559
   3.44492559  6.88992176  3.44492559
   3.44492559  8.61234881  5.16742352
   5.16742352  6.88992180  5.16742352
   5.16742352  8.61234881  3.44492559
   6.88992176  6.88992176  3.44492559
   6.88992176  8.61234881  5.16742352
   8.61234881  6.88992176  5.16742352
   8.61234881  8.61234881  3.44492559
   0.00000000  0.00000000  6.88992180
   0.00000000  1.72249793  8.61234881
   1.72249793  0.00000000  8.61234881
   1.72249794  1.72249794  6.88992176
   3.44492559  0.00000000  6.88992176
   3.44492559  1.72249794  8.61234881
   5.16742352  0.00000000  8.61234877
   5.16742352  1.72249793  6.88992176
   6.88992176  0.00000000  6.88992176
   6.88992176  1.72249794  8.61234881
   8.61234881  0.00000000  8.61234881
   8.61234881  1.72249794  6.88992176
   0.00000000  3.44492559  6.88992176
   0.00000000  5.16742352  8.61234877
   1.72249794  3.44492559  8.61234881
   1.72249793  5.16742352  6.88992176
   3.44492559  3.44492559  6.88992176
   3.44492559  5.16742352  8.61234881
   5.16742352  3.44492559  8.61234881
   5.16742352  5.16742352  6.88992180
   6.88992176  3.44492559  6.88992176
   6.88992176  5.16742352  8.61234881
   8.61234881  3.44492559  8.61234881
   8.61234881  5.16742352  6.88992176
   0.00000000  6.88992176  6.88992176
   0.00000000  8.61234881  8.61234881
   1.72249794  6.88992176  8.61234881
   1.72249794  8.61234881  6.88992176
   3.44492559  6.88992176  6.88992176
   3.44492559  8.61234881  8.61234881
   5.16742352  6.88992176  8.61234881
   5.16742352  8.61234881  6.88992176
   6.88992176  6.88992176  6.88992176
   6.88992176  8.61234881  8.61234881
   8.61234881  6.88992176  8.61234881
   8.61234881  8.61234881  6.88992176
 


--------------------------------------------------------------------------------------------------------


 k-point  1 :   0.1250 0.1250 0.1250  plane waves:   67703
 k-point  2 :   0.3750 0.1250 0.1250  plane waves:   67661
 k-point  3 :   0.3750 0.3750 0.1250  plane waves:   67695
 k-point  4 :   0.3750 0.3750 0.3750  plane waves:   67646

 maximum and minimum number of plane-waves per node :     16941    16898

 maximum number of plane-waves:     67703
 maximum index in each direction: 
   IXMAX=   25   IYMAX=   25   IZMAX=   25
   IXMIN=  -25   IYMIN=  -25   IZMIN=  -25


 real space projection operators:
  total allocation   :      46640.81 KBytes
  max/ min on nodes  :      12043.69      11436.19


 parallel 3D FFT for wavefunctions:
    minimum data exchange during FFTs selected (reduces bandwidth)
 parallel 3D FFT for charge:
    minimum data exchange during FFTs selected (reduces bandwidth)


 total amount of memory used by VASP MPI-rank0   377170. kBytes
=======================================================================

   base      :      30000. kBytes
   nonlr-proj:      20636. kBytes
   fftplans  :      15593. kBytes
   grid      :      21835. kBytes
   one-center:        419. kBytes
   wavefun   :     288687. kBytes
 
     INWAV:  cpu time    0.0000: real time    0.0001
 Broyden mixing: mesh for mixing (old mesh)
   NGX = 51   NGY = 51   NGZ = 51
  (NGX  =144   NGY  =144   NGZ  =144)
  gives a total of 132651 points

 initial charge density was supplied:
 charge density of overlapping atoms calculated
 number of electron     864.0000000 magnetization 
 keeping initial charge density in first step


--------------------------------------------------------------------------------------------------------


 Maximum index for non-local projection operator          793
 Maximum index for augmentation-charges         1463 (set IRDMAX)


--------------------------------------------------------------------------------------------------------


 First call to EWALD:  gamma=   0.172
 Maximum number of real-space cells 3x 3x 3
 Maximum number of reciprocal cells 3x 3x 3

    FEWALD:  cpu time    0.0151: real time    0.0152


--------------------------------------- Iteration      1(   1)  ---------------------------------------


    POTLOK:  cpu time    0.3186: real time    0.3194
    SETDIJ:  cpu time    0.0554: real time    0.0554
     EDDAV:  cpu time   68.0694: real time   68.1514
       DOS:  cpu time    0.0037: real time    0.0037
    --------------------------------------------
      LOOP:  cpu time   68.4472: real time   68.5300

 eigenvalue-minimisations  :  4144
 total energy-change (2. order) : 0.1077299E+05  (-0.4905370E+05)
 number of electron     864.0000000 magnetization 
 augmentation part      864.0000000 magnetization 

 Free energy of the ion-electron system (eV)
  ---------------------------------------------------
  alpha Z        PSCENC =      7300.31925852
  Ewald energy   TEWEN  =    -66232.83996889
  -Hartree energ DENC   =    -11197.02572337
  -exchange      EXHF   =         0.00000000
  -V(xc)+E(xc)   XCENC  =       446.63038354
  PAW double counting   =     51723.88885462   -52548.28121372
  entropy T*S    EENTRO =         0.01176497
  eigenvalues    EBANDS =     17077.69587372
  atomic energy  EATOM  =     64202.58743598
  Solvation  Ediel_sol  =         0.00000000
  ---------------------------------------------------
  free energy    TOTEN  =     10772.98666538 eV

  energy without entropy =    10772.97490041  energy(sigma->0) =    10772.98274372


--------------------------------------------------------------------------------------------------------




--------------------------------------- Iteration      1(   2)  ---------------------------------------


     EDDAV:  cpu time   69.0424: real time   69.0603
       DOS:  cpu time    0.0059: real time    0.0059
    --------------------------------------------
      LOOP:  cpu time   69.0483: real time   69.0661

 eigenvalue-minimisations  :  4144
 total energy-change (2. order) :-0.1019792E+05  (-0.1006143E+05)
 number of electron     864.0000000 magnetization 
 augmentation part      864.0000000 magnetization 

 Free energy of the ion-electron system (eV)
  ---------------------------------------------------
  alpha Z        PSCENC =      7300.31925852
  Ewald energy   TEWEN  =    -66232.83996889
  -Hartree energ DENC   =    -11197.02572337
  -exchange      EXHF   =         0.00000000
  -V(xc)+E(xc)   XCENC  =       446.63038354
  PAW double counting   =     51723.88885462   -52548.28121372
  entropy T*S    EENTRO =         0.01939917
  eigenvalues    EBANDS =      6879.76567838
  atomic energy  EATOM  =     64202.58743598
  Solvation  Ediel_sol  =         0.00000000
  ---------------------------------------------------
  free energy    TOTEN  =       575.06410423 eV

  energy without entropy =      575.04470507  energy(sigma->0) =      575.05763785


--------------------------------------------------------------------------------------------------------




--------------------------------------- Iteration      1(   3)  ---------------------------------------


     EDDAV:  cpu time   68.5077: real time   68.5242
       DOS:  cpu time    0.0068: real time    0.0068
    --------------------------------------------
      LOOP:  cpu time   68.5145: real time   68.5310

 eigenvalue-minimisations  :  4144
 total energy-change (2. order) :-0.1372135E+04  (-0.1184740E+04)
 number of electron     864.0000000 magnetization 
 augmentation part      864.0000000 magnetization 

 Free energy of the ion-electron system (eV)
  ---------------------------------------------------
  alpha Z        PSCENC =      7300.31925852
  Ewald energy   TEWEN  =    -66232.83996889
  -Hartree energ DENC   =    -11197.02572337
  -exchange      EXHF   =         0.00000000
  -V(xc)+E(xc)   XCENC  =       446.63038354
  PAW double counting   =     51723.88885462   -52548.28121372
  entropy T*S    EENTRO =         0.02023076
  eigenvalues    EBANDS =      5507.63025717
  atomic energy  EATOM  =     64202.58743598
  Solvation  Ediel_sol  =         0.00000000
  ---------------------------------------------------
  free energy    TOTEN  =      -797.07048539 eV

  energy without entropy =     -797.09071615  energy(sigma->0) =     -797.07722897


--------------------------------------------------------------------------------------------------------




--------------------------------------- Iteration      1(   4)  ---------------------------------------


     EDDAV:  cpu time  111.9953: real time  112.0304
       DOS:  cpu time    0.0074: real time    0.0074
    --------------------------------------------
      LOOP:  cpu time  112.0028: real time  112.0378

 eigenvalue-minimisations  :  7512
 total energy-change (2. order) :-0.2273093E+03  (-0.2139603E+03)
 number of electron     864.0000000 magnetization 
 augmentation part      864.0000000 magnetization 

 Free energy of the ion-electron system (eV)
  ---------------------------------------------------
  alpha Z        PSCENC =      7300.31925852
  Ewald energy   TEWEN  =    -66232.83996889
  -Hartree energ DENC   =    -11197.02572337
  -exchange      EXHF   =         0.00000000
  -V(xc)+E(xc)   XCENC  =       446.63038354
  PAW double counting   =     51723.88885462   -52548.28121372
  entropy T*S    EENTRO =        -0.07456353
  eigenvalues    EBANDS =      5280.41576425
  atomic energy  EATOM  =     64202.58743598
  Solvation  Ediel_sol  =         0.00000000
  ---------------------------------------------------
  free energy    TOTEN  =     -1024.37977260 eV

  energy without entropy =    -1024.30520907  energy(sigma->0) =    -1024.35491809


--------------------------------------------------------------------------------------------------------




--------------------------------------- Iteration      1(   5)  ---------------------------------------


     EDDAV:  cpu time  100.9761: real time  100.9997
       DOS:  cpu time    0.0077: real time    0.0077
    CHARGE:  cpu time    2.9069: real time    2.9075
    MIXING:  cpu time    0.0083: real time    0.0083
    --------------------------------------------
      LOOP:  cpu time  103.8990: real time  103.9232

 eigenvalue-minimisations  :  6720
 total energy-change (2. order) :-0.2069764E+02  (-0.1964283E+02)
 number of electron     864.0000691 magnetization 
 augmentation part      382.7858495 magnetization 

 Broyden mixing:
  rms(total) = 0.93453E+01    rms(broyden)= 0.93453E+01
  rms(prec ) = 0.11651E+02
  weight for this iteration     100.00

 Free energy of the ion-electron system (eV)
  ---------------------------------------------------
  alpha Z        PSCENC =      7300.31925852
  Ewald energy   TEWEN  =    -66232.83996889
  -Hartree energ DENC   =    -11197.02572337
  -exchange      EXHF   =         0.00000000
  -V(xc)+E(xc)   XCENC  =       446.63038354
  PAW double counting   =     51723.88885462   -52548.28121372
  entropy T*S    EENTRO =        -0.11303511
  eigenvalues    EBANDS =      5259.75659131
  atomic energy  EATOM  =     64202.58743598
  Solvation  Ediel_sol  =         0.00000000
  ---------------------------------------------------
  free energy    TOTEN  =     -1045.07741712 eV

  energy without entropy =    -1044.96438200  energy(sigma->0) =    -1045.03973875


--------------------------------------------------------------------------------------------------------




--------------------------------------- Iteration      1(   6)  ---------------------------------------


    POTLOK:  cpu time    0.2820: real time    0.2826
    SETDIJ:  cpu time    0.0555: real time    0.0555
    EDDIAG:  cpu time    9.7028: real time    9.7053
  RMM-DIIS:  cpu time   27.0885: real time   27.0951
    ORTHCH:  cpu time    3.1307: real time    3.1315
       DOS:  cpu time    0.0083: real time    0.0083
    CHARGE:  cpu time    3.0778: real time    3.0786
    MIXING:  cpu time    0.0096: real time    0.0096
    --------------------------------------------
      LOOP:  cpu time   43.3560: real time   43.3664

 eigenvalue-minimisations  :  4144
 total energy-change (2. order) : 0.1680512E+03  (-0.1353858E+03)
 number of electron     864.0000777 magnetization 
 augmentation part      447.5502562 magnetization 

 Broyden mixing:
  rms(total) = 0.88190E+00    rms(broyden)= 0.88188E+00
  rms(prec ) = 0.95315E+00
  weight for this iteration     100.00

 eigenvalues of (default mixing * dielectric matrix)
  average eigenvalue GAMMA=   0.9511
  0.9511

 Free energy of the ion-electron system (eV)
  ---------------------------------------------------
  alpha Z        PSCENC =      7300.31925852
  Ewald energy   TEWEN  =    -66232.83996889
  -Hartree energ DENC   =     -9342.83819677
  -exchange      EXHF   =         0.00000000
  -V(xc)+E(xc)   XCENC  =       355.79748272
  PAW double counting   =     52458.42535379   -53038.38485929
  entropy T*S    EENTRO =        -0.05339928
  eigenvalues    EBANDS =      3419.96063116
  atomic energy  EATOM  =     64202.58743598
  Solvation  Ediel_sol  =         0.00000000
  ---------------------------------------------------
  free energy    TOTEN  =      -877.02626206 eV

  energy without entropy =     -876.97286277  energy(sigma->0) =     -877.00846230


--------------------------------------------------------------------------------------------------------




--------------------------------------- Iteration      1(   7)  ---------------------------------------


    POTLOK:  cpu time    0.3099: real time    0.3107
    SETDIJ:  cpu time    0.0538: real time    0.0539
    EDDIAG:  cpu time    9.9188: real time    9.9211
  RMM-DIIS:  cpu time   29.6588: real time   29.6676
    ORTHCH:  cpu time    3.0310: real time    3.0317
       DOS:  cpu time    0.0082: real time    0.0082
    CHARGE:  cpu time    2.9729: real time    2.9736
    MIXING:  cpu time    0.0109: real time    0.0109
    --------------------------------------------
      LOOP:  cpu time   45.9633: real time   45.9776

 eigenvalue-minimisations  :  4560
 total energy-change (2. order) :-0.3183344E+01  (-0.1123555E+02)
 number of electron     864.0000753 magnetization 
 augmentation part      447.0809615 magnetization 

 Broyden mixing:
  rms(total) = 0.37489E+00    rms(broyden)= 0.37489E+00
  rms(prec ) = 0.43723E+00
  weight for this iteration     100.00

 eigenvalues of (default mixing * dielectric matrix)
  average eigenvalue GAMMA=   1.0625
  1.0625  1.0625

 Free energy of the ion-electron system (eV)
  ---------------------------------------------------
  alpha Z        PSCENC =      7300.31925852
  Ewald energy   TEWEN  =    -66232.83996889
  -Hartree energ DENC   =     -9379.09593946
  -exchange      EXHF   =         0.00000000
  -V(xc)+E(xc)   XCENC  =       359.94631298
  PAW double counting   =     54336.73944299   -55112.77382079
  entropy T*S    EENTRO =        -0.14236799
  eigenvalues    EBANDS =      3645.05004017
  atomic energy  EATOM  =     64202.58743598
  Solvation  Ediel_sol  =         0.00000000
  ---------------------------------------------------
  free energy    TOTEN  =      -880.20960649 eV

  energy without entropy =     -880.06723850  energy(sigma->0) =     -880.16215049


--------------------------------------------------------------------------------------------------------




--------------------------------------- Iteration      1(   8)  ---------------------------------------


    POTLOK:  cpu time    0.3014: real time    0.3023
    SETDIJ:  cpu time    0.0545: real time    0.0545
    EDDIAG:  cpu time    9.4951: real time    9.4972
  RMM-DIIS:  cpu time   29.2518: real time   29.2588
    ORTHCH:  cpu time    3.0576: real time    3.0582
       DOS:  cpu time    0.0082: real time    0.0082
    CHARGE:  cpu time    3.0017: real time    3.0025
    MIXING:  cpu time    0.0117: real time    0.0117
    --------------------------------------------
      LOOP:  cpu time   45.1820: real time   45.1934

 eigenvalue-minimisations  :  4462
 total energy-change (2. order) :-0.1382533E+00  (-0.1507409E+01)
 number of electron     864.0000748 magnetization 
 augmentation part      443.6133082 magnetization 

 Broyden mixing:
  rms(total) = 0.14615E+01    rms(broyden)= 0.14615E+01
  rms(prec ) = 0.20457E+01
  weight for this iteration     100.00

 eigenvalues of (default mixing * dielectric matrix)
  average eigenvalue GAMMA=   0.7739
  1.1040  1.1040  0.1137

 Free energy of the ion-electron system (eV)
  ---------------------------------------------------
  alpha Z        PSCENC =      7300.31925852
  Ewald energy   TEWEN  =    -66232.83996889
  -Hartree energ DENC   =     -9414.50817336
  -exchange      EXHF   =         0.00000000
  -V(xc)+E(xc)   XCENC  =       362.63167361
  PAW double counting   =     55947.40200260   -56820.64699627
  entropy T*S    EENTRO =        -0.12570022
  eigenvalues    EBANDS =      3774.83260827
  atomic energy  EATOM  =     64202.58743598
  Solvation  Ediel_sol  =         0.00000000
  ---------------------------------------------------
  free energy    TOTEN  =      -880.34785977 eV

  energy without entropy =     -880.22215955  energy(sigma->0) =     -880.30595970


--------------------------------------------------------------------------------------------------------




--------------------------------------- Iteration      1(   9)  ---------------------------------------


    POTLOK:  cpu time    0.3129: real time    0.3134
    SETDIJ:  cpu time    0.0550: real time    0.0550
    EDDIAG:  cpu time    9.5526: real time    9.5549
  RMM-DIIS:  cpu time   31.9941: real time   32.0039
    ORTHCH:  cpu time    3.0272: real time    3.0278
       DOS:  cpu time    0.0083: real time    0.0083
    CHARGE:  cpu time    2.9893: real time    2.9899
    MIXING:  cpu time    0.0117: real time    0.0117
    --------------------------------------------
      LOOP:  cpu time   47.9512: real time   47.9649

 eigenvalue-minimisations  :  4976
 total energy-change (2. order) : 0.7359569E+00  (-0.4770641E+00)
 number of electron     864.0000750 magnetization 
 augmentation part      443.5376841 magnetization 

 Broyden mixing:
  rms(total) = 0.25478E+00    rms(broyden)= 0.25477E+00
  rms(prec ) = 0.30953E+00
  weight for this iteration     100.00

 eigenvalues of (default mixing * dielectric matrix)
  average eigenvalue GAMMA=   1.1342
  2.3694  1.0295  1.0295  0.1086

 Free energy of the ion-electron system (eV)
  ---------------------------------------------------
  alpha Z        PSCENC =      7300.31925852
  Ewald energy   TEWEN  =    -66232.83996889
  -Hartree energ DENC   =     -9413.76889573
  -exchange      EXHF   =         0.00000000
  -V(xc)+E(xc)   XCENC  =       362.76428933
  PAW double counting   =     56252.72955972   -57141.94968059
  entropy T*S    EENTRO =        -0.07500611
  eigenvalues    EBANDS =      3790.62110492
  atomic energy  EATOM  =     64202.58743598
  Solvation  Ediel_sol  =         0.00000000
  ---------------------------------------------------
  free energy    TOTEN  =      -879.61190286 eV

  energy without entropy =     -879.53689675  energy(sigma->0) =     -879.58690082


--------------------------------------------------------------------------------------------------------




--------------------------------------- Iteration      1(  10)  ---------------------------------------


    POTLOK:  cpu time    0.3012: real time    0.3017
    SETDIJ:  cpu time    0.0556: real time    0.0556
    EDDIAG:  cpu time    9.5801: real time    9.5822
  RMM-DIIS:  cpu time   36.5175: real time   36.5287
    ORTHCH:  cpu time    3.0772: real time    3.0778
       DOS:  cpu time    0.0082: real time    0.0082
    CHARGE:  cpu time    2.9811: real time    2.9818
    MIXING:  cpu time    0.0122: real time    0.0122
    --------------------------------------------
      LOOP:  cpu time   52.5332: real time   52.5483

 eigenvalue-minimisations  :  5792
 total energy-change (2. order) : 0.1107216E+00  (-0.2076657E+00)
 number of electron     864.0000752 magnetization 
 augmentation part      444.8891293 magnetization 

 Broyden mixing:
  rms(total) = 0.90727E-01    rms(broyden)= 0.90726E-01
  rms(prec ) = 0.12029E+00
  weight for this iteration     100.00

 eigenvalues of (default mixing * dielectric matrix)
  average eigenvalue GAMMA=   1.1164
  2.5591  1.0670  1.0670  0.7803  0.1089

 Free energy of the ion-electron system (eV)
  ---------------------------------------------------
  alpha Z        PSCENC =      7300.31925852
  Ewald energy   TEWEN  =    -66232.83996889
  -Hartree energ DENC   =     -9335.27443256
  -exchange      EXHF   =         0.00000000
  -V(xc)+E(xc)   XCENC  =       359.59845185
  PAW double counting   =     57762.12444778   -58698.77932147
  entropy T*S    EENTRO =        -0.08231450
  eigenvalues    EBANDS =      3762.84526200
  atomic energy  EATOM  =     64202.58743598
  Solvation  Ediel_sol  =         0.00000000
  ---------------------------------------------------
  free energy    TOTEN  =      -879.50118129 eV

  energy without entropy =     -879.41886679  energy(sigma->0) =     -879.47374312


--------------------------------------------------------------------------------------------------------




--------------------------------------- Iteration      1(  11)  ---------------------------------------


    POTLOK:  cpu time    0.2995: real time    0.2999
    SETDIJ:  cpu time    0.0541: real time    0.0541
    EDDIAG:  cpu time    9.5704: real time    9.5729
  RMM-DIIS:  cpu time   36.2634: real time   36.2755
    ORTHCH:  cpu time    3.0879: real time    3.0886
       DOS:  cpu time    0.0082: real time    0.0082
    CHARGE:  cpu time    2.9984: real time    2.9990
    MIXING:  cpu time    0.0125: real time    0.0125
    --------------------------------------------
      LOOP:  cpu time   52.2944: real time   52.3107

 eigenvalue-minimisations  :  5745
 total energy-change (2. order) :-0.1277589E-01  (-0.1530336E-01)
 number of electron     864.0000752 magnetization 
 augmentation part      444.9533694 magnetization 

 Broyden mixing:
  rms(total) = 0.65576E-01    rms(broyden)= 0.65576E-01
  rms(prec ) = 0.83999E-01
  weight for this iteration     100.00

 eigenvalues of (default mixing * dielectric matrix)
  average eigenvalue GAMMA=   1.2405
  2.6272  1.8437  0.9573  0.9573  0.9485  0.1089

 Free energy of the ion-electron system (eV)
  ---------------------------------------------------
  alpha Z        PSCENC =      7300.31925852
  Ewald energy   TEWEN  =    -66232.83996889
  -Hartree energ DENC   =     -9335.13368879
  -exchange      EXHF   =         0.00000000
  -V(xc)+E(xc)   XCENC  =       359.63351319
  PAW double counting   =     57993.79355908   -58933.77714784
  entropy T*S    EENTRO =        -0.08032415
  eigenvalues    EBANDS =      3765.98340571
  atomic energy  EATOM  =     64202.58743598
  Solvation  Ediel_sol  =         0.00000000
  ---------------------------------------------------
  free energy    TOTEN  =      -879.51395718 eV

  energy without entropy =     -879.43363304  energy(sigma->0) =     -879.48718247


--------------------------------------------------------------------------------------------------------




--------------------------------------- Iteration      1(  12)  ---------------------------------------


    POTLOK:  cpu time    0.3087: real time    0.3094
    SETDIJ:  cpu time    0.0554: real time    0.0554
    EDDIAG:  cpu time    9.5882: real time    9.5907
  RMM-DIIS:  cpu time   29.5223: real time   29.5292
    ORTHCH:  cpu time    3.1150: real time    3.1158
       DOS:  cpu time    0.0084: real time    0.0084
    CHARGE:  cpu time    2.9647: real time    2.9653
    MIXING:  cpu time    0.0136: real time    0.0136
    --------------------------------------------
      LOOP:  cpu time   45.5763: real time   45.5878

 eigenvalue-minimisations  :  4580
 total energy-change (2. order) : 0.5337832E-02  (-0.3543720E-02)
 number of electron     864.0000752 magnetization 
 augmentation part      444.6737783 magnetization 

 Broyden mixing:
  rms(total) = 0.17671E-01    rms(broyden)= 0.17671E-01
  rms(prec ) = 0.23094E-01
  weight for this iteration     100.00

 eigenvalues of (default mixing * dielectric matrix)
  average eigenvalue GAMMA=   1.3081
  2.4680  2.4680  1.2782  0.9684  0.9684  0.8971  0.1089

 Free energy of the ion-electron system (eV)
  ---------------------------------------------------
  alpha Z        PSCENC =      7300.31925852
  Ewald energy   TEWEN  =    -66232.83996889
  -Hartree energ DENC   =     -9347.32038580
  -exchange      EXHF   =         0.00000000
  -V(xc)+E(xc)   XCENC  =       360.17520621
  PAW double counting   =     58051.89230990   -58988.56122437
  entropy T*S    EENTRO =        -0.07688783
  eigenvalues    EBANDS =      3774.31563692
  atomic energy  EATOM  =     64202.58743598
  Solvation  Ediel_sol  =         0.00000000
  ---------------------------------------------------
  free energy    TOTEN  =      -879.50861935 eV

  energy without entropy =     -879.43173152  energy(sigma->0) =     -879.48299007


--------------------------------------------------------------------------------------------------------




--------------------------------------- Iteration      1(  13)  ---------------------------------------


    POTLOK:  cpu time    0.3035: real time    0.3037
    SETDIJ:  cpu time    0.0545: real time    0.0545
    EDDIAG:  cpu time    9.4995: real time    9.5016
  RMM-DIIS:  cpu time   37.1212: real time   37.1298
    ORTHCH:  cpu time    3.0695: real time    3.0703
       DOS:  cpu time    0.0084: real time    0.0084
    CHARGE:  cpu time    2.9697: real time    2.9704
    MIXING:  cpu time    0.0145: real time    0.0145
    --------------------------------------------
      LOOP:  cpu time   53.0408: real time   53.0532

 eigenvalue-minimisations  :  5756
 total energy-change (2. order) :-0.9651853E-03  (-0.1747293E-02)
 number of electron     864.0000752 magnetization 
 augmentation part      444.5531531 magnetization 

 Broyden mixing:
  rms(total) = 0.74323E-02    rms(broyden)= 0.74323E-02
  rms(prec ) = 0.94002E-02
  weight for this iteration     100.00

 eigenvalues of (default mixing * dielectric matrix)
  average eigenvalue GAMMA=   1.3473
  2.5701  2.1601  2.1601  0.1089  0.9753  0.9753  0.9144  0.9144

 Free energy of the ion-electron system (eV)
  ---------------------------------------------------
  alpha Z        PSCENC =      7300.31925852
  Ewald energy   TEWEN  =    -66232.83996889
  -Hartree energ DENC   =     -9351.17902137
  -exchange      EXHF   =         0.00000000
  -V(xc)+E(xc)   XCENC  =       360.33806943
  PAW double counting   =     58044.70513385   -58979.27123743
  entropy T*S    EENTRO =        -0.07553360
  eigenvalues    EBANDS =      3775.90627897
  atomic energy  EATOM  =     64202.58743598
  Solvation  Ediel_sol  =         0.00000000
  ---------------------------------------------------
  free energy    TOTEN  =      -879.50958453 eV

  energy without entropy =     -879.43405093  energy(sigma->0) =     -879.48440667


--------------------------------------------------------------------------------------------------------




--------------------------------------- Iteration      1(  14)  ---------------------------------------


    POTLOK:  cpu time    0.3023: real time    0.3027
    SETDIJ:  cpu time    0.0540: real time    0.0540
    EDDIAG:  cpu time    9.8019: real time    9.8043
  RMM-DIIS:  cpu time   31.4662: real time   31.4732
    ORTHCH:  cpu time    3.0162: real time    3.0168
       DOS:  cpu time    0.0083: real time    0.0083
    CHARGE:  cpu time    2.9832: real time    2.9838
    MIXING:  cpu time    0.0162: real time    0.0162
    --------------------------------------------
      LOOP:  cpu time   47.6484: real time   47.6593

 eigenvalue-minimisations  :  4869
 total energy-change (2. order) :-0.1921145E-04  (-0.8873404E-04)
 number of electron     864.0000752 magnetization 
 augmentation part      444.5939796 magnetization 

 Broyden mixing:
  rms(total) = 0.19241E-02    rms(broyden)= 0.19241E-02
  rms(prec ) = 0.25976E-02
  weight for this iteration     100.00

 eigenvalues of (default mixing * dielectric matrix)
  average eigenvalue GAMMA=   1.3790
  2.7348  2.2691  2.2691  0.1089  1.2050  0.9910  0.9910  0.9698  0.8724

 Free energy of the ion-electron system (eV)
  ---------------------------------------------------
  alpha Z        PSCENC =      7300.31925852
  Ewald energy   TEWEN  =    -66232.83996889
  -Hartree energ DENC   =     -9349.40939280
  -exchange      EXHF   =         0.00000000
  -V(xc)+E(xc)   XCENC  =       360.26255441
  PAW double counting   =     58042.83054348   -58977.76354689
  entropy T*S    EENTRO =        -0.07534756
  eigenvalues    EBANDS =      3774.57886000
  atomic energy  EATOM  =     64202.58743598
  Solvation  Ediel_sol  =         0.00000000
  ---------------------------------------------------
  free energy    TOTEN  =      -879.50960375 eV

  energy without entropy =     -879.43425619  energy(sigma->0) =     -879.48448789


--------------------------------------------------------------------------------------------------------




--------------------------------------- Iteration      1(  15)  ---------------------------------------


    POTLOK:  cpu time    0.3047: real time    0.3051
    SETDIJ:  cpu time    0.0545: real time    0.0545
    EDDIAG:  cpu time    9.7458: real time    9.7481
  RMM-DIIS:  cpu time   39.9100: real time   39.9191
    ORTHCH:  cpu time    3.1198: real time    3.1206
       DOS:  cpu time    0.0084: real time    0.0084
    CHARGE:  cpu time    2.8184: real time    2.8189
    MIXING:  cpu time    0.0159: real time    0.0159
    --------------------------------------------
      LOOP:  cpu time   55.9774: real time   55.9904

 eigenvalue-minimisations  :  6195
 total energy-change (2. order) :-0.2005860E-04  (-0.2248404E-04)
 number of electron     864.0000752 magnetization 
 augmentation part      444.5990181 magnetization 

 Broyden mixing:
  rms(total) = 0.12204E-02    rms(broyden)= 0.12203E-02
  rms(prec ) = 0.17061E-02
  weight for this iteration     100.00

 eigenvalues of (default mixing * dielectric matrix)
  average eigenvalue GAMMA=   1.4469
  3.2500  2.4739  2.4739  0.1089  1.3320  0.9970  0.9970  0.9012  0.9673  0.9673

 Free energy of the ion-electron system (eV)
  ---------------------------------------------------
  alpha Z        PSCENC =      7300.31925852
  Ewald energy   TEWEN  =    -66232.83996889
  -Hartree energ DENC   =     -9349.37065792
  -exchange      EXHF   =         0.00000000
  -V(xc)+E(xc)   XCENC  =       360.26368856
  PAW double counting   =     58042.48343243   -58977.45090482
  entropy T*S    EENTRO =        -0.07495103
  eigenvalues    EBANDS =      3774.57304335
  atomic energy  EATOM  =     64202.58743598
  Solvation  Ediel_sol  =         0.00000000
  ---------------------------------------------------
  free energy    TOTEN  =      -879.50962380 eV

  energy without entropy =     -879.43467278  energy(sigma->0) =     -879.48464013


--------------------------------------------------------------------------------------------------------




--------------------------------------- Iteration      1(  16)  ---------------------------------------


    POTLOK:  cpu time    0.2631: real time    0.2637
    SETDIJ:  cpu time    0.0518: real time    0.0518
    EDDIAG:  cpu time    9.6486: real time    9.6510
  RMM-DIIS:  cpu time   29.6959: real time   29.7054
    ORTHCH:  cpu time    3.0755: real time    3.0762
       DOS:  cpu time    0.0081: real time    0.0081
    CHARGE:  cpu time    2.8639: real time    2.8646
    MIXING:  cpu time    0.0190: real time    0.0190
    --------------------------------------------
      LOOP:  cpu time   45.6258: real time   45.6398

 eigenvalue-minimisations  :  4495
 total energy-change (2. order) : 0.2931327E-04  ( 0.2702219E-04)
 number of electron     864.0000752 magnetization 
 augmentation part      444.6001955 magnetization 

 Broyden mixing:
  rms(total) = 0.46000E-03    rms(broyden)= 0.45999E-03
  rms(prec ) = 0.58251E-03
  weight for this iteration     100.00

 eigenvalues of (default mixing * dielectric matrix)
  average eigenvalue GAMMA=   1.4265
  2.9315  2.5862  2.1214  2.1214  0.1089  0.9968  0.9968  0.9984  0.9984  0.9159
  0.9159

 Free energy of the ion-electron system (eV)
  ---------------------------------------------------
[...]
   0.105E-01 0.103E-01 0.143E-04   -.205E-01 -.202E-01 -.277E-04   -.162E-21 -.117E-19 -.254E-20   -.388E-07 -.534E-07 0.141E-07
   -.105E-01 -.143E-04 0.142E-04   0.205E-01 0.277E-04 -.277E-04   -.179E-24 0.169E-20 -.216E-19   0.394E-07 -.141E-07 0.141E-07
   -.105E-01 0.103E-01 -.103E-01   0.205E-01 -.202E-01 0.202E-01   0.153E-24 -.735E-21 -.326E-19   0.394E-07 -.534E-07 0.529E-07
   -.143E-04 -.103E-01 -.103E-01   0.277E-04 0.202E-01 0.202E-01   -.847E-21 -.805E-20 0.148E-19   -.141E-07 0.528E-07 0.528E-07
   -.143E-04 0.143E-04 0.143E-04   0.277E-04 -.277E-04 -.277E-04   -.182E-24 0.466E-20 -.233E-19   -.141E-07 0.141E-07 0.141E-07
   0.103E-01 -.103E-01 0.143E-04   -.202E-01 0.202E-01 -.277E-04   -.101E-20 -.169E-20 -.847E-21   -.534E-07 0.528E-07 0.141E-07
   0.103E-01 0.143E-04 -.103E-01   -.202E-01 -.277E-04 0.202E-01   -.327E-21 -.119E-19 -.296E-20   -.534E-07 0.141E-07 0.528E-07
   -.103E-01 -.103E-01 -.103E-01   0.202E-01 0.202E-01 0.202E-01   0.182E-24 0.157E-19 0.123E-19   0.528E-07 0.528E-07 0.528E-07
   -.103E-01 0.143E-04 0.142E-04   0.202E-01 -.277E-04 -.277E-04   -.180E-24 -.762E-20 -.254E-19   0.530E-07 0.141E-07 0.141E-07
   0.143E-04 -.103E-01 0.142E-04   -.277E-04 0.202E-01 -.277E-04   0.423E-21 -.720E-20 0.254E-20   0.141E-07 0.530E-07 0.141E-07
   0.143E-04 0.143E-04 -.103E-01   -.277E-04 -.277E-04 0.202E-01   0.424E-21 0.212E-19 -.635E-20   0.141E-07 0.141E-07 0.530E-07
   0.105E-01 -.103E-01 -.103E-01   -.205E-01 0.202E-01 0.202E-01   -.721E-21 0.186E-19 0.203E-19   -.388E-07 0.528E-07 0.528E-07
   0.105E-01 0.143E-04 0.143E-04   -.205E-01 -.277E-04 -.277E-04   -.156E-21 -.805E-20 -.805E-20   -.389E-07 0.141E-07 0.141E-07
   -.105E-01 -.103E-01 0.142E-04   0.205E-01 0.202E-01 -.277E-04   -.122E-24 -.720E-20 -.847E-21   0.393E-07 0.528E-07 0.141E-07
   -.105E-01 0.143E-04 -.103E-01   0.205E-01 -.277E-04 0.202E-01   0.124E-24 -.847E-20 -.195E-19   0.393E-07 0.141E-07 0.528E-07
   -.143E-04 0.105E-01 -.103E-01   0.277E-04 -.205E-01 0.202E-01   -.423E-21 0.218E-19 -.419E-19   -.141E-07 -.387E-07 0.528E-07
   -.143E-04 -.105E-01 0.142E-04   0.277E-04 0.205E-01 -.277E-04   -.125E-24 0.424E-21 0.119E-19   -.141E-07 0.394E-07 0.141E-07
   0.103E-01 0.105E-01 0.143E-04   -.202E-01 -.205E-01 -.277E-04   0.807E-21 0.141E-20 0.131E-19   -.534E-07 -.388E-07 0.141E-07
   0.103E-01 -.105E-01 -.103E-01   -.202E-01 0.205E-01 0.202E-01   0.678E-21 0.169E-20 -.551E-20   -.534E-07 0.394E-07 0.529E-07
   -.103E-01 0.105E-01 -.103E-01   0.202E-01 -.205E-01 0.202E-01   0.153E-24 0.651E-20 -.313E-19   0.528E-07 -.388E-07 0.528E-07
   -.103E-01 -.105E-01 0.142E-04   0.202E-01 0.205E-01 -.277E-04   -.122E-24 0.608E-25 0.339E-19   0.528E-07 0.393E-07 0.141E-07
   0.143E-04 0.105E-01 0.143E-04   -.277E-04 -.205E-01 -.277E-04   -.153E-24 -.283E-20 0.974E-20   0.141E-07 -.389E-07 0.141E-07
   0.143E-04 -.105E-01 -.103E-01   -.277E-04 0.205E-01 0.202E-01   -.847E-21 -.212E-20 -.254E-20   0.141E-07 0.393E-07 0.528E-07
   0.105E-01 0.105E-01 -.103E-01   -.205E-01 -.205E-01 0.202E-01   -.118E-20 -.189E-19 -.479E-19   -.388E-07 -.388E-07 0.528E-07
   0.105E-01 -.105E-01 0.143E-04   -.205E-01 0.205E-01 -.277E-04   0.991E-22 0.720E-20 0.508E-20   -.388E-07 0.393E-07 0.141E-07
   -.105E-01 0.105E-01 0.143E-04   0.205E-01 -.205E-01 -.277E-04   -.151E-24 0.479E-20 0.847E-21   0.393E-07 -.388E-07 0.141E-07
   -.105E-01 -.105E-01 -.103E-01   0.205E-01 0.205E-01 0.202E-01   0.182E-24 0.106E-19 -.258E-19   0.394E-07 0.394E-07 0.529E-07
   -.143E-04 -.143E-04 0.105E-01   0.277E-04 0.277E-04 -.205E-01   -.127E-20 -.424E-21 -.626E-19   -.141E-07 -.141E-07 -.388E-07
   -.143E-04 0.103E-01 -.105E-01   0.277E-04 -.202E-01 0.205E-01   0.149E-24 0.392E-20 -.508E-20   -.141E-07 -.534E-07 0.393E-07
   0.103E-01 -.143E-04 -.105E-01   -.202E-01 0.277E-04 0.205E-01   0.157E-21 0.127E-20 0.330E-19   -.534E-07 -.141E-07 0.393E-07
   0.103E-01 0.103E-01 0.105E-01   -.202E-01 -.202E-01 -.205E-01   -.127E-20 -.402E-20 -.101E-19   -.534E-07 -.534E-07 -.388E-07
   -.103E-01 -.143E-04 0.105E-01   0.202E-01 0.277E-04 -.205E-01   -.280E-25 -.424E-20 -.732E-19   0.528E-07 -.141E-07 -.387E-07
   -.103E-01 0.103E-01 -.105E-01   0.202E-01 -.202E-01 0.205E-01   0.151E-24 0.774E-20 -.292E-19   0.529E-07 -.534E-07 0.394E-07
   0.143E-04 -.143E-04 -.105E-01   -.277E-04 0.277E-04 0.205E-01   0.847E-21 0.635E-20 -.805E-20   0.141E-07 -.141E-07 0.394E-07
   0.143E-04 0.103E-01 0.105E-01   -.277E-04 -.202E-01 -.205E-01   0.847E-21 0.248E-19 0.157E-19   0.141E-07 -.534E-07 -.388E-07
   0.105E-01 -.143E-04 0.105E-01   -.205E-01 0.277E-04 -.205E-01   -.160E-20 -.250E-19 -.309E-19   -.387E-07 -.141E-07 -.387E-07
   0.105E-01 0.103E-01 -.105E-01   -.205E-01 -.202E-01 0.205E-01   -.109E-21 -.709E-20 0.114E-19   -.388E-07 -.534E-07 0.394E-07
   -.105E-01 -.143E-04 -.105E-01   0.205E-01 0.277E-04 0.205E-01   0.123E-24 0.678E-20 -.182E-19   0.393E-07 -.141E-07 0.393E-07
   -.105E-01 0.103E-01 0.105E-01   0.205E-01 -.202E-01 -.205E-01   0.667E-27 0.106E-20 0.894E-20   0.394E-07 -.534E-07 -.388E-07
   -.143E-04 -.103E-01 0.105E-01   0.277E-04 0.202E-01 -.205E-01   -.169E-20 -.106E-19 0.850E-20   -.141E-07 0.528E-07 -.387E-07
   -.143E-04 0.143E-04 -.105E-01   0.277E-04 -.277E-04 0.205E-01   0.120E-24 -.551E-20 0.233E-19   -.141E-07 0.141E-07 0.394E-07
   0.103E-01 -.103E-01 -.105E-01   -.202E-01 0.202E-01 0.205E-01   -.126E-20 -.762E-20 0.424E-21   -.534E-07 0.529E-07 0.394E-07
   0.103E-01 0.143E-04 0.105E-01   -.202E-01 -.277E-04 -.205E-01   0.761E-21 -.169E-20 -.105E-19   -.534E-07 0.141E-07 -.388E-07
   -.103E-01 -.103E-01 0.105E-01   0.202E-01 0.202E-01 -.205E-01   0.296E-25 0.131E-19 -.118E-19   0.528E-07 0.528E-07 -.388E-07
   -.103E-01 0.143E-04 -.105E-01   0.202E-01 -.277E-04 0.205E-01   0.122E-24 -.608E-25 0.974E-20   0.528E-07 0.141E-07 0.393E-07
   0.143E-04 -.103E-01 -.105E-01   -.277E-04 0.202E-01 0.205E-01   -.423E-21 -.296E-20 -.593E-20   0.141E-07 0.528E-07 0.393E-07
   0.143E-04 0.143E-04 0.105E-01   -.277E-04 -.277E-04 -.205E-01   -.127E-20 0.119E-19 0.132E-19   0.141E-07 0.141E-07 -.389E-07
   0.105E-01 -.103E-01 0.105E-01   -.205E-01 0.202E-01 -.205E-01   -.189E-20 0.186E-19 -.152E-19   -.388E-07 0.528E-07 -.388E-07
   0.105E-01 0.143E-04 -.105E-01   -.205E-01 -.277E-04 0.205E-01   -.161E-21 -.127E-20 0.373E-19   -.388E-07 0.141E-07 0.393E-07
   -.105E-01 -.103E-01 -.105E-01   0.205E-01 0.202E-01 0.205E-01   0.180E-24 -.635E-20 0.106E-19   0.394E-07 0.529E-07 0.394E-07
   -.105E-01 0.143E-04 0.105E-01   0.205E-01 -.277E-04 -.205E-01   -.284E-25 -.169E-20 0.161E-19   0.393E-07 0.141E-07 -.388E-07
   -.143E-04 0.105E-01 0.105E-01   0.277E-04 -.205E-01 -.205E-01   0.424E-21 0.244E-19 0.246E-19   -.141E-07 -.387E-07 -.387E-07
   -.143E-04 -.105E-01 -.105E-01   0.277E-04 0.205E-01 0.205E-01   0.177E-24 0.136E-19 -.110E-19   -.141E-07 0.393E-07 0.393E-07
   0.103E-01 0.105E-01 -.105E-01   -.202E-01 -.205E-01 0.205E-01   0.107E-20 0.890E-21 0.254E-20   -.534E-07 -.388E-07 0.394E-07
   0.103E-01 -.105E-01 0.105E-01   -.202E-01 0.205E-01 -.205E-01   0.221E-20 0.114E-19 0.102E-19   -.534E-07 0.394E-07 -.388E-07
   -.103E-01 0.105E-01 0.105E-01   0.202E-01 -.205E-01 -.205E-01   0.467E-27 -.654E-20 -.371E-21   0.528E-07 -.388E-07 -.388E-07
   -.103E-01 -.105E-01 -.105E-01   0.202E-01 0.205E-01 0.205E-01   0.180E-24 -.110E-19 0.254E-20   0.529E-07 0.394E-07 0.394E-07
   0.143E-04 0.105E-01 -.105E-01   -.277E-04 -.205E-01 0.205E-01   0.149E-24 0.428E-20 0.123E-19   0.141E-07 -.388E-07 0.393E-07
   0.143E-04 -.105E-01 0.105E-01   -.277E-04 0.205E-01 -.205E-01   -.847E-21 0.593E-20 0.204E-19   0.141E-07 0.393E-07 -.388E-07
   0.105E-01 0.105E-01 0.105E-01   -.205E-01 -.205E-01 -.205E-01   -.220E-21 -.171E-19 0.589E-19   -.388E-07 -.388E-07 -.388E-07
   0.105E-01 -.105E-01 -.105E-01   -.205E-01 0.205E-01 0.205E-01   -.594E-22 -.596E-25 0.593E-20   -.388E-07 0.394E-07 0.394E-07
   -.105E-01 0.105E-01 -.105E-01   0.205E-01 -.205E-01 0.205E-01   0.151E-24 0.979E-20 0.551E-20   0.394E-07 -.388E-07 0.394E-07
   -.105E-01 -.105E-01 0.105E-01   0.205E-01 0.205E-01 -.205E-01   0.292E-25 -.381E-20 0.204E-19   0.394E-07 0.394E-07 -.388E-07
 -----------------------------------------------------------------------------------------------
   0.746E-10 0.109E-09 0.225E-10   -.108E-12 0.381E-12 -.156E-11   -.116E-19 0.509E-19 0.165E-18   -.142E-09 -.141E-09 -.142E-09
 
 
 POSITION                                       TOTAL-FORCE (eV/Angst)
 -----------------------------------------------------------------------------------
      0.00000     -0.00000     -0.00000        -0.000000     -0.000000     -0.000000
      0.00000      1.72377      1.72377         0.000000     -0.000000      0.000000
      1.72377     -0.00000      1.72377         0.000000     -0.000000      0.000000
      1.72377      1.72377      0.00000         0.000000      0.000000      0.000000
      3.44746      0.00000     -0.00000        -0.000000      0.000000     -0.000000
      3.44746      1.72377      1.72377        -0.000000     -0.000000      0.000000
      5.17123     -0.00000      1.72377         0.000000      0.000000      0.000000
      5.17123      1.72377     -0.00000        -0.000000      0.000000     -0.000000
      6.89499     -0.00000     -0.00000        -0.000000      0.000000     -0.000000
      6.89499      1.72377      1.72377         0.000000      0.000000      0.000000
      8.61869     -0.00000      1.72377        -0.000000      0.000000      0.000000
      8.61869      1.72377     -0.00000         0.000000      0.000000      0.000000
      0.00000      3.44746      0.00000         0.000000     -0.000000      0.000000
      0.00000      5.17123      1.72377         0.000000     -0.000000     -0.000000
      1.72377      3.44746      1.72377        -0.000000      0.000000     -0.000000
      1.72377      5.17123      0.00000         0.000000     -0.000000      0.000000
      3.44746      3.44746      0.00000        -0.000000      0.000000      0.000000
      3.44746      5.17123      1.72377         0.000000     -0.000000      0.000000
      5.17123      3.44746      1.72377         0.000000     -0.000000      0.000000
      5.17123      5.17123      0.00000         0.000000      0.000000     -0.000000
      6.89499      3.44746     -0.00000        -0.000000     -0.000000     -0.000000
      6.89499      5.17123      1.72377        -0.000000      0.000000     -0.000000
      8.61869      3.44746      1.72377         0.000000     -0.000000      0.000000
      8.61869      5.17123     -0.00000        -0.000000      0.000000     -0.000000
      0.00000      6.89499      0.00000         0.000000     -0.000000     -0.000000
      0.00000      8.61869      1.72377        -0.000000      0.000000      0.000000
      1.72377      6.89499      1.72377        -0.000000     -0.000000     -0.000000
      1.72377      8.61869      0.00000         0.000000      0.000000      0.000000
      3.44746      6.89499      0.00000         0.000000     -0.000000     -0.000000
      3.44746      8.61869      1.72377         0.000000      0.000000      0.000000
      5.17123      6.89499      1.72377        -0.000000      0.000000     -0.000000
      5.17123      8.61869      0.00000        -0.000000     -0.000000     -0.000000
      6.89499      6.89499      0.00000        -0.000000      0.000000      0.000000
      6.89499      8.61869      1.72377         0.000000      0.000000     -0.000000
      8.61869      6.89499      1.72377         0.000000     -0.000000      0.000000
      8.61869      8.61869      0.00000        -0.000000     -0.000000     -0.000000
      0.00000     -0.00000      3.44746         0.000000     -0.000000      0.000000
      0.00000      1.72377      5.17123         0.000000      0.000000      0.000000
      1.72377     -0.00000      5.17123         0.000000     -0.000000      0.000000
      1.72377      1.72377      3.44746         0.000000     -0.000000     -0.000000
      3.44746     -0.00000      3.44746        -0.000000      0.000000     -0.000000
      3.44746      1.72377      5.17123         0.000000      0.000000      0.000000
      5.17123     -0.00000      5.17123         0.000000      0.000000      0.000000
      5.17123      1.72377      3.44746        -0.000000      0.000000      0.000000
      6.89499     -0.00000      3.44746         0.000000      0.000000      0.000000
      6.89499      1.72377      5.17123        -0.000000     -0.000000      0.000000
      8.61869     -0.00000      5.17123        -0.000000     -0.000000      0.000000
      8.61869      1.72377      3.44746         0.000000      0.000000     -0.000000
      0.00000      3.44746      3.44746        -0.000000      0.000000     -0.000000
      0.00000      5.17123      5.17123        -0.000000     -0.000000     -0.000000
      1.72377      3.44746      5.17123         0.000000      0.000000      0.000000
      1.72377      5.17123      3.44746        -0.000000     -0.000000      0.000000
      3.44746      3.44746      3.44746        -0.000000     -0.000000      0.000000
      3.44746      5.17123      5.17123         0.000000     -0.000000      0.000000
      5.17123      3.44746      5.17123         0.000000     -0.000000      0.000000
      5.17123      5.17123      3.44746        -0.000000      0.000000      0.000000
      6.89499      3.44746      3.44746         0.000000     -0.000000      0.000000
      6.89499      5.17123      5.17123        -0.000000      0.000000     -0.000000
      8.61869      3.44746      5.17123        -0.000000     -0.000000      0.000000
      8.61869      5.17123      3.44746        -0.000000      0.000000      0.000000
      0.00000      6.89499      3.44746        -0.000000     -0.000000     -0.000000
      0.00000      8.61869      5.17123         0.000000      0.000000     -0.000000
      1.72377      6.89499      5.17123         0.000000     -0.000000      0.000000
      1.72377      8.61869      3.44746         0.000000      0.000000      0.000000
      3.44746      6.89499      3.44746         0.000000      0.000000      0.000000
      3.44746      8.61869      5.17123        -0.000000     -0.000000      0.000000
      5.17123      6.89499      5.17123         0.000000     -0.000000     -0.000000
      5.17123      8.61869      3.44746        -0.000000      0.000000      0.000000
      6.89499      6.89499      3.44746        -0.000000      0.000000      0.000000
      6.89499      8.61869      5.17123        -0.000000     -0.000000     -0.000000
      8.61869      6.89499      5.17123        -0.000000      0.000000     -0.000000
      8.61869      8.61869      3.44746        -0.000000      0.000000      0.000000
      0.00000     -0.00000      6.89499         0.000000     -0.000000     -0.000000
      0.00000      1.72377      8.61869        -0.000000      0.000000     -0.000000
      1.72377     -0.00000      8.61869         0.000000     -0.000000     -0.000000
      1.72377      1.72377      6.89499        -0.000000      0.000000      0.000000
      3.44746     -0.00000      6.89499         0.000000     -0.000000     -0.000000
      3.44746      1.72377      8.61869         0.000000     -0.000000     -0.000000
      5.17123     -0.00000      8.61869         0.000000      0.000000      0.000000
      5.17123      1.72377      6.89499        -0.000000      0.000000     -0.000000
      6.89499     -0.00000      6.89499        -0.000000      0.000000     -0.000000
      6.89499      1.72377      8.61869        -0.000000     -0.000000     -0.000000
      8.61869     -0.00000      8.61869        -0.000000      0.000000      0.000000
      8.61869      1.72377      6.89499         0.000000      0.000000      0.000000
      0.00000      3.44746      6.89499        -0.000000      0.000000      0.000000
      0.00000      5.17123      8.61869         0.000000      0.000000      0.000000
      1.72377      3.44746      8.61869         0.000000      0.000000     -0.000000
      1.72377      5.17123      6.89499        -0.000000      0.000000      0.000000
      3.44746      3.44746      6.89499         0.000000      0.000000     -0.000000
      3.44746      5.17123      8.61869        -0.000000     -0.000000      0.000000
      5.17123      3.44746      8.61869         0.000000     -0.000000     -0.000000
      5.17123      5.17123      6.89499         0.000000      0.000000     -0.000000
      6.89499      3.44746      6.89499        -0.000000     -0.000000     -0.000000
      6.89499      5.17123      8.61869         0.000000      0.000000      0.000000
      8.61869      3.44746      8.61869        -0.000000     -0.000000     -0.000000
      8.61869      5.17123      6.89499        -0.000000     -0.000000     -0.000000
      0.00000      6.89499      6.89499        -0.000000     -0.000000     -0.000000
      0.00000      8.61869      8.61869        -0.000000     -0.000000     -0.000000
      1.72377      6.89499      8.61869        -0.000000     -0.000000     -0.000000
      1.72377      8.61869      6.89499        -0.000000      0.000000     -0.000000
      3.44746      6.89499      6.89499         0.000000      0.000000     -0.000000
      3.44746      8.61869      8.61869        -0.000000     -0.000000      0.000000
      5.17123      6.89499      8.61869        -0.000000      0.000000     -0.000000
      5.17123      8.61869      6.89499        -0.000000     -0.000000     -0.000000
      6.89499      6.89499      6.89499        -0.000000      0.000000     -0.000000
      6.89499      8.61869      8.61869        -0.000000     -0.000000      0.000000
      8.61869      6.89499      8.61869         0.000000     -0.000000      0.000000
      8.61869      8.61869      6.89499         0.000000     -0.000000     -0.000000
 -----------------------------------------------------------------------------------
    total drift:                               -0.000000     -0.000000     -0.000000


--------------------------------------------------------------------------------------------------------



  FREE ENERGIE OF THE ION-ELECTRON SYSTEM (eV)
  ---------------------------------------------------
  free  energy   TOTEN  =      -879.51377188 eV

  energy  without entropy=     -879.44373514  energy(sigma->0) =     -879.49042630
 
 d Force = 0.0000000E+00[ 0.000E+00, 0.000E+00]  d Energy = 0.9079764E-02-0.908E-02
 d Force = 0.0000000E+00[ 0.000E+00, 0.000E+00]  d Ewald  = 0.6945470E+02-0.695E+02


--------------------------------------------------------------------------------------------------------


    POTLOK:  cpu time    0.2655: real time    0.2655


--------------------------------------------------------------------------------------------------------




--------------------------------------------------------------------------------------------------------


  
 reached required accuracy - stopping structural energy minimisation
     LOOP+:  cpu time  450.5659: real time  450.5787
    4ORBIT:  cpu time    0.0000: real time    0.0000

 total amount of memory used by VASP MPI-rank0   377170. kBytes
=======================================================================

   base      :      30000. kBytes
   nonlr-proj:      20636. kBytes
   fftplans  :      15593. kBytes
   grid      :      21835. kBytes
   one-center:        419. kBytes
   wavefun   :     288687. kBytes
 
  
  
 General timing and accounting informations for this job:
 ========================================================
  
                  Total CPU time used (sec):     2815.020
                            User time (sec):     2811.473
                          System time (sec):        3.547
                         Elapsed time (sec):     2815.414
  
                   Maximum memory used (kb):      440564.
                   Average memory used (kb):           0.
  
                          Minor page faults:       488954
                          Major page faults:            0
                 Voluntary context switches:          786
