<?xml version="1.0" encoding="ISO-8859-1"?>
<modeling>
 <generator>
  <i name="program" type="string">vasp </i>
  <i name="version" type="string">5.4.4.18Apr17-6-g9f103f2a35  </i>
  <i name="subversion" type="string">(build Aug 17 2017 06:00:38) complex            parallel </i>
  <i name="platform" type="string">LinuxIFC </i>
  <i name="date" type="string">2019 07 12 </i>
  <i name="time" type="string">15:32:34 </i>
 </generator>
 <incar>
  <i type="string" name="SYSTEM">Opt</i>
  <i type="int" name="ISTART">     0</i>
  <i type="string" name="PREC">normal</i>
  <i type="string" name="ALGO"> Fast</i>
  <i type="int" name="ISPIN">     1</i>
  <i type="int" name="ICHARG">     2</i>
  <i type="int" name="NELM">   400</i>
  <i type="int" name="IBRION">     2</i>
  <i name="EDIFF">      0.00000100</i>
  <i name="EDIFFG">     -0.01000000</i>
  <i type="int" name="NSW">   100</i>
  <i type="int" name="ISIF">     3</i>
  <i name="ENCUT">    900.00000000</i>
  <i type="int" name="NGX">    72</i>
  <i type="int" name="NGY">    72</i>
  <i type="int" name="NGZ">    72</i>
  <i name="POTIM">      0.50000000</i>
  <i type="string" name="LREAL">Auto</i>
  <i type="logical" name="LWAVE"> F  </i>
  <i type="logical" name="LCHARG"> F  </i>
  <v type="int" name="KPOINT_BSE">    -1     0     0     0</v>
  <i type="int" name="NELM">   400</i>
 </incar>
 <structure name="primitive_cell" >
  <crystal>
   <varray name="basis" >
    <v>       3.44492529       0.00000000       0.00000000 </v>
    <v>       0.00000000       3.44492529       0.00000000 </v>
    <v>       0.00000000       0.00000000       3.44492524 </v>
   </varray>
   <i name="volume">     40.88268566 </i>
   <varray name="rec_basis" >
    <v>       0.29028206       0.00000000       0.00000000 </v>
    <v>       0.00000000       0.29028206       0.00000000 </v>
    <v>       0.00000000       0.00000000       0.29028206 </v>
   </varray>
  </crystal>
  <varray name="positions" >
   <v>       0.00000000       0.00000000       0.00000000 </v>
   <v>       0.00000000      -0.49998976      -0.49998975 </v>
   <v>      -0.49998976       0.00000000      -0.49998975 </v>
   <v>      -0.49998976      -0.49998976       0.00000000 </v>
  </varray>
 </structure>
 <varray name="primitive_index" >
  <v type="int" >        1 </v>
  <v type="int" >        2 </v>
  <v type="int" >        3 </v>
  <v type="int" >        4 </v>
 </varray>
 <kpoints>
  <generation param="Monkhorst-Pack">
   <v type="int" name="divisions">       4        4        4 </v>
   <v name="usershift">      0.00000000       0.00000000       0.00000000 </v>
   <v name="genvec1">      0.25000000       0.00000000       0.00000000 </v>
   <v name="genvec2">      0.00000000       0.25000000       0.00000000 </v>
   <v name="genvec3">      0.00000000       0.00000000       0.25000000 </v>
   <v name="shift">      0.50000000       0.50000000       0.50000000 </v>
  </generation>
  <varray name="kpointlist" >
   <v>       0.12500000       0.12500000       0.12500000 </v>
   <v>       0.37500000       0.12500000       0.12500000 </v>
   <v>       0.37500000       0.37500000       0.12500000 </v>
   <v>       0.37500000       0.37500000       0.37500000 </v>
  </varray>
  <varray name="weights" >
   <v>       0.12500000 </v>
   <v>       0.37500000 </v>
   <v>       0.37500000 </v>
   <v>       0.12500000 </v>
  </varray>
 </kpoints>
 <parameters>
  <separator name="general" >
   <i type="string" name="SYSTEM">Opt</i>
   <i type="logical" name="LCOMPAT"> F  </i>
  </separator>
  <separator name="electronic" >
   <i type="string" name="PREC">normal</i>
   <i name="ENMAX">    900.00000000</i>
   <i name="ENAUG">    511.36800000</i>
   <i name="EDIFF">      0.00000100</i>
   <i type="int" name="IALGO">    68</i>
   <i type="int" name="IWAVPR">    11</i>
   <i type="int" name="NBANDS">   518</i>
   <i name="NELECT">    864.00000000</i>
   <i type="int" name="TURBO">     0</i>
   <i type="int" name="IRESTART">     0</i>
   <i type="int" name="NREBOOT">     0</i>
   <i type="int" name="NMIN">     0</i>
   <i name="EREF">      0.00000000</i>
   <separator name="electronic smearing" >
    <i type="int" name="ISMEAR">     1</i>
    <i name="SIGMA">      0.20000000</i>
    <i name="KSPACING">      0.50000000</i>
    <i type="logical" name="KGAMMA"> T  </i>
   </separator>
   <separator name="electronic projectors" >
    <i type="logical" name="LREAL"> T  </i>
    <v name="ROPT">     -0.00050000</v>
    <i type="int" name="LMAXPAW">  -100</i>
    <i type="int" name="LMAXMIX">     2</i>
    <i type="logical" name="NLSPLINE"> F  </i>
   </separator>
   <separator name="electronic startup" >
    <i type="int" name="ISTART">     0</i>
    <i type="int" name="ICHARG">     2</i>
    <i type="int" name="INIWAV">     1</i>
   </separator>
   <separator name="electronic spin" >
    <i type="int" name="ISPIN">     1</i>
    <i type="logical" name="LNONCOLLINEAR"> F  </i>
    <v name="MAGMOM">      1.00000000      1.00000000      1.00000000      1.00000000      1.00000000      1.00000000      1.00000000      1.00000000      1.00000000      1.00000000      1.00000000      1.00000000      1.00000000      1.00000000      1.00000000      1.00000000      1.00000000      1.00000000      1.00000000      1.00000000
      1.00000000      1.00000000      1.00000000      1.00000000      1.00000000      1.00000000      1.00000000      1.00000000      1.00000000      1.00000000      1.00000000      1.00000000      1.00000000      1.00000000      1.00000000      1.00000000      1.00000000      1.00000000      1.00000000      1.00000000
      1.00000000      1.00000000      1.00000000      1.00000000      1.00000000      1.00000000      1.00000000      1.00000000      1.00000000      1.00000000      1.00000000      1.00000000      1.00000000      1.00000000      1.00000000      1.00000000      1.00000000      1.00000000      1.00000000      1.00000000
      1.00000000      1.00000000      1.00000000      1.00000000      1.00000000      1.00000000      1.00000000      1.00000000      1.00000000      1.00000000      1.00000000      1.00000000      1.00000000      1.00000000      1.00000000      1.00000000      1.00000000      1.00000000      1.00000000      1.00000000
      1.00000000      1.00000000      1.00000000      1.00000000      1.00000000      1.00000000      1.00000000      1.00000000      1.00000000      1.00000000      1.00000000      1.00000000      1.00000000      1.00000000      1.00000000      1.00000000      1.00000000      1.00000000      1.00000000      1.00000000
      1.00000000      1.00000000      1.00000000      1.00000000      1.00000000      1.00000000      1.00000000      1.00000000</v>
    <i name="NUPDOWN">     -1.00000000</i>
    <i type="logical" name="LSORBIT"> F  </i>
    <v name="SAXIS">      0.00000000      0.00000000      1.00000000</v>
    <i type="logical" name="LSPIRAL"> F  </i>
    <v name="QSPIRAL">      0.00000000      0.00000000      0.00000000</v>
    <i type="logical" name="LZEROZ"> F  </i>
   </separator>
   <separator name="electronic exchange-correlation" >
    <i type="logical" name="LASPH"> F  </i>
    <i type="logical" name="LMETAGGA"> F  </i>
   </separator>
   <separator name="electronic convergence" >
    <i type="int" name="NELM">   400</i>
    <i type="int" name="NELMDL">    -5</i>
    <i type="int" name="NELMIN">     2</i>
    <i name="ENINI">    900.00000000</i>
    <separator name="electronic convergence detail" >
     <i type="logical" name="LDIAG"> T  </i>
     <i type="logical" name="LSUBROT"> F  </i>
     <i name="WEIMIN">      0.00100000</i>
     <i name="EBREAK">      0.00000000</i>
     <i name="DEPER">      0.30000000</i>
     <i type="int" name="NRMM">     4</i>
     <i name="TIME">      0.40000000</i>
    </separator>
   </separator>
   <separator name="electronic mixer" >
    <i name="AMIX">      0.40000000</i>
    <i name="BMIX">      1.00000000</i>
    <i name="AMIN">      0.10000000</i>
    <i name="AMIX_MAG">      1.60000000</i>
    <i name="BMIX_MAG">      1.00000000</i>
    <separator name="electronic mixer details" >
     <i type="int" name="IMIX">     4</i>
     <i type="logical" name="MIXFIRST"> F  </i>
     <i type="int" name="MAXMIX">   -45</i>
     <i name="WC">    100.00000000</i>
     <i type="int" name="INIMIX">     1</i>
     <i type="int" name="MIXPRE">     1</i>
     <i type="int" name="MREMOVE">     5</i>
    </separator>
   </separator>
   <separator name="electronic dipolcorrection" >
    <i type="logical" name="LDIPOL"> F  </i>
    <i type="logical" name="LMONO"> F  </i>
    <i type="int" name="IDIPOL">     0</i>
    <i name="EPSILON">      1.00000000</i>
    <v name="DIPOL">   -100.00000000   -100.00000000   -100.00000000</v>
    <i name="EFIELD">      0.00000000</i>
   </separator>
  </separator>
  <separator name="grids" >
   <i type="int" name="NGX">    72</i>
   <i type="int" name="NGY">    72</i>
   <i type="int" name="NGZ">    72</i>
   <i type="int" name="NGXF">   144</i>
   <i type="int" name="NGYF">   144</i>
   <i type="int" name="NGZF">   144</i>
   <i type="logical" name="ADDGRID"> F  </i>
  </separator>
  <separator name="ionic" >
   <i type="int" name="NSW">   100</i>
   <i type="int" name="IBRION">     2</i>
   <i type="int" name="MDALGO">     0</i>
   <i type="int" name="ISIF">     3</i>
   <i name="PSTRESS">      0.00000000</i>
   <i name="EDIFFG">     -0.01000000</i>
   <i type="int" name="NFREE">     1</i>
   <i name="POTIM">      0.50000000</i>
   <i name="SMASS">     -3.00000000</i>
   <i name="SCALEE">      1.00000000</i>
  </separator>
  <separator name="ionic md" >
   <i name="TEBEG">      0.00010000</i>
   <i name="TEEND">      0.00010000</i>
   <i type="int" name="NBLOCK">     1</i>
   <i type="int" name="KBLOCK">   100</i>
   <i type="int" name="NPACO">   256</i>
   <i name="APACO">     16.00000000</i>
  </separator>
  <separator name="symmetry" >
   <i type="int" name="ISYM">     2</i>
   <i name="SYMPREC">      0.00001000</i>
  </separator>
  <separator name="dos" >
   <i type="int" name="LORBIT">     0</i>
   <v name="RWIGS">     -1.00000000</v>
   <i type="int" name="NEDOS">   301</i>
   <i name="EMIN">     10.00000000</i>
   <i name="EMAX">    -10.00000000</i>
   <i name="EFERMI">      0.00000000</i>
  </separator>
  <separator name="writing" >
   <i type="int" name="NWRITE">     2</i>
   <i type="logical" name="LWAVE"> F  </i>
   <i type="logical" name="LDOWNSAMPLE"> F  </i>
   <i type="logical" name="LCHARG"> F  </i>
   <i type="logical" name="LPARD"> F  </i>
   <i type="logical" name="LVTOT"> F  </i>
   <i type="logical" name="LVHAR"> F  </i>
   <i type="logical" name="LELF"> F  </i>
   <i type="logical" name="LOPTICS"> F  </i>
   <v name="STM">      0.00000000      0.00000000      0.00000000      0.00000000      0.00000000      0.00000000      0.00000000</v>
  </separator>
  <separator name="performance" >
   <i type="int" name="NPAR">     2</i>
   <i type="int" name="NSIM">     4</i>
   <i type="int" name="NBLK">    -1</i>
   <i type="logical" name="LPLANE"> T  </i>
   <i type="logical" name="LSCALAPACK"> T  </i>
   <i type="logical" name="LSCAAWARE"> F  </i>
   <i type="logical" name="LSCALU"> F  </i>
   <i type="logical" name="LASYNC"> F  </i>
   <i type="logical" name="LORBITALREAL"> F  </i>
  </separator>
  <separator name="miscellaneous" >
   <i type="int" name="IDIOT">     3</i>
   <i type="int" name="ISPECIAL">     0</i>
   <i type="logical" name="LMUSIC"> F  </i>
   <v name="POMASS">     55.84700000</v>
   <v name="DARWINR">      0.00000000</v>
   <v name="DARWINV">      1.00000000</v>
   <i type="logical" name="LCORR"> T  </i>
  </separator>
  <i type="logical" name="GGA_COMPAT"> T  </i>
  <i type="logical" name="LBERRY"> F  </i>
  <i type="int" name="ICORELEVEL">     0</i>
  <i type="logical" name="LDAU"> F  </i>
  <i type="int" name="I_CONSTRAINED_M">     0</i>
  <separator name="electronic exchange-correlation" >
   <i type="string" name="GGA">--</i>
   <i type="int" name="VOSKOWN">     0</i>
   <i type="logical" name="LHFCALC"> F  </i>
   <i type="string" name="PRECFOCK"></i>
   <i type="logical" name="LSYMGRAD"> F  </i>
   <i type="logical" name="LHFONE"> F  </i>
   <i type="logical" name="LRHFCALC"> F  </i>
   <i type="logical" name="LTHOMAS"> F  </i>
   <i type="logical" name="LMODELHF"> F  </i>
   <i name="ENCUT4O">     -1.00000000</i>
   <i type="int" name="EXXOEP">     0</i>
   <i type="int" name="FOURORBIT">     0</i>
   <i name="AEXX">      0.00000000</i>
   <i name="HFALPHA">      0.00000000</i>
   <i name="MCALPHA">      0.00000000</i>
   <i name="ALDAX">      1.00000000</i>
   <i name="AGGAX">      1.00000000</i>
   <i name="ALDAC">      1.00000000</i>
   <i name="AGGAC">      1.00000000</i>
   <i type="int" name="NKREDX">     1</i>
   <i type="int" name="NKREDY">     1</i>
   <i type="int" name="NKREDZ">     1</i>
   <i type="logical" name="SHIFTRED"> F  </i>
   <i type="logical" name="ODDONLY"> F  </i>
   <i type="logical" name="EVENONLY"> F  </i>
   <i type="int" name="LMAXFOCK">     0</i>
   <i type="int" name="NMAXFOCKAE">     0</i>
   <i type="logical" name="LFOCKAEDFT"> F  </i>
   <i name="HFSCREEN">      0.00000000</i>
   <i name="HFSCREENC">      0.00000000</i>
   <i type="int" name="NBANDSGWLOW">     0</i>
  </separator>
  <separator name="vdW DFT" >
   <i type="logical" name="LUSE_VDW"> F  </i>
   <i name="Zab_VDW">     -0.84910000</i>
   <i name="PARAM1">      0.12340000</i>
   <i name="PARAM2">      1.00000000</i>
   <i name="PARAM3">      0.00000000</i>
  </separator>
  <separator name="model GW" >
   <i type="int" name="MODEL_GW">     0</i>
   <i name="MODEL_EPS0">      6.13252964</i>
   <i name="MODEL_ALPHA">      1.00000000</i>
  </separator>
  <separator name="linear response parameters" >
   <i type="logical" name="LEPSILON"> F  </i>
   <i type="logical" name="LRPA"> F  </i>
   <i type="logical" name="LNABLA"> F  </i>
   <i type="logical" name="LVEL"> F  </i>
   <i type="int" name="KINTER">     0</i>
   <i name="CSHIFT">      0.10000000</i>
   <i name="OMEGAMAX">     -1.00000000</i>
   <i name="DEG_THRESHOLD">      0.00200000</i>
   <i name="RTIME">     -0.10000000</i>
   <i name="WPLASMAI">      0.00000000</i>
   <v name="DFIELD">      0.00000000      0.00000000      0.00000000</v>
   <v name="WPLASMA">      0.00000000      0.00000000      0.00000000      0.00000000      0.00000000      0.00000000      0.00000000      0.00000000      0.00000000</v>
  </separator>
  <separator name="orbital magnetization" >
   <i type="logical" name="NUCIND"> F  </i>
   <v name="MAGPOS">      0.00000000      0.00000000      0.00000000</v>
   <i type="logical" name="LNICSALL"> T  </i>
   <i type="logical" name="ORBITALMAG"> F  </i>
   <i type="logical" name="LMAGBLOCH"> F  </i>
   <i type="logical" name="LCHIMAG"> F  </i>
   <i type="logical" name="LGAUGE"> T  </i>
   <i type="int" name="MAGATOM">     0</i>
   <v name="MAGDIPOL">      0.00000000      0.00000000      0.00000000</v>
   <v name="AVECCONST">      0.00000000      0.00000000      0.00000000</v>
  </separator>
  <separator name="response functions" >
   <i type="logical" name="LADDER"> F  </i>
   <i type="logical" name="LRPAFORCE"> F  </i>
   <i type="logical" name="LFXC"> F  </i>
   <i type="logical" name="LHARTREE"> T  </i>
   <i type="int" name="IBSE">     0</i>
   <v type="int" name="KPOINT">    -1     0     0     0</v>
   <i type="logical" name="LTCTE"> F  </i>
   <i type="logical" name="LTETE"> F  </i>
   <i type="logical" name="LTRIPLET"> F  </i>
   <i type="logical" name="LFXCEPS"> F  </i>
   <i type="logical" name="LFXHEG"> F  </i>
   <i type="int" name="NATURALO">     2</i>
   <i type="logical" name="L2ORDER"> F  </i>
   <i type="logical" name="LMP2LT"> F  </i>
   <i type="logical" name="LUSEW"> F  </i>
   <i name="ENCUTGW">     -2.00000000</i>
   <i name="ENCUTGWSOFT">     -2.00000000</i>
   <i name="ENCUTLF">     -1.00000000</i>
   <i type="int" name="LMAXMP2">    -1</i>
   <i name="SCISSOR">      0.00000000</i>
   <i type="int" name="NOMEGA">     0</i>
   <i type="int" name="NOMEGAR">     0</i>
   <i type="int" name="NBANDSGW">    -1</i>
   <i type="int" name="NBANDSO">    -1</i>
   <i type="int" name="NBANDSV">    -1</i>
   <i type="int" name="NELM">   400</i>
   <i type="int" name="NELMHF">     1</i>
   <i type="int" name="DIM">     3</i>
   <i type="int" name="ANTIRES">     0</i>
   <i name="OMEGAMAX">    -30.00000000</i>
   <i name="OMEGAMIN">    -30.00000000</i>
   <i name="OMEGATL">   -200.00000000</i>
   <i type="int" name="OMEGAGRID">   140</i>
   <i name="CSHIFT">     -0.10000000</i>
   <i type="logical" name="SELFENERGY"> F  </i>
   <i type="logical" name="LSPECTRAL"> F  </i>
   <i type="logical" name="LSPECTRALGW"> F  </i>
   <i type="logical" name="LSINGLES"> F  </i>
   <i type="logical" name="LFERMIGW"> F  </i>
   <i type="logical" name="ODDONLYGW"> F  </i>
   <i type="logical" name="EVENONLYGW"> F  </i>
   <i type="int" name="NKREDLFX">     1</i>
   <i type="int" name="NKREDLFY">     1</i>
   <i type="int" name="NKREDLFZ">     1</i>
   <i type="int" name="MAXMEM">  2800</i>
   <i type="int" name="TELESCOPE">     0</i>
   <i type="int" name="TAUPAR">     1</i>
   <i type="int" name="OMEGAPAR">    -1</i>
   <i name="LAMBDA">      1.00000000</i>
  </separator>
  <separator name="External order field" >
   <i name="OFIELD_KAPPA">      0.00000000</i>
   <v name="OFIELD_K">      0.00000000      0.00000000      0.00000000</v>
   <i name="OFIELD_Q6_NEAR">      0.00000000</i>
   <i name="OFIELD_Q6_FAR">      0.00000000</i>
   <i name="OFIELD_A">      0.00000000</i>
  </separator>
 </parameters>
 <atominfo>
  <atoms>     108 </atoms>
  <types>       1 </types>
  <array name="atoms" >
   <dimension dim="1">ion</dimension>
   <field type="string">element</field>
   <field type="int">atomtype</field>
   <set>
    <rc><c>Fe</c><c>   1</c></rc>
    <rc><c>Fe</c><c>   1</c></rc>
    <rc><c>Fe</c><c>   1</c></rc>
    <rc><c>Fe</c><c>   1</c></rc>
    <rc><c>Fe</c><c>   1</c></rc>
    <rc><c>Fe</c><c>   1</c></rc>
    <rc><c>Fe</c><c>   1</c></rc>
    <rc><c>Fe</c><c>   1</c></rc>
    <rc><c>Fe</c><c>   1</c></rc>
    <rc><c>Fe</c><c>   1</c></rc>
    <rc><c>Fe</c><c>   1</c></rc>
    <rc><c>Fe</c><c>   1</c></rc>
    <rc><c>Fe</c><c>   1</c></rc>
    <rc><c>Fe</c><c>   1</c></rc>
    <rc><c>Fe</c><c>   1</c></rc>
    <rc><c>Fe</c><c>   1</c></rc>
    <rc><c>Fe</c><c>   1</c></rc>
    <rc><c>Fe</c><c>   1</c></rc>
    <rc><c>Fe</c><c>   1</c></rc>
    <rc><c>Fe</c><c>   1</c></rc>
    <rc><c>Fe</c><c>   1</c></rc>
    <rc><c>Fe</c><c>   1</c></rc>
    <rc><c>Fe</c><c>   1</c></rc>
    <rc><c>Fe</c><c>   1</c></rc>
    <rc><c>Fe</c><c>   1</c></rc>
    <rc><c>Fe</c><c>   1</c></rc>
    <rc><c>Fe</c><c>   1</c></rc>
    <rc><c>Fe</c><c>   1</c></rc>
    <rc><c>Fe</c><c>   1</c></rc>
    <rc><c>Fe</c><c>   1</c></rc>
    <rc><c>Fe</c><c>   1</c></rc>
    <rc><c>Fe</c><c>   1</c></rc>
    <rc><c>Fe</c><c>   1</c></rc>
    <rc><c>Fe</c><c>   1</c></rc>
    <rc><c>Fe</c><c>   1</c></rc>
    <rc><c>Fe</c><c>   1</c></rc>
    <rc><c>Fe</c><c>   1</c></rc>
    <rc><c>Fe</c><c>   1</c></rc>
    <rc><c>Fe</c><c>   1</c></rc>
    <rc><c>Fe</c><c>   1</c></rc>
    <rc><c>Fe</c><c>   1</c></rc>
    <rc><c>Fe</c><c>   1</c></rc>
    <rc><c>Fe</c><c>   1</c></rc>
    <rc><c>Fe</c><c>   1</c></rc>
    <rc><c>Fe</c><c>   1</c></rc>
    <rc><c>Fe</c><c>   1</c></rc>
    <rc><c>Fe</c><c>   1</c></rc>
    <rc><c>Fe</c><c>   1</c></rc>
    <rc><c>Fe</c><c>   1</c></rc>
    <rc><c>Fe</c><c>   1</c></rc>
    <rc><c>Fe</c><c>   1</c></rc>
    <rc><c>Fe</c><c>   1</c></rc>
    <rc><c>Fe</c><c>   1</c></rc>
    <rc><c>Fe</c><c>   1</c></rc>
    <rc><c>Fe</c><c>   1</c></rc>
    <rc><c>Fe</c><c>   1</c></rc>
    <rc><c>Fe</c><c>   1</c></rc>
    <rc><c>Fe</c><c>   1</c></rc>
    <rc><c>Fe</c><c>   1</c></rc>
    <rc><c>Fe</c><c>   1</c></rc>
    <rc><c>Fe</c><c>   1</c></rc>
    <rc><c>Fe</c><c>   1</c></rc>
    <rc><c>Fe</c><c>   1</c></rc>
    <rc><c>Fe</c><c>   1</c></rc>
    <rc><c>Fe</c><c>   1</c></rc>
    <rc><c>Fe</c><c>   1</c></rc>
    <rc><c>Fe</c><c>   1</c></rc>
    <rc><c>Fe</c><c>   1</c></rc>
    <rc><c>Fe</c><c>   1</c></rc>
    <rc><c>Fe</c><c>   1</c></rc>
    <rc><c>Fe</c><c>   1</c></rc>
    <rc><c>Fe</c><c>   1</c></rc>
    <rc><c>Fe</c><c>   1</c></rc>
    <rc><c>Fe</c><c>   1</c></rc>
    <rc><c>Fe</c><c>   1</c></rc>
    <rc><c>Fe</c><c>   1</c></rc>
    <rc><c>Fe</c><c>   1</c></rc>
    <rc><c>Fe</c><c>   1</c></rc>
    <rc><c>Fe</c><c>   1</c></rc>
    <rc><c>Fe</c><c>   1</c></rc>
    <rc><c>Fe</c><c>   1</c></rc>
    <rc><c>Fe</c><c>   1</c></rc>
    <rc><c>Fe</c><c>   1</c></rc>
    <rc><c>Fe</c><c>   1</c></rc>
    <rc><c>Fe</c><c>   1</c></rc>
    <rc><c>Fe</c><c>   1</c></rc>
    <rc><c>Fe</c><c>   1</c></rc>
    <rc><c>Fe</c><c>   1</c></rc>
    <rc><c>Fe</c><c>   1</c></rc>
    <rc><c>Fe</c><c>   1</c></rc>
    <rc><c>Fe</c><c>   1</c></rc>
    <rc><c>Fe</c><c>   1</c></rc>
    <rc><c>Fe</c><c>   1</c></rc>
    <rc><c>Fe</c><c>   1</c></rc>
    <rc><c>Fe</c><c>   1</c></rc>
    <rc><c>Fe</c><c>   1</c></rc>
    <rc><c>Fe</c><c>   1</c></rc>
    <rc><c>Fe</c><c>   1</c></rc>
    <rc><c>Fe</c><c>   1</c></rc>
    <rc><c>Fe</c><c>   1</c></rc>
    <rc><c>Fe</c><c>   1</c></rc>
    <rc><c>Fe</c><c>   1</c></rc>
    <rc><c>Fe</c><c>   1</c></rc>
    <rc><c>Fe</c><c>   1</c></rc>
    <rc><c>Fe</c><c>   1</c></rc>
    <rc><c>Fe</c><c>   1</c></rc>
    <rc><c>Fe</c><c>   1</c></rc>
    <rc><c>Fe</c><c>   1</c></rc>
   </set>
  </array>
  <array name="atomtypes" >
   <dimension dim="1">type</dimension>
   <field type="int">atomspertype</field>
   <field type="string">element</field>
   <field>mass</field>
   <field>valence</field>
   <field type="string">pseudopotential</field>
   <set>
    <rc><c> 108</c><c>Fe</c><c>     55.84700000</c><c>      8.00000000</c><c> PAW_PBE Fe 06Sep2000                   </c></rc>
   </set>
  </array>
 </atominfo>
 <structure name="initialpos" >
  <crystal>
   <varray name="basis" >
    <v>      10.33484705       0.00000000       0.00000000 </v>
    <v>       0.00000000      10.33484705       0.00000000 </v>
    <v>       0.00000000       0.00000000      10.33484705 </v>
   </varray>
   <i name="volume">   1103.85533447 </i>
   <varray name="rec_basis" >
    <v>       0.09676002       0.00000000       0.00000000 </v>
    <v>       0.00000000       0.09676002       0.00000000 </v>
    <v>       0.00000000       0.00000000       0.09676002 </v>
   </varray>
  </crystal>
  <varray name="positions" >
   <v>       0.00000000       0.00000000       0.00000000 </v>
   <v>       0.00000000       0.16666893       0.16666893 </v>
   <v>       0.16666893       0.00000000       0.16666893 </v>
   <v>       0.16666893       0.16666893       0.00000000 </v>
   <v>       0.33333106       0.00000000       0.00000000 </v>
   <v>       0.33333107       0.16666893       0.16666893 </v>
   <v>       0.50000000       0.00000000       0.16666894 </v>
   <v>       0.50000000       0.16666894       0.00000000 </v>
   <v>       0.66666897       0.00000000       0.00000000 </v>
   <v>       0.66666896       0.16666893       0.16666893 </v>
   <v>       0.83333104       0.00000000       0.16666893 </v>
   <v>       0.83333104       0.16666893       0.00000000 </v>
   <v>       0.00000000       0.33333106       0.00000000 </v>
   <v>       0.00000000       0.50000000       0.16666894 </v>
   <v>       0.16666893       0.33333107       0.16666893 </v>
   <v>       0.16666894       0.50000000       0.00000000 </v>
   <v>       0.33333107       0.33333107       0.00000000 </v>
   <v>       0.33333107       0.50000000       0.16666893 </v>
   <v>       0.50000000       0.33333107       0.16666893 </v>
   <v>       0.50000000       0.50000000       0.00000000 </v>
   <v>       0.66666896       0.33333107       0.00000000 </v>
   <v>       0.66666896       0.50000000       0.16666893 </v>
   <v>       0.83333104       0.33333107       0.16666893 </v>
   <v>       0.83333103       0.50000000       0.00000000 </v>
   <v>       0.00000000       0.66666897       0.00000000 </v>
   <v>       0.00000000       0.83333104       0.16666893 </v>
   <v>       0.16666893       0.66666896       0.16666893 </v>
   <v>       0.16666893       0.83333104       0.00000000 </v>
   <v>       0.33333107       0.66666896       0.00000000 </v>
   <v>       0.33333107       0.83333104       0.16666893 </v>
   <v>       0.50000000       0.66666896       0.16666893 </v>
   <v>       0.50000000       0.83333103       0.00000000 </v>
   <v>       0.66666896       0.66666896       0.00000000 </v>
   <v>       0.66666896       0.83333104       0.16666893 </v>
   <v>       0.83333104       0.66666896       0.16666893 </v>
   <v>       0.83333104       0.83333104       0.00000000 </v>
   <v>       0.00000000       0.00000000       0.33333106 </v>
   <v>       0.00000000       0.16666894       0.50000000 </v>
   <v>       0.16666894       0.00000000       0.50000000 </v>
   <v>       0.16666893       0.16666893       0.33333107 </v>
   <v>       0.33333107       0.00000000       0.33333107 </v>
   <v>       0.33333107       0.16666893       0.50000000 </v>
   <v>       0.50000000       0.00000000       0.50000000 </v>
   <v>       0.50000000       0.16666893       0.33333107 </v>
   <v>       0.66666896       0.00000000       0.33333107 </v>
   <v>       0.66666896       0.16666893       0.50000000 </v>
   <v>       0.83333103       0.00000000       0.50000000 </v>
   <v>       0.83333104       0.16666893       0.33333107 </v>
   <v>       0.00000000       0.33333107       0.33333107 </v>
   <v>       0.00000000       0.50000000       0.50000000 </v>
   <v>       0.16666893       0.33333107       0.50000000 </v>
   <v>       0.16666893       0.50000000       0.33333107 </v>
   <v>       0.33333107       0.33333107       0.33333107 </v>
   <v>       0.33333106       0.50000000       0.50000000 </v>
   <v>       0.50000000       0.33333106       0.50000000 </v>
   <v>       0.50000000       0.50000000       0.33333106 </v>
   <v>       0.66666896       0.33333107       0.33333107 </v>
   <v>       0.66666897       0.50000000       0.50000000 </v>
   <v>       0.83333104       0.33333107       0.50000000 </v>
   <v>       0.83333104       0.50000000       0.33333107 </v>
   <v>       0.00000000       0.66666896       0.33333107 </v>
   <v>       0.00000000       0.83333103       0.50000000 </v>
   <v>       0.16666893       0.66666896       0.50000000 </v>
   <v>       0.16666893       0.83333104       0.33333107 </v>
   <v>       0.33333107       0.66666896       0.33333107 </v>
   <v>       0.33333107       0.83333104       0.50000000 </v>
   <v>       0.50000000       0.66666897       0.50000000 </v>
   <v>       0.50000000       0.83333104       0.33333107 </v>
   <v>       0.66666896       0.66666896       0.33333107 </v>
   <v>       0.66666896       0.83333104       0.50000000 </v>
   <v>       0.83333104       0.66666896       0.50000000 </v>
   <v>       0.83333104       0.83333104       0.33333107 </v>
   <v>       0.00000000       0.00000000       0.66666897 </v>
   <v>       0.00000000       0.16666893       0.83333104 </v>
   <v>       0.16666893       0.00000000       0.83333104 </v>
   <v>       0.16666893       0.16666893       0.66666896 </v>
   <v>       0.33333107       0.00000000       0.66666896 </v>
   <v>       0.33333107       0.16666893       0.83333104 </v>
   <v>       0.50000000       0.00000000       0.83333103 </v>
   <v>       0.50000000       0.16666893       0.66666896 </v>
   <v>       0.66666896       0.00000000       0.66666896 </v>
   <v>       0.66666896       0.16666893       0.83333104 </v>
   <v>       0.83333104       0.00000000       0.83333104 </v>
   <v>       0.83333104       0.16666893       0.66666896 </v>
   <v>       0.00000000       0.33333107       0.66666896 </v>
   <v>       0.00000000       0.50000000       0.83333103 </v>
   <v>       0.16666893       0.33333107       0.83333104 </v>
   <v>       0.16666893       0.50000000       0.66666896 </v>
   <v>       0.33333107       0.33333107       0.66666896 </v>
   <v>       0.33333107       0.50000000       0.83333104 </v>
   <v>       0.50000000       0.33333107       0.83333104 </v>
   <v>       0.50000000       0.50000000       0.66666897 </v>
   <v>       0.66666896       0.33333107       0.66666896 </v>
   <v>       0.66666896       0.50000000       0.83333104 </v>
   <v>       0.83333104       0.33333107       0.83333104 </v>
   <v>       0.83333104       0.50000000       0.66666896 </v>
   <v>       0.00000000       0.66666896       0.66666896 </v>
   <v>       0.00000000       0.83333104       0.83333104 </v>
   <v>       0.16666893       0.66666896       0.83333104 </v>
   <v>       0.16666893       0.83333104       0.66666896 </v>
   <v>       0.33333107       0.66666896       0.66666896 </v>
   <v>       0.33333107       0.83333104       0.83333104 </v>
   <v>       0.50000000       0.66666896       0.83333104 </v>
   <v>       0.50000000       0.83333104       0.66666896 </v>
   <v>       0.66666896       0.66666896       0.66666896 </v>
   <v>       0.66666896       0.83333104       0.83333104 </v>
   <v>       0.83333104       0.66666896       0.83333104 </v>
   <v>       0.83333104       0.83333104       0.66666896 </v>
  </varray>
 </structure>
 <calculation>
  <scstep>
   <time name="dav">   68.07   68.15</time>
   <time name="total">   68.45   68.53</time>
   <energy>
    <i name="alphaZ">   7300.31925852 </i>
    <i name="ewald"> -66232.83996889 </i>
    <i name="hartreedc"> -11197.02572337 </i>
    <i name="XCdc">    446.63038354 </i>
    <i name="pawpsdc">  51723.88885462 </i>
    <i name="pawaedc"> -52548.28121372 </i>
    <i name="eentropy">      0.01176497 </i>
    <i name="bandstr">  17077.69587372 </i>
    <i name="atom">  64202.58743598 </i>
    <i name="e_fr_energy">  10772.98666538 </i>
    <i name="e_wo_entrp">  10772.97490041 </i>
    <i name="e_0_energy">  10772.98274372 </i>
   </energy>
  </scstep>
  <scstep>
   <time name="dav">   69.04   69.06</time>
   <time name="total">   69.05   69.07</time>
   <energy>
    <i name="e_fr_energy">    575.06410423 </i>
    <i name="e_wo_entrp">    575.04470507 </i>
    <i name="e_0_energy">    575.05763785 </i>
   </energy>
  </scstep>
  <scstep>
   <time name="dav">   68.51   68.52</time>
   <time name="total">   68.51   68.53</time>
   <energy>
    <i name="e_fr_energy">   -797.07048539 </i>
    <i name="e_wo_entrp">   -797.09071615 </i>
    <i name="e_0_energy">   -797.07722897 </i>
   </energy>
  </scstep>
  <scstep>
   <time name="dav">  112.00  112.03</time>
   <time name="total">  112.00  112.04</time>
   <energy>
    <i name="e_fr_energy">  -1024.37977260 </i>
    <i name="e_wo_entrp">  -1024.30520907 </i>
    <i name="e_0_energy">  -1024.35491809 </i>
   </energy>
  </scstep>
  <scstep>
   <time name="dav">  100.98  101.00</time>
   <time name="total">  103.90  103.92</time>
   <energy>
    <i name="e_fr_energy">  -1045.07741712 </i>
    <i name="e_wo_entrp">  -1044.96438200 </i>
    <i name="e_0_energy">  -1045.03973875 </i>
   </energy>
  </scstep>
  <scstep>
   <time name="diag">    9.70    9.71</time>
   <time name="diis">   27.09   27.10</time>
   <time name="orth">    3.13    3.13</time>
   <time name="total">   43.36   43.37</time>
   <energy>
    <i name="e_fr_energy">   -877.02626206 </i>
    <i name="e_wo_entrp">   -876.97286277 </i>
    <i name="e_0_energy">   -877.00846230 </i>
   </energy>
  </scstep>
  <scstep>
   <time name="diag">    9.92    9.92</time>
   <time name="diis">   29.66   29.67</time>
   <time name="orth">    3.03    3.03</time>
   <time name="total">   45.96   45.98</time>
   <energy>
    <i name="e_fr_energy">   -880.20960649 </i>
    <i name="e_wo_entrp">   -880.06723850 </i>
    <i name="e_0_energy">   -880.16215049 </i>
   </energy>
  </scstep>
  <scstep>
   <time name="diag">    9.50    9.50</time>
   <time name="diis">   29.25   29.26</time>
   <time name="orth">    3.06    3.06</time>
   <time name="total">   45.18   45.19</time>
   <energy>
    <i name="e_fr_energy">   -880.34785977 </i>
    <i name="e_wo_entrp">   -880.22215955 </i>
    <i name="e_0_energy">   -880.30595970 </i>
   </energy>
  </scstep>
  <scstep>
   <time name="diag">    9.55    9.55</time>
   <time name="diis">   31.99   32.00</time>
   <time name="orth">    3.03    3.03</time>
   <time name="total">   47.95   47.96</time>
   <energy>
    <i name="e_fr_energy">   -879.61190286 </i>
    <i name="e_wo_entrp">   -879.53689675 </i>
    <i name="e_0_energy">   -879.58690082 </i>
   </energy>
  </scstep>
  <scstep>
   <time name="diag">    9.58    9.58</time>
   <time name="diis">   36.52   36.53</time>
   <time name="orth">    3.08    3.08</time>
   <time name="total">   52.53   52.55</time>
   <energy>
    <i name="e_fr_energy">   -879.50118129 </i>
    <i name="e_wo_entrp">   -879.41886679 </i>
    <i name="e_0_energy">   -879.47374312 </i>
   </energy>
  </scstep>
  <scstep>
   <time name="diag">    9.57    9.57</time>
   <time name="diis">   36.26   36.28</time>
   <time name="orth">    3.09    3.09</time>
   <time name="total">   52.29   52.31</time>
   <energy>
    <i name="e_fr_energy">   -879.51395718 </i>
    <i name="e_wo_entrp">   -879.43363304 </i>
    <i name="e_0_energy">   -879.48718247 </i>
   </energy>
  </scstep>
  <scstep>
   <time name="diag">    9.59    9.59</time>
   <time name="diis">   29.52   29.53</time>
   <time name="orth">    3.12    3.12</time>
   <time name="total">   45.58   45.59</time>
   <energy>
    <i name="e_fr_energy">   -879.50861935 </i>
    <i name="e_wo_entrp">   -879.43173152 </i>
    <i name="e_0_energy">   -879.48299007 </i>
   </energy>
  </scstep>
  <scstep>
   <time name="diag">    9.50    9.50</time>
   <time name="diis">   37.12   37.13</time>
   <time name="orth">    3.07    3.07</time>
   <time name="total">   53.04   53.05</time>
   <energy>
    <i name="e_fr_energy">   -879.50958453 </i>
    <i name="e_wo_entrp">   -879.43405093 </i>
    <i name="e_0_energy">   -879.48440667 </i>
   </energy>
  </scstep>
  <scstep>
   <time name="diag">    9.80    9.80</time>
   <time name="diis">   31.47   31.47</time>
   <time name="orth">    3.02    3.02</time>
   <time name="total">   47.65   47.66</time>
   <energy>
    <i name="e_fr_energy">   -879.50960375 </i>
    <i name="e_wo_entrp">   -879.43425619 </i>
    <i name="e_0_energy">   -879.48448789 </i>
   </energy>
  </scstep>
  <scstep>
   <time name="diag">    9.75    9.75</time>
   <time name="diis">   39.91   39.92</time>
   <time name="orth">    3.12    3.12</time>
   <time name="total">   55.98   55.99</time>
   <energy>
    <i name="e_fr_energy">   -879.50962380 </i>
    <i name="e_wo_entrp">   -879.43467278 </i>
    <i name="e_0_energy">   -879.48464013 </i>
   </energy>
  </scstep>
  <scstep>
   <time name="diag">    9.65    9.65</time>
   <time name="diis">   29.70   29.71</time>
   <time name="orth">    3.08    3.08</time>
   <time name="total">   45.63   45.64</time>
   <energy>
    <i name="e_fr_energy">   -879.50959449 </i>
    <i name="e_wo_entrp">   -879.43497003 </i>
    <i name="e_0_energy">   -879.48471967 </i>
   </energy>
  </scstep>
  <scstep>
   <time name="diag">    9.76    9.76</time>
   <time name="diis">   21.89   21.90</time>
   <time name="orth">    3.12    3.12</time>
   <time name="total">   38.20   38.21</time>
   <energy>
    <i name="e_fr_energy">   -879.50955795 </i>
    <i name="e_wo_entrp">   -879.43528460 </i>
    <i name="e_0_energy">   -879.48480016 </i>
   </energy>
  </scstep>
  <scstep>
   <time name="diag">    9.76    9.77</time>
   <time name="diis">   19.06   19.06</time>
   <time name="orth">    3.14    3.14</time>
   <time name="total">   35.27   35.28</time>
   <energy>
    <i name="e_fr_energy">   -879.50953066 </i>
    <i name="e_wo_entrp">   -879.43556841 </i>
    <i name="e_0_energy">   -879.48487658 </i>
   </energy>
  </scstep>
  <scstep>
   <time name="diag">    9.26    9.27</time>
   <time name="diis">   18.35   18.35</time>
   <time name="orth">    3.03    3.03</time>
   <time name="total">   33.87   33.87</time>
   <energy>
    <i name="e_fr_energy">   -879.50950184 </i>
    <i name="e_wo_entrp">   -879.43588758 </i>
    <i name="e_0_energy">   -879.48496375 </i>
   </energy>
  </scstep>
  <scstep>
   <time name="diag">    9.33    9.33</time>
   <time name="diis">   17.81   17.82</time>
   <time name="orth">    3.03    3.03</time>
   <time name="total">   33.40   33.41</time>
   <energy>
    <i name="e_fr_energy">   -879.50948600 </i>
    <i name="e_wo_entrp">   -879.43607027 </i>
    <i name="e_0_energy">   -879.48501409 </i>
   </energy>
  </scstep>
  <scstep>
   <time name="diag">    8.43    8.43</time>
   <time name="diis">   14.22   14.22</time>
   <time name="orth">    2.75    2.75</time>
   <time name="total">   28.20   28.20</time>
   <energy>
    <i name="e_fr_energy">   -879.50947458 </i>
    <i name="e_wo_entrp">   -879.43621351 </i>
    <i name="e_0_energy">   -879.48505422 </i>
   </energy>
  </scstep>
  <scstep>
   <time name="diag">    8.04    8.04</time>
   <time name="diis">   14.35   14.35</time>
   <time name="orth">    2.75    2.75</time>
   <time name="total">   27.93   27.93</time>
   <energy>
    <i name="e_fr_energy">   -879.50945638 </i>
    <i name="e_wo_entrp">   -879.43642143 </i>
    <i name="e_0_energy">   -879.48511140 </i>
   </energy>
  </scstep>
  <scstep>
   <time name="diag">    8.07    8.07</time>
   <time name="diis">   12.82   12.82</time>
   <time name="orth">    2.74    2.74</time>
   <time name="total">   26.44   26.44</time>
   <energy>
    <i name="e_fr_energy">   -879.50944302 </i>
    <i name="e_wo_entrp">   -879.43657831 </i>
    <i name="e_0_energy">   -879.48515478 </i>
   </energy>
  </scstep>
  <scstep>
   <time name="diag">    8.28    8.28</time>
   <time name="diis">   12.67   12.67</time>
   <time name="orth">    2.72    2.72</time>
   <time name="total">   26.39   26.39</time>
   <energy>
    <i name="e_fr_energy">   -879.50943374 </i>
    <i name="e_wo_entrp">   -879.43669262 </i>
    <i name="e_0_energy">   -879.48518670 </i>
   </energy>
  </scstep>
  <scstep>
   <time name="diag">    8.19    8.19</time>
   <time name="diis">   13.01   13.01</time>
   <time name="orth">    2.78    2.78</time>
   <time name="total">   26.65   26.65</time>
   <energy>
    <i name="e_fr_energy">   -879.50942656 </i>
    <i name="e_wo_entrp">   -879.43678418 </i>
    <i name="e_0_energy">   -879.48521244 </i>
   </energy>
  </scstep>
  <scstep>
   <time name="diag">    7.89    7.89</time>
   <time name="diis">   12.61   12.61</time>
   <time name="orth">    2.78    2.78</time>
   <time name="total">   26.10   26.10</time>
   <energy>
    <i name="e_fr_energy">   -879.50942026 </i>
    <i name="e_wo_entrp">   -879.43686693 </i>
    <i name="e_0_energy">   -879.48523582 </i>
   </energy>
  </scstep>
  <scstep>
   <time name="diag">    7.97    7.97</time>
   <time name="diis">   12.11   12.11</time>
   <time name="orth">    2.78    2.78</time>
   <time name="total">   25.71   25.71</time>
   <energy>
    <i name="e_fr_energy">   -879.50941468 </i>
    <i name="e_wo_entrp">   -879.43694087 </i>
    <i name="e_0_energy">   -879.48525675 </i>
   </energy>
  </scstep>
  <scstep>
   <time name="diag">    8.27    8.27</time>
   <time name="diis">   11.40   11.40</time>
   <time name="orth">    2.74    2.74</time>
   <time name="total">   25.26   25.26</time>
   <energy>
    <i name="e_fr_energy">   -879.50940953 </i>
    <i name="e_wo_entrp">   -879.43700999 </i>
    <i name="e_0_energy">   -879.48527635 </i>
   </energy>
  </scstep>
  <scstep>
   <time name="diag">    8.27    8.27</time>
   <time name="diis">   11.78   11.78</time>
   <time name="orth">    2.68    2.68</time>
   <time name="total">   25.46   25.46</time>
   <energy>
    <i name="e_fr_energy">   -879.50940482 </i>
    <i name="e_wo_entrp">   -879.43707294 </i>
    <i name="e_0_energy">   -879.48529420 </i>
   </energy>
  </scstep>
  <scstep>
   <time name="diag">    8.07    8.07</time>
   <time name="diis">   11.47   11.47</time>
   <time name="orth">    2.78    2.78</time>
   <time name="total">   25.15   25.15</time>
   <energy>
    <i name="e_fr_energy">   -879.50940042 </i>
    <i name="e_wo_entrp">   -879.43713184 </i>
    <i name="e_0_energy">   -879.48531089 </i>
   </energy>
  </scstep>
  <scstep>
   <time name="diag">    7.84    7.84</time>
   <time name="diis">   11.36   11.36</time>
   <time name="orth">    2.78    2.78</time>
   <time name="total">   24.80   24.80</time>
   <energy>
    <i name="e_fr_energy">   -879.50939639 </i>
    <i name="e_wo_entrp">   -879.43718607 </i>
    <i name="e_0_energy">   -879.48532628 </i>
   </energy>
  </scstep>
  <scstep>
   <time name="diag">    8.20    8.20</time>
   <time name="diis">   10.59   10.59</time>
   <time name="orth">    2.78    2.78</time>
   <time name="total">   24.41   24.41</time>
   <energy>
    <i name="e_fr_energy">   -879.50939261 </i>
    <i name="e_wo_entrp">   -879.43723675 </i>
    <i name="e_0_energy">   -879.48534065 </i>
   </energy>
  </scstep>
  <scstep>
   <time name="diag">    8.26    8.26</time>
   <time name="diis">   10.84   10.84</time>
   <time name="orth">    2.71    2.71</time>
   <time name="total">   24.54   24.54</time>
   <energy>
    <i name="e_fr_energy">   -879.50938913 </i>
    <i name="e_wo_entrp">   -879.43728354 </i>
    <i name="e_0_energy">   -879.48535393 </i>
   </energy>
  </scstep>
  <scstep>
   <time name="diag">    8.15    8.15</time>
   <time name="diis">   10.96   10.96</time>
   <time name="orth">    2.78    2.78</time>
   <time name="total">   24.62   24.62</time>
   <energy>
    <i name="e_fr_energy">   -879.50938588 </i>
    <i name="e_wo_entrp">   -879.43732720 </i>
    <i name="e_0_energy">   -879.48536632 </i>
   </energy>
  </scstep>
  <scstep>
   <time name="diag">    7.82    7.82</time>
   <time name="diis">   10.86   10.86</time>
   <time name="orth">    2.78    2.77</time>
   <time name="total">   24.12   24.12</time>
   <energy>
    <i name="e_fr_energy">   -879.50938290 </i>
    <i name="e_wo_entrp">   -879.43736732 </i>
    <i name="e_0_energy">   -879.48537771 </i>
   </energy>
  </scstep>
  <scstep>
   <time name="diag">    7.92    7.92</time>
   <time name="diis">   10.43   10.43</time>
   <time name="orth">    2.73    2.73</time>
   <time name="total">   23.82   23.82</time>
   <energy>
    <i name="e_fr_energy">   -879.50938012 </i>
    <i name="e_wo_entrp">   -879.43740471 </i>
    <i name="e_0_energy">   -879.48538831 </i>
   </energy>
  </scstep>
  <scstep>
   <time name="diag">    7.98    7.98</time>
   <time name="diis">   10.33   10.33</time>
   <time name="orth">    2.70    2.70</time>
   <time name="total">   23.77   23.77</time>
   <energy>
    <i name="e_fr_energy">   -879.50937756 </i>
    <i name="e_wo_entrp">   -879.43743936 </i>
    <i name="e_0_energy">   -879.48539816 </i>
   </energy>
  </scstep>
  <scstep>
   <time name="diag">    7.93    7.93</time>
   <time name="diis">   10.47   10.47</time>
   <time name="orth">    2.75    2.75</time>
   <time name="total">   23.94   23.94</time>
   <energy>
    <i name="e_fr_energy">   -879.50937521 </i>
    <i name="e_wo_entrp">   -879.43747160 </i>
    <i name="e_0_energy">   -879.48540734 </i>
   </energy>
  </scstep>
  <scstep>
   <time name="diag">    8.05    8.05</time>
   <time name="diis">   10.75   10.75</time>
   <time name="orth">    2.75    2.75</time>
   <time name="total">   24.34   24.35</time>
   <energy>
    <i name="e_fr_energy">   -879.50937304 </i>
    <i name="e_wo_entrp">   -879.43750141 </i>
    <i name="e_0_energy">   -879.48541583 </i>
   </energy>
  </scstep>
  <scstep>
   <time name="diag">    7.95    7.95</time>
   <time name="diis">   10.38   10.38</time>
   <time name="orth">    2.78    2.78</time>
   <time name="total">   23.98   23.98</time>
   <energy>
    <i name="e_fr_energy">   -879.50937102 </i>
    <i name="e_wo_entrp">   -879.43752881 </i>
    <i name="e_0_energy">   -879.48542362 </i>
   </energy>
  </scstep>
  <scstep>
   <time name="diag">    8.27    8.27</time>
   <time name="diis">    9.95    9.95</time>
   <time name="orth">    2.71    2.71</time>
   <time name="total">   23.68   23.68</time>
   <energy>
    <i name="e_fr_energy">   -879.50936917 </i>
    <i name="e_wo_entrp">   -879.43755397 </i>
    <i name="e_0_energy">   -879.48543077 </i>
   </energy>
  </scstep>
  <scstep>
   <time name="diag">    8.28    8.28</time>
   <time name="diis">   10.37   10.37</time>
   <time name="orth">    2.78    2.78</time>
   <time name="total">   24.16   24.16</time>
   <energy>
    <i name="e_fr_energy">   -879.50936746 </i>
    <i name="e_wo_entrp">   -879.43757725 </i>
    <i name="e_0_energy">   -879.48543739 </i>
   </energy>
  </scstep>
  <scstep>
   <time name="diag">    7.88    7.88</time>
   <time name="diis">   10.24   10.24</time>
   <time name="orth">    2.78    2.78</time>
   <time name="total">   23.77   23.77</time>
   <energy>
    <i name="e_fr_energy">   -879.50936588 </i>
    <i name="e_wo_entrp">   -879.43759864 </i>
    <i name="e_0_energy">   -879.48544347 </i>
   </energy>
  </scstep>
  <scstep>
   <time name="diag">    8.12    8.12</time>
   <time name="diis">    9.83    9.83</time>
   <time name="orth">    2.78    2.78</time>
   <time name="total">   23.61   23.61</time>
   <energy>
    <i name="e_fr_energy">   -879.50936442 </i>
    <i name="e_wo_entrp">   -879.43761792 </i>
    <i name="e_0_energy">   -879.48544892 </i>
   </energy>
  </scstep>
  <scstep>
   <time name="diag">    8.27    8.27</time>
   <time name="diis">   10.01   10.01</time>
   <time name="orth">    2.70    2.70</time>
   <time name="total">   23.75   23.75</time>
   <energy>
    <i name="e_fr_energy">   -879.50936307 </i>
    <i name="e_wo_entrp">   -879.43763593 </i>
    <i name="e_0_energy">   -879.48545402 </i>
   </energy>
  </scstep>
  <scstep>
   <time name="diag">    8.18    8.18</time>
   <time name="diis">   10.29   10.29</time>
   <time name="orth">    2.78    2.78</time>
   <time name="total">   24.02   24.02</time>
   <energy>
    <i name="e_fr_energy">   -879.50936188 </i>
    <i name="e_wo_entrp">   -879.43765303 </i>
    <i name="e_0_energy">   -879.48545893 </i>
   </energy>
  </scstep>
  <scstep>
   <time name="diag">    7.80    7.80</time>
   <time name="diis">   10.25   10.25</time>
   <time name="orth">    2.78    2.78</time>
   <time name="total">   23.70   23.70</time>
   <energy>
    <i name="e_fr_energy">   -879.50936073 </i>
    <i name="e_wo_entrp">   -879.43766791 </i>
    <i name="e_0_energy">   -879.48546312 </i>
   </energy>
  </scstep>
  <scstep>
   <time name="diag">    8.27    8.27</time>
   <time name="diis">   10.48   10.48</time>
   <time name="orth">    2.72    2.72</time>
   <time name="total">   24.25   24.25</time>
   <energy>
    <i name="e_fr_energy">   -879.50935968 </i>
    <i name="e_wo_entrp">   -879.43768162 </i>
    <i name="e_0_energy">   -879.48546699 </i>
   </energy>
  </scstep>
  <scstep>
   <time name="diag">    8.27    8.27</time>
   <time name="diis">   10.55   10.55</time>
   <time name="orth">    2.72    2.72</time>
   <time name="total">   21.86   21.86</time>
   <energy>
    <i name="alphaZ">   7300.31925852 </i>
    <i name="ewald"> -66232.83996889 </i>
    <i name="hartreedc">  -9349.44716660 </i>
    <i name="XCdc">    360.26720096 </i>
    <i name="pawpsdc">  58041.59313976 </i>
    <i name="pawaedc"> -58976.52107091 </i>
    <i name="eentropy">     -0.07166447 </i>
    <i name="bandstr">   3774.60347692 </i>
    <i name="atom">  64202.58743598 </i>
    <i name="e_fr_energy">   -879.50935871 </i>
    <i name="e_wo_entrp">   -879.43769425 </i>
    <i name="e_0_energy">   -879.48547056 </i>
   </energy>
  </scstep>
  <structure>
   <crystal>
    <varray name="basis" >
     <v>      10.33484705       0.00000000       0.00000000 </v>
     <v>       0.00000000      10.33484705       0.00000000 </v>
     <v>       0.00000000       0.00000000      10.33484705 </v>
    </varray>
    <i name="volume">   1103.85533447 </i>
    <varray name="rec_basis" >
     <v>       0.09676002       0.00000000       0.00000000 </v>
     <v>       0.00000000       0.09676002       0.00000000 </v>
     <v>       0.00000000       0.00000000       0.09676002 </v>
    </varray>
   </crystal>
   <varray name="positions" >
    <v>       0.00000000       0.00000000       0.00000000 </v>
    <v>       0.00000000       0.16666893       0.16666893 </v>
    <v>       0.16666893       0.00000000       0.16666893 </v>
    <v>       0.16666893       0.16666893       0.00000000 </v>
    <v>       0.33333106       0.00000000       0.00000000 </v>
    <v>       0.33333107       0.16666893       0.16666893 </v>
    <v>       0.50000000       0.00000000       0.16666894 </v>
    <v>       0.50000000       0.16666894       0.00000000 </v>
    <v>       0.66666897       0.00000000       0.00000000 </v>
    <v>       0.66666896       0.16666893       0.16666893 </v>
    <v>       0.83333104       0.00000000       0.16666893 </v>
    <v>       0.83333104       0.16666893       0.00000000 </v>
    <v>       0.00000000       0.33333106       0.00000000 </v>
    <v>       0.00000000       0.50000000       0.16666894 </v>
    <v>       0.16666893       0.33333107       0.16666893 </v>
    <v>       0.16666894       0.50000000       0.00000000 </v>
    <v>       0.33333107       0.33333107       0.00000000 </v>
    <v>       0.33333107       0.50000000       0.16666893 </v>
    <v>       0.50000000       0.33333107       0.16666893 </v>
    <v>       0.50000000       0.50000000       0.00000000 </v>
    <v>       0.66666896       0.33333107       0.00000000 </v>
    <v>       0.66666896       0.50000000       0.16666893 </v>
    <v>       0.83333104       0.33333107       0.16666893 </v>
    <v>       0.83333103       0.50000000       0.00000000 </v>
    <v>       0.00000000       0.66666897       0.00000000 </v>
    <v>       0.00000000       0.83333104       0.16666893 </v>
    <v>       0.16666893       0.66666896       0.16666893 </v>
    <v>       0.16666893       0.83333104       0.00000000 </v>
    <v>       0.33333107       0.66666896       0.00000000 </v>
    <v>       0.33333107       0.83333104       0.16666893 </v>
    <v>       0.50000000       0.66666896       0.16666893 </v>
    <v>       0.50000000       0.83333103       0.00000000 </v>
    <v>       0.66666896       0.66666896       0.00000000 </v>
    <v>       0.66666896       0.83333104       0.16666893 </v>
    <v>       0.83333104       0.66666896       0.16666893 </v>
    <v>       0.83333104       0.83333104       0.00000000 </v>
    <v>       0.00000000       0.00000000       0.33333106 </v>
    <v>       0.00000000       0.16666894       0.50000000 </v>
    <v>       0.16666894       0.00000000       0.50000000 </v>
    <v>       0.16666893       0.16666893       0.33333107 </v>
    <v>       0.33333107       0.00000000       0.33333107 </v>
    <v>       0.33333107       0.16666893       0.50000000 </v>
    <v>       0.50000000       0.00000000       0.50000000 </v>
    <v>       0.50000000       0.16666893       0.33333107 </v>
    <v>       0.66666896       0.00000000       0.33333107 </v>
    <v>       0.66666896       0.16666893       0.50000000 </v>
    <v>       0.83333103       0.00000000       0.50000000 </v>
    <v>       0.83333104       0.16666893       0.33333107 </v>
    <v>       0.00000000       0.33333107       0.33333107 </v>
    <v>       0.00000000       0.50000000       0.50000000 </v>
    <v>       0.16666893       0.33333107       0.50000000 </v>
    <v>       0.16666893       0.50000000       0.33333107 </v>
    <v>       0.33333107       0.33333107       0.33333107 </v>
    <v>       0.33333106       0.50000000       0.50000000 </v>
    <v>       0.50000000       0.33333106       0.50000000 </v>
    <v>       0.50000000       0.50000000       0.33333106 </v>
    <v>       0.66666896       0.33333107       0.33333107 </v>
    <v>       0.66666897       0.50000000       0.50000000 </v>
    <v>       0.83333104       0.33333107       0.50000000 </v>
    <v>       0.83333104       0.50000000       0.33333107 </v>
    <v>       0.00000000       0.66666896       0.33333107 </v>
    <v>       0.00000000       0.83333103       0.50000000 </v>
    <v>       0.16666893       0.66666896       0.50000000 </v>
    <v>       0.16666893       0.83333104       0.33333107 </v>
    <v>       0.33333107       0.66666896       0.33333107 </v>
    <v>       0.33333107       0.83333104       0.50000000 </v>
    <v>       0.50000000       0.66666897       0.50000000 </v>
    <v>       0.50000000       0.83333104       0.33333107 </v>
    <v>       0.66666896       0.66666896       0.33333107 </v>
    <v>       0.66666896       0.83333104       0.50000000 </v>
    <v>       0.83333104       0.66666896       0.50000000 </v>
    <v>       0.83333104       0.83333104       0.33333107 </v>
    <v>       0.00000000       0.00000000       0.66666897 </v>
    <v>       0.00000000       0.16666893       0.83333104 </v>
    <v>       0.16666893       0.00000000       0.83333104 </v>
    <v>       0.16666893       0.16666893       0.66666896 </v>
    <v>       0.33333107       0.00000000       0.66666896 </v>
    <v>       0.33333107       0.16666893       0.83333104 </v>
    <v>       0.50000000       0.00000000       0.83333103 </v>
    <v>       0.50000000       0.16666893       0.66666896 </v>
    <v>       0.66666896       0.00000000       0.66666896 </v>
    <v>       0.66666896       0.16666893       0.83333104 </v>
    <v>       0.83333104       0.00000000       0.83333104 </v>
    <v>       0.83333104       0.16666893       0.66666896 </v>
    <v>       0.00000000       0.33333107       0.66666896 </v>
    <v>       0.00000000       0.50000000       0.83333103 </v>
    <v>       0.16666893       0.33333107       0.83333104 </v>
    <v>       0.16666893       0.50000000       0.66666896 </v>
    <v>       0.33333107       0.33333107       0.66666896 </v>
    <v>       0.33333107       0.50000000       0.83333104 </v>
    <v>       0.50000000       0.33333107       0.83333104 </v>
    <v>       0.50000000       0.50000000       0.66666897 </v>
    <v>       0.66666896       0.33333107       0.66666896 </v>
    <v>       0.66666896       0.50000000       0.83333104 </v>
    <v>       0.83333104       0.33333107       0.83333104 </v>
    <v>       0.83333104       0.50000000       0.66666896 </v>
    <v>       0.00000000       0.66666896       0.66666896 </v>
    <v>       0.00000000       0.83333104       0.83333104 </v>
    <v>       0.16666893       0.66666896       0.83333104 </v>
    <v>       0.16666893       0.83333104       0.66666896 </v>
    <v>       0.33333107       0.66666896       0.66666896 </v>
    <v>       0.33333107       0.83333104       0.83333104 </v>
    <v>       0.50000000       0.66666896       0.83333104 </v>
    <v>       0.50000000       0.83333104       0.66666896 </v>
    <v>       0.66666896       0.66666896       0.66666896 </v>
    <v>       0.66666896       0.83333104       0.83333104 </v>
    <v>       0.83333104       0.66666896       0.83333104 </v>
    <v>       0.83333104       0.83333104       0.66666896 </v>
   </varray>
  </structure>
  <varray name="forces" >
   <v>       0.00000000      -0.00000000      -0.00000000 </v>
   <v>      -0.00000000      -0.00000000      -0.00000000 </v>
   <v>      -0.00000000      -0.00000000       0.00000000 </v>
   <v>      -0.00000000      -0.00000000      -0.00000000 </v>
   <v>      -0.00000000       0.00000000       0.00000000 </v>
   <v>      -0.00000000      -0.00000000       0.00000000 </v>
   <v>      -0.00000000       0.00000000      -0.00000000 </v>
   <v>      -0.00000000       0.00000000      -0.00000000 </v>
   <v>       0.00000000      -0.00000000       0.00000000 </v>
   <v>       0.00000000       0.00000000       0.00000000 </v>
   <v>       0.00000000       0.00000000      -0.00000000 </v>
   <v>      -0.00000000       0.00000000       0.00000000 </v>
   <v>      -0.00000000       0.00000000       0.00000000 </v>
   <v>       0.00000000      -0.00000000      -0.00000000 </v>
   <v>      -0.00000000       0.00000000       0.00000000 </v>
   <v>       0.00000000      -0.00000000      -0.00000000 </v>
   <v>       0.00000000       0.00000000       0.00000000 </v>
   <v>      -0.00000000      -0.00000000       0.00000000 </v>
   <v>       0.00000000      -0.00000000      -0.00000000 </v>
   <v>       0.00000000       0.00000000      -0.00000000 </v>
   <v>       0.00000000       0.00000000      -0.00000000 </v>
   <v>       0.00000000       0.00000000       0.00000000 </v>
   <v>       0.00000000      -0.00000000       0.00000000 </v>
   <v>      -0.00000000      -0.00000000      -0.00000000 </v>
   <v>      -0.00000000      -0.00000000      -0.00000000 </v>
   <v>       0.00000000       0.00000000       0.00000000 </v>
   <v>      -0.00000000      -0.00000000       0.00000000 </v>
   <v>       0.00000000       0.00000000       0.00000000 </v>
   <v>      -0.00000000      -0.00000000       0.00000000 </v>
   <v>      -0.00000000       0.00000000      -0.00000000 </v>
   <v>      -0.00000000       0.00000000      -0.00000000 </v>
   <v>      -0.00000000       0.00000000      -0.00000000 </v>
   <v>       0.00000000      -0.00000000       0.00000000 </v>
   <v>      -0.00000000       0.00000000      -0.00000000 </v>
   <v>       0.00000000       0.00000000       0.00000000 </v>
   <v>      -0.00000000       0.00000000       0.00000000 </v>
   <v>      -0.00000000      -0.00000000       0.00000000 </v>
   <v>       0.00000000      -0.00000000       0.00000000 </v>
   <v>       0.00000000      -0.00000000       0.00000000 </v>
   <v>       0.00000000      -0.00000000      -0.00000000 </v>
   <v>       0.00000000       0.00000000      -0.00000000 </v>
   <v>       0.00000000      -0.00000000      -0.00000000 </v>
   <v>       0.00000000      -0.00000000      -0.00000000 </v>
   <v>      -0.00000000       0.00000000       0.00000000 </v>
   <v>       0.00000000       0.00000000      -0.00000000 </v>
   <v>       0.00000000       0.00000000      -0.00000000 </v>
   <v>      -0.00000000      -0.00000000      -0.00000000 </v>
   <v>      -0.00000000       0.00000000      -0.00000000 </v>
   <v>      -0.00000000       0.00000000      -0.00000000 </v>
   <v>       0.00000000      -0.00000000       0.00000000 </v>
   <v>      -0.00000000       0.00000000       0.00000000 </v>
   <v>       0.00000000      -0.00000000       0.00000000 </v>
   <v>      -0.00000000       0.00000000      -0.00000000 </v>
   <v>       0.00000000      -0.00000000      -0.00000000 </v>
   <v>       0.00000000      -0.00000000      -0.00000000 </v>
   <v>       0.00000000      -0.00000000       0.00000000 </v>
   <v>       0.00000000       0.00000000       0.00000000 </v>
   <v>      -0.00000000       0.00000000      -0.00000000 </v>
   <v>      -0.00000000      -0.00000000       0.00000000 </v>
   <v>      -0.00000000      -0.00000000      -0.00000000 </v>
   <v>       0.00000000       0.00000000       0.00000000 </v>
   <v>       0.00000000       0.00000000       0.00000000 </v>
   <v>       0.00000000      -0.00000000       0.00000000 </v>
   <v>      -0.00000000       0.00000000      -0.00000000 </v>
   <v>      -0.00000000      -0.00000000      -0.00000000 </v>
   <v>       0.00000000       0.00000000      -0.00000000 </v>
   <v>      -0.00000000       0.00000000      -0.00000000 </v>
   <v>      -0.00000000      -0.00000000       0.00000000 </v>
   <v>       0.00000000      -0.00000000      -0.00000000 </v>
   <v>       0.00000000      -0.00000000      -0.00000000 </v>
   <v>      -0.00000000       0.00000000       0.00000000 </v>
   <v>      -0.00000000       0.00000000       0.00000000 </v>
   <v>      -0.00000000      -0.00000000      -0.00000000 </v>
   <v>       0.00000000      -0.00000000       0.00000000 </v>
   <v>       0.00000000      -0.00000000      -0.00000000 </v>
   <v>      -0.00000000      -0.00000000       0.00000000 </v>
   <v>       0.00000000       0.00000000      -0.00000000 </v>
   <v>      -0.00000000      -0.00000000       0.00000000 </v>
   <v>      -0.00000000       0.00000000       0.00000000 </v>
   <v>       0.00000000      -0.00000000      -0.00000000 </v>
   <v>       0.00000000       0.00000000       0.00000000 </v>
   <v>      -0.00000000       0.00000000      -0.00000000 </v>
   <v>      -0.00000000      -0.00000000       0.00000000 </v>
   <v>       0.00000000      -0.00000000       0.00000000 </v>
   <v>       0.00000000       0.00000000       0.00000000 </v>
   <v>      -0.00000000      -0.00000000       0.00000000 </v>
   <v>       0.00000000      -0.00000000      -0.00000000 </v>
   <v>      -0.00000000       0.00000000      -0.00000000 </v>
   <v>      -0.00000000       0.00000000       0.00000000 </v>
   <v>      -0.00000000       0.00000000       0.00000000 </v>
   <v>      -0.00000000      -0.00000000       0.00000000 </v>
   <v>       0.00000000       0.00000000      -0.00000000 </v>
   <v>       0.00000000       0.00000000      -0.00000000 </v>
   <v>      -0.00000000       0.00000000      -0.00000000 </v>
   <v>      -0.00000000      -0.00000000       0.00000000 </v>
   <v>      -0.00000000      -0.00000000      -0.00000000 </v>
   <v>      -0.00000000       0.00000000      -0.00000000 </v>
   <v>      -0.00000000       0.00000000       0.00000000 </v>
   <v>      -0.00000000      -0.00000000      -0.00000000 </v>
   <v>      -0.00000000      -0.00000000      -0.00000000 </v>
   <v>       0.00000000       0.00000000       0.00000000 </v>
   <v>      -0.00000000       0.00000000      -0.00000000 </v>
   <v>      -0.00000000       0.00000000       0.00000000 </v>
   <v>      -0.00000000      -0.00000000      -0.00000000 </v>
   <v>      -0.00000000       0.00000000       0.00000000 </v>
   <v>       0.00000000       0.00000000       0.00000000 </v>
   <v>       0.00000000       0.00000000      -0.00000000 </v>
   <v>       0.00000000      -0.00000000      -0.00000000 </v>
  </varray>
  <varray name="stress" >
   <v>       5.80694544       0.00000000      -0.00000000 </v>
   <v>       0.00000000       5.80694544       0.00000000 </v>
   <v>       0.00000000      -0.00000000       5.80694544 </v>
  </varray>
  <energy>
   <i name="e_fr_energy">   -879.50935871 </i>
   <i name="e_wo_entrp">   -879.48547056 </i>
   <i name="e_0_energy">     -0.07166447 </i>
  </energy>
  <time name="totalsc"> 1870.47 1870.83</time>
 </calculation>
 <calculation>
  <scstep>
   <time name="dav">   61.30   61.30</time>
   <time name="total">   64.05   64.05</time>
   <energy>
    <i name="alphaZ">   7261.31882518 </i>
    <i name="ewald"> -66114.68426556 </i>
    <i name="hartreedc">  -9332.76743203 </i>
    <i name="XCdc">    354.96991539 </i>
    <i name="pawpsdc">  58041.59250528 </i>
    <i name="pawaedc"> -58976.51990039 </i>
    <i name="eentropy">     -0.08351661 </i>
    <i name="bandstr">   3683.84935775 </i>
    <i name="atom">  64202.58743598 </i>
    <i name="e_fr_energy">   -879.73707503 </i>
    <i name="e_wo_entrp">   -879.65355842 </i>
    <i name="e_0_energy">   -879.70923616 </i>
   </energy>
  </scstep>
  <scstep>
   <time name="diag">    7.98    7.98</time>
   <time name="diis">   21.67   21.67</time>
   <time name="orth">    2.73    2.73</time>
   <time name="total">   35.09   35.09</time>
   <energy>
    <i name="e_fr_energy">   -879.51076893 </i>
    <i name="e_wo_entrp">   -879.44507618 </i>
    <i name="e_0_energy">   -879.48887134 </i>
   </energy>
  </scstep>
  <scstep>
   <time name="diag">    7.28    7.28</time>
   <time name="diis">   21.27   21.27</time>
   <time name="orth">    2.64    2.64</time>
   <time name="total">   33.70   33.70</time>
   <energy>
    <i name="e_fr_energy">   -879.50969880 </i>
    <i name="e_wo_entrp">   -879.44270528 </i>
    <i name="e_0_energy">   -879.48736763 </i>
   </energy>
  </scstep>
  <scstep>
   <time name="diag">    7.19    7.19</time>
   <time name="diis">   19.18   19.18</time>
   <time name="orth">    2.63    2.63</time>
   <time name="total">   31.50   31.50</time>
   <energy>
    <i name="e_fr_energy">   -879.50647737 </i>
    <i name="e_wo_entrp">   -879.43670254 </i>
    <i name="e_0_energy">   -879.48321909 </i>
   </energy>
  </scstep>
  <scstep>
   <time name="diag">    7.19    7.19</time>
   <time name="diis">   19.54   19.54</time>
   <time name="orth">    2.63    2.63</time>
   <time name="total">   31.87   31.87</time>
   <energy>
    <i name="e_fr_energy">   -879.50821007 </i>
    <i name="e_wo_entrp">   -879.43890272 </i>
    <i name="e_0_energy">   -879.48510762 </i>
   </energy>
  </scstep>
  <scstep>
   <time name="diag">    7.20    7.20</time>
   <time name="diis">   19.21   19.21</time>
   <time name="orth">    2.62    2.62</time>
   <time name="total">   31.52   31.52</time>
   <energy>
    <i name="e_fr_energy">   -879.50464510 </i>
    <i name="e_wo_entrp">   -879.43713826 </i>
    <i name="e_0_energy">   -879.48214282 </i>
   </energy>
  </scstep>
  <scstep>
   <time name="diag">    7.19    7.19</time>
   <time name="diis">   24.39   24.39</time>
   <time name="orth">    2.64    2.64</time>
   <time name="total">   36.71   36.71</time>
   <energy>
    <i name="e_fr_energy">   -879.50471970 </i>
    <i name="e_wo_entrp">   -879.43707766 </i>
    <i name="e_0_energy">   -879.48217235 </i>
   </energy>
  </scstep>
  <scstep>
   <time name="diag">    7.18    7.18</time>
   <time name="diis">   19.39   19.39</time>
   <time name="orth">    2.63    2.63</time>
   <time name="total">   31.68   31.68</time>
   <energy>
    <i name="e_fr_energy">   -879.50468016 </i>
    <i name="e_wo_entrp">   -879.43688039 </i>
    <i name="e_0_energy">   -879.48208024 </i>
   </energy>
  </scstep>
  <scstep>
   <time name="diag">    7.18    7.18</time>
   <time name="diis">   19.35   19.35</time>
   <time name="orth">    2.63    2.63</time>
   <time name="total">   31.66   31.66</time>
   <energy>
    <i name="e_fr_energy">   -879.50469098 </i>
    <i name="e_wo_entrp">   -879.43672276 </i>
    <i name="e_0_energy">   -879.48203490 </i>
   </energy>
  </scstep>
  <scstep>
   <time name="diag">    7.18    7.18</time>
   <time name="diis">   21.01   21.01</time>
   <time name="orth">    2.63    2.63</time>
   <time name="total">   33.31   33.31</time>
   <energy>
    <i name="e_fr_energy">   -879.50469395 </i>
    <i name="e_wo_entrp">   -879.43672025 </i>
    <i name="e_0_energy">   -879.48203605 </i>
   </energy>
  </scstep>
  <scstep>
   <time name="diag">    7.17    7.17</time>
   <time name="diis">   11.57   11.57</time>
   <time name="orth">    2.63    2.63</time>
   <time name="total">   23.86   23.86</time>
   <energy>
    <i name="e_fr_energy">   -879.50469244 </i>
    <i name="e_wo_entrp">   -879.43672417 </i>
    <i name="e_0_energy">   -879.48203635 </i>
   </energy>
  </scstep>
  <scstep>
   <time name="diag">    7.18    7.18</time>
   <time name="diis">   11.28   11.28</time>
   <time name="orth">    2.62    2.62</time>
   <time name="total">   23.57   23.57</time>
   <energy>
    <i name="e_fr_energy">   -879.50469119 </i>
    <i name="e_wo_entrp">   -879.43673891 </i>
    <i name="e_0_energy">   -879.48204043 </i>
   </energy>
  </scstep>
  <scstep>
   <time name="diag">    7.19    7.19</time>
   <time name="diis">   11.16   11.16</time>
   <time name="orth">    2.62    2.62</time>
   <time name="total">   21.25   21.25</time>
   <energy>
    <i name="alphaZ">   7261.31882518 </i>
    <i name="ewald"> -66114.68426556 </i>
    <i name="hartreedc">  -9391.28026979 </i>
    <i name="XCdc">    358.42079286 </i>
    <i name="pawpsdc">  57899.50087480 </i>
    <i name="pawaedc"> -58831.74834939 </i>
    <i name="eentropy">     -0.06795654 </i>
    <i name="bandstr">   3736.44822034 </i>
    <i name="atom">  64202.58743598 </i>
    <i name="e_fr_energy">   -879.50469212 </i>
    <i name="e_wo_entrp">   -879.43673558 </i>
    <i name="e_0_energy">   -879.48203994 </i>
   </energy>
  </scstep>
  <structure>
   <crystal>
    <varray name="basis" >
     <v>      10.35331679       0.00000000      -0.00000000 </v>
     <v>       0.00000000      10.35331679       0.00000000 </v>
     <v>       0.00000000      -0.00000000      10.35331679 </v>
    </varray>
    <i name="volume">   1109.78412474 </i>
    <varray name="rec_basis" >
     <v>       0.09658740      -0.00000000      -0.00000000 </v>
     <v>       0.00000000       0.09658740       0.00000000 </v>
     <v>       0.00000000      -0.00000000       0.09658740 </v>
    </varray>
   </crystal>
   <varray name="positions" >
    <v>       0.00000000      -0.00000000      -0.00000000 </v>
    <v>      -0.00000000       0.16666893       0.16666893 </v>
    <v>       0.16666893      -0.00000000       0.16666893 </v>
    <v>       0.16666893       0.16666893      -0.00000000 </v>
    <v>       0.33333106       0.00000000       0.00000000 </v>
    <v>       0.33333107       0.16666893       0.16666893 </v>
    <v>       0.50000000       0.00000000       0.16666894 </v>
    <v>       0.50000000       0.16666894      -0.00000000 </v>
    <v>       0.66666897      -0.00000000       0.00000000 </v>
    <v>       0.66666896       0.16666893       0.16666893 </v>
    <v>       0.83333104       0.00000000       0.16666893 </v>
    <v>       0.83333104       0.16666893       0.00000000 </v>
    <v>      -0.00000000       0.33333106       0.00000000 </v>
    <v>       0.00000000       0.50000000       0.16666894 </v>
    <v>       0.16666893       0.33333107       0.16666893 </v>
    <v>       0.16666894       0.50000000      -0.00000000 </v>
    <v>       0.33333107       0.33333107       0.00000000 </v>
    <v>       0.33333107       0.50000000       0.16666893 </v>
    <v>       0.50000000       0.33333107       0.16666893 </v>
    <v>       0.50000000       0.50000000      -0.00000000 </v>
    <v>       0.66666896       0.33333107      -0.00000000 </v>
    <v>       0.66666896       0.50000000       0.16666893 </v>
    <v>       0.83333104       0.33333107       0.16666893 </v>
    <v>       0.83333103       0.50000000      -0.00000000 </v>
    <v>      -0.00000000       0.66666897      -0.00000000 </v>
    <v>       0.00000000       0.83333104       0.16666893 </v>
    <v>       0.16666893       0.66666896       0.16666893 </v>
    <v>       0.16666893       0.83333104       0.00000000 </v>
    <v>       0.33333107       0.66666896       0.00000000 </v>
    <v>       0.33333107       0.83333104       0.16666893 </v>
    <v>       0.50000000       0.66666896       0.16666893 </v>
    <v>       0.50000000       0.83333103      -0.00000000 </v>
    <v>       0.66666896       0.66666896       0.00000000 </v>
    <v>       0.66666896       0.83333104       0.16666893 </v>
    <v>       0.83333104       0.66666896       0.16666893 </v>
    <v>       0.83333104       0.83333104       0.00000000 </v>
    <v>      -0.00000000      -0.00000000       0.33333106 </v>
    <v>       0.00000000       0.16666894       0.50000000 </v>
    <v>       0.16666894      -0.00000000       0.50000000 </v>
    <v>       0.16666893       0.16666893       0.33333107 </v>
    <v>       0.33333107       0.00000000       0.33333107 </v>
    <v>       0.33333107       0.16666893       0.50000000 </v>
    <v>       0.50000000      -0.00000000       0.50000000 </v>
    <v>       0.50000000       0.16666893       0.33333107 </v>
    <v>       0.66666896       0.00000000       0.33333107 </v>
    <v>       0.66666896       0.16666893       0.50000000 </v>
    <v>       0.83333103      -0.00000000       0.50000000 </v>
    <v>       0.83333104       0.16666893       0.33333107 </v>
    <v>      -0.00000000       0.33333107       0.33333107 </v>
    <v>       0.00000000       0.50000000       0.50000000 </v>
    <v>       0.16666893       0.33333107       0.50000000 </v>
    <v>       0.16666893       0.50000000       0.33333107 </v>
    <v>       0.33333107       0.33333107       0.33333107 </v>
    <v>       0.33333106       0.50000000       0.50000000 </v>
    <v>       0.50000000       0.33333106       0.50000000 </v>
    <v>       0.50000000       0.50000000       0.33333106 </v>
    <v>       0.66666896       0.33333107       0.33333107 </v>
    <v>       0.66666897       0.50000000       0.50000000 </v>
    <v>       0.83333104       0.33333107       0.50000000 </v>
    <v>       0.83333104       0.50000000       0.33333107 </v>
    <v>       0.00000000       0.66666896       0.33333107 </v>
    <v>       0.00000000       0.83333103       0.50000000 </v>
    <v>       0.16666893       0.66666896       0.50000000 </v>
    <v>       0.16666893       0.83333104       0.33333107 </v>
    <v>       0.33333107       0.66666896       0.33333107 </v>
    <v>       0.33333107       0.83333104       0.50000000 </v>
    <v>       0.50000000       0.66666897       0.50000000 </v>
    <v>       0.50000000       0.83333104       0.33333107 </v>
    <v>       0.66666896       0.66666896       0.33333107 </v>
    <v>       0.66666896       0.83333104       0.50000000 </v>
    <v>       0.83333104       0.66666896       0.50000000 </v>
    <v>       0.83333104       0.83333104       0.33333107 </v>
    <v>      -0.00000000      -0.00000000       0.66666897 </v>
    <v>       0.00000000       0.16666893       0.83333104 </v>
    <v>       0.16666893      -0.00000000       0.83333104 </v>
    <v>       0.16666893       0.16666893       0.66666896 </v>
    <v>       0.33333107       0.00000000       0.66666896 </v>
    <v>       0.33333107       0.16666893       0.83333104 </v>
    <v>       0.50000000       0.00000000       0.83333103 </v>
    <v>       0.50000000       0.16666893       0.66666896 </v>
    <v>       0.66666896       0.00000000       0.66666896 </v>
    <v>       0.66666896       0.16666893       0.83333104 </v>
    <v>       0.83333104      -0.00000000       0.83333104 </v>
    <v>       0.83333104       0.16666893       0.66666896 </v>
    <v>       0.00000000       0.33333107       0.66666896 </v>
    <v>      -0.00000000       0.50000000       0.83333103 </v>
    <v>       0.16666893       0.33333107       0.83333104 </v>
    <v>       0.16666893       0.50000000       0.66666896 </v>
    <v>       0.33333107       0.33333107       0.66666896 </v>
    <v>       0.33333107       0.50000000       0.83333104 </v>
    <v>       0.50000000       0.33333107       0.83333104 </v>
    <v>       0.50000000       0.50000000       0.66666897 </v>
    <v>       0.66666896       0.33333107       0.66666896 </v>
    <v>       0.66666896       0.50000000       0.83333104 </v>
    <v>       0.83333104       0.33333107       0.83333104 </v>
    <v>       0.83333104       0.50000000       0.66666896 </v>
    <v>      -0.00000000       0.66666896       0.66666896 </v>
    <v>      -0.00000000       0.83333104       0.83333104 </v>
    <v>       0.16666893       0.66666896       0.83333104 </v>
    <v>       0.16666893       0.83333104       0.66666896 </v>
    <v>       0.33333107       0.66666896       0.66666896 </v>
    <v>       0.33333107       0.83333104       0.83333104 </v>
    <v>       0.50000000       0.66666896       0.83333104 </v>
    <v>       0.50000000       0.83333104       0.66666896 </v>
    <v>       0.66666896       0.66666896       0.66666896 </v>
    <v>       0.66666896       0.83333104       0.83333104 </v>
    <v>       0.83333104       0.66666896       0.83333104 </v>
    <v>       0.83333104       0.83333104       0.66666896 </v>
   </varray>
  </structure>
  <varray name="forces" >
   <v>       0.00000000       0.00000000      -0.00000000 </v>
   <v>       0.00000000      -0.00000000      -0.00000000 </v>
   <v>      -0.00000000       0.00000000      -0.00000000 </v>
   <v>      -0.00000000      -0.00000000      -0.00000000 </v>
   <v>       0.00000000      -0.00000000       0.00000000 </v>
   <v>      -0.00000000      -0.00000000      -0.00000000 </v>
   <v>       0.00000000       0.00000000      -0.00000000 </v>
   <v>       0.00000000       0.00000000       0.00000000 </v>
   <v>       0.00000000       0.00000000       0.00000000 </v>
   <v>      -0.00000000       0.00000000      -0.00000000 </v>
   <v>       0.00000000       0.00000000      -0.00000000 </v>
   <v>       0.00000000       0.00000000       0.00000000 </v>
   <v>       0.00000000      -0.00000000       0.00000000 </v>
   <v>      -0.00000000       0.00000000       0.00000000 </v>
   <v>      -0.00000000       0.00000000       0.00000000 </v>
   <v>      -0.00000000      -0.00000000      -0.00000000 </v>
   <v>      -0.00000000       0.00000000       0.00000000 </v>
   <v>       0.00000000       0.00000000      -0.00000000 </v>
   <v>      -0.00000000      -0.00000000      -0.00000000 </v>
   <v>       0.00000000      -0.00000000       0.00000000 </v>
   <v>       0.00000000      -0.00000000      -0.00000000 </v>
   <v>      -0.00000000      -0.00000000      -0.00000000 </v>
   <v>      -0.00000000       0.00000000      -0.00000000 </v>
   <v>       0.00000000       0.00000000       0.00000000 </v>
   <v>       0.00000000       0.00000000      -0.00000000 </v>
   <v>       0.00000000      -0.00000000      -0.00000000 </v>
   <v>      -0.00000000      -0.00000000      -0.00000000 </v>
   <v>      -0.00000000       0.00000000      -0.00000000 </v>
   <v>      -0.00000000       0.00000000      -0.00000000 </v>
   <v>       0.00000000      -0.00000000       0.00000000 </v>
   <v>       0.00000000      -0.00000000      -0.00000000 </v>
   <v>       0.00000000       0.00000000      -0.00000000 </v>
   <v>       0.00000000       0.00000000       0.00000000 </v>
   <v>      -0.00000000      -0.00000000      -0.00000000 </v>
   <v>       0.00000000       0.00000000       0.00000000 </v>
   <v>       0.00000000      -0.00000000      -0.00000000 </v>
   <v>      -0.00000000       0.00000000      -0.00000000 </v>
   <v>       0.00000000      -0.00000000       0.00000000 </v>
   <v>      -0.00000000      -0.00000000      -0.00000000 </v>
   <v>      -0.00000000      -0.00000000       0.00000000 </v>
   <v>       0.00000000      -0.00000000      -0.00000000 </v>
   <v>      -0.00000000      -0.00000000       0.00000000 </v>
   <v>       0.00000000      -0.00000000      -0.00000000 </v>
   <v>       0.00000000       0.00000000      -0.00000000 </v>
   <v>       0.00000000       0.00000000      -0.00000000 </v>
   <v>       0.00000000       0.00000000      -0.00000000 </v>
   <v>       0.00000000       0.00000000      -0.00000000 </v>
   <v>       0.00000000      -0.00000000       0.00000000 </v>
   <v>      -0.00000000       0.00000000       0.00000000 </v>
   <v>      -0.00000000       0.00000000      -0.00000000 </v>
   <v>      -0.00000000       0.00000000      -0.00000000 </v>
   <v>      -0.00000000      -0.00000000      -0.00000000 </v>
   <v>      -0.00000000       0.00000000      -0.00000000 </v>
   <v>       0.00000000       0.00000000      -0.00000000 </v>
   <v>       0.00000000       0.00000000      -0.00000000 </v>
   <v>      -0.00000000      -0.00000000      -0.00000000 </v>
   <v>      -0.00000000       0.00000000       0.00000000 </v>
   <v>      -0.00000000       0.00000000      -0.00000000 </v>
   <v>       0.00000000       0.00000000       0.00000000 </v>
   <v>       0.00000000      -0.00000000      -0.00000000 </v>
   <v>      -0.00000000       0.00000000       0.00000000 </v>
   <v>      -0.00000000      -0.00000000      -0.00000000 </v>
   <v>      -0.00000000      -0.00000000      -0.00000000 </v>
   <v>      -0.00000000       0.00000000       0.00000000 </v>
   <v>      -0.00000000      -0.00000000      -0.00000000 </v>
   <v>       0.00000000      -0.00000000       0.00000000 </v>
[...]
       <r>    -1.8061     2.7357     0.3874 </r>
       <r>    -1.7607     3.2636     0.5354 </r>
       <r>    -1.7154     3.6459     0.7008 </r>
       <r>    -1.6700     3.8538     0.8755 </r>
       <r>    -1.6247     3.9308     1.0538 </r>
       <r>    -1.5793     3.9609     1.2334 </r>
       <r>    -1.5340     4.0243     1.4159 </r>
       <r>    -1.4886     4.1748     1.6052 </r>
       <r>    -1.4433     4.4424     1.8067 </r>
       <r>    -1.3979     4.8400     2.0261 </r>
       <r>    -1.3526     5.3650     2.2694 </r>
       <r>    -1.3072     5.9878     2.5410 </r>
       <r>    -1.2619     6.6282     2.8415 </r>
       <r>    -1.2165     7.1371     3.1652 </r>
       <r>    -1.1712     7.3307     3.4976 </r>
       <r>    -1.1258     7.0902     3.8191 </r>
       <r>    -1.0805     6.4685     4.1125 </r>
       <r>    -1.0352     5.7090     4.3714 </r>
       <r>    -0.9898     5.1466     4.6047 </r>
       <r>    -0.9445     5.0567     4.8341 </r>
       <r>    -0.8991     5.5480     5.0856 </r>
       <r>    -0.8538     6.5523     5.3828 </r>
       <r>    -0.8084     7.8841     5.7403 </r>
       <r>    -0.7631     9.3051     6.1623 </r>
       <r>    -0.7177    10.5453     6.6405 </r>
       <r>    -0.6724    11.3072     7.1532 </r>
       <r>    -0.6270    11.3278     7.6669 </r>
       <r>    -0.5817    10.5207     8.1440 </r>
       <r>    -0.5363     9.1042     8.5568 </r>
       <r>    -0.4910     7.5814     8.9006 </r>
       <r>    -0.4456     6.5356     9.1970 </r>
       <r>    -0.4003     6.3639     9.4856 </r>
       <r>    -0.3549     7.1174     9.8084 </r>
       <r>    -0.3096     8.5253    10.1950 </r>
       <r>    -0.2642    10.1494    10.6552 </r>
       <r>    -0.2189    11.5569    11.1793 </r>
       <r>    -0.1735    12.4383    11.7433 </r>
       <r>    -0.1282    12.6718    12.3180 </r>
       <r>    -0.0829    12.3520    12.8781 </r>
       <r>    -0.0375    11.7660    13.4116 </r>
       <r>     0.0078    11.2837    13.9233 </r>
       <r>     0.0532    11.1893    14.4307 </r>
       <r>     0.0985    11.5524    14.9546 </r>
       <r>     0.1439    12.2272    15.5091 </r>
       <r>     0.1892    12.9719    16.0973 </r>
       <r>     0.2346    13.5888    16.7136 </r>
       <r>     0.2799    13.9879    17.3479 </r>
       <r>     0.3253    14.1561    17.9898 </r>
       <r>     0.3706    14.0970    18.6291 </r>
       <r>     0.4160    13.8067    19.2552 </r>
       <r>     0.4613    13.3023    19.8584 </r>
       <r>     0.5067    12.6772    20.4333 </r>
       <r>     0.5520    12.1473    20.9841 </r>
       <r>     0.5974    12.0489    21.5305 </r>
       <r>     0.6427    12.7363    22.1081 </r>
       <r>     0.6881    14.3742    22.7599 </r>
       <r>     0.7334    16.7363    23.5189 </r>
       <r>     0.7787    19.1945    24.3893 </r>
       <r>     0.8241    20.9916    25.3412 </r>
       <r>     0.8694    21.6579    26.3233 </r>
       <r>     0.9148    21.2723    27.2880 </r>
       <r>     0.9601    20.3514    28.2108 </r>
       <r>     1.0055    19.4394    29.0924 </r>
       <r>     1.0508    18.7321    29.9418 </r>
       <r>     1.0962    18.0533    30.7605 </r>
       <r>     1.1415    17.2036    31.5406 </r>
       <r>     1.1869    16.3650    32.2827 </r>
       <r>     1.2322    16.1794    33.0164 </r>
       <r>     1.2776    17.3970    33.8054 </r>
       <r>     1.3229    20.3448    34.7279 </r>
       <r>     1.3683    24.5984    35.8434 </r>
       <r>     1.4136    29.0648    37.1614 </r>
       <r>     1.4590    32.4170    38.6314 </r>
       <r>     1.5043    33.6531    40.1575 </r>
       <r>     1.5497    32.5400    41.6331 </r>
       <r>     1.5950    29.7769    42.9834 </r>
       <r>     1.6403    26.8221    44.1998 </r>
       <r>     1.6857    25.4507    45.3539 </r>
       <r>     1.7310    27.1935    46.5870 </r>
       <r>     1.7764    32.8420    48.0763 </r>
       <r>     1.8217    42.1854    49.9893 </r>
       <r>     1.8671    54.0952    52.4424 </r>
       <r>     1.9124    66.9528    55.4786 </r>
       <r>     1.9578    79.2101    59.0705 </r>
       <r>     2.0031    89.7521    63.1406 </r>
       <r>     2.0485    97.8964    67.5799 </r>
       <r>     2.0938   103.2191    72.2606 </r>
       <r>     2.1392   105.5515    77.0471 </r>
       <r>     2.1845   105.2365    81.8193 </r>
       <r>     2.2299   103.3420    86.5056 </r>
       <r>     2.2752   101.4664    91.1069 </r>
       <r>     2.3206   101.1076    95.6919 </r>
       <r>     2.3659   102.9504   100.3604 </r>
       <r>     2.4113   106.5429   105.1918 </r>
       <r>     2.4566   110.6301   110.2086 </r>
       <r>     2.5020   114.0163   115.3790 </r>
       <r>     2.5473   116.4224   120.6585 </r>
       <r>     2.5926   118.6901   126.0407 </r>
       <r>     2.6380   122.0998   131.5777 </r>
       <r>     2.6833   127.3020   137.3505 </r>
       <r>     2.7287   133.7614   143.4162 </r>
       <r>     2.7740   140.2145   149.7746 </r>
       <r>     2.8194   145.7310   156.3831 </r>
       <r>     2.8647   150.4141   163.2040 </r>
       <r>     2.9101   155.1087   170.2378 </r>
       <r>     2.9554   160.3986   177.5115 </r>
       <r>     3.0008   165.8086   185.0305 </r>
       <r>     3.0461   169.9385   192.7367 </r>
       <r>     3.0915   171.4311   200.5107 </r>
       <r>     3.1368   169.9532   208.2176 </r>
       <r>     3.1822   166.3719   215.7622 </r>
       <r>     3.2275   162.0494   223.1107 </r>
       <r>     3.2729   157.9651   230.2740 </r>
       <r>     3.3182   154.4487   237.2779 </r>
       <r>     3.3636   151.5978   244.1525 </r>
       <r>     3.4089   149.7271   250.9422 </r>
       <r>     3.4542   149.2422   257.7099 </r>
       <r>     3.4996   150.0549   264.5146 </r>
       <r>     3.5449   151.2280   271.3724 </r>
       <r>     3.5903   151.3291   278.2347 </r>
       <r>     3.6356   149.2835   285.0044 </r>
       <r>     3.6810   145.0865   291.5837 </r>
       <r>     3.7263   139.8884   297.9273 </r>
       <r>     3.7717   135.4060   304.0676 </r>
       <r>     3.8170   132.9698   310.0974 </r>
       <r>     3.8624   132.7071   316.1153 </r>
       <r>     3.9077   133.3922   322.1643 </r>
       <r>     3.9531   133.2192   328.2055 </r>
       <r>     3.9984   131.1318   334.1520 </r>
       <r>     4.0438   127.7774   339.9464 </r>
       <r>     4.0891   125.2494   345.6261 </r>
       <r>     4.1345   125.6853   351.3256 </r>
       <r>     4.1798   129.8076   357.2121 </r>
       <r>     4.2252   136.6330   363.4080 </r>
       <r>     4.2705   144.5578   369.9633 </r>
       <r>     4.3158   152.7328   376.8894 </r>
       <r>     4.3612   161.3707   384.2071 </r>
       <r>     4.4065   170.7366   391.9496 </r>
       <r>     4.4519   179.9328   400.1091 </r>
       <r>     4.4972   186.7956   408.5798 </r>
       <r>     4.5426   189.1201   417.1559 </r>
       <r>     4.5879   186.2234   425.6007 </r>
       <r>     4.6333   179.6926   433.7493 </r>
       <r>     4.6786   172.9150   441.5905 </r>
       <r>     4.7240   169.7562   449.2885 </r>
       <r>     4.7693   173.0069   457.1339 </r>
       <r>     4.8147   183.1737   465.4404 </r>
       <r>     4.8600   198.1255   474.4249 </r>
       <r>     4.9054   213.8932   484.1244 </r>
       <r>     4.9507   226.3706   494.3897 </r>
       <r>     4.9961   233.0545   504.9582 </r>
       <r>     5.0414   233.8665   515.5634 </r>
       <r>     5.0868   230.7249   526.0262 </r>
       <r>     5.1321   226.3755   536.2917 </r>
       <r>     5.1774   223.3468   546.4200 </r>
       <r>     5.2228   223.5097   556.5555 </r>
       <r>     5.2681   228.0213   566.8957 </r>
       <r>     5.3135   237.0904   577.6472 </r>
       <r>     5.3588   249.3671   588.9553 </r>
       <r>     5.4042   261.5096   600.8141 </r>
       <r>     5.4495   268.8113   613.0040 </r>
       <r>     5.4949   267.1246   625.1175 </r>
       <r>     5.5402   255.1218   636.6866 </r>
       <r>     5.5856   235.2984   647.3568 </r>
       <r>     5.6309   212.8153   657.0074 </r>
       <r>     5.6763   192.8138   665.7510 </r>
       <r>     5.7216   177.9658   673.8213 </r>
       <r>     5.7670   167.8101   681.4311 </r>
       <r>     5.8123   160.0777   688.6902 </r>
       <r>     5.8577   152.8455   695.6213 </r>
       <r>     5.9030   145.9679   702.2406 </r>
       <r>     5.9484   140.9805   708.6337 </r>
       <r>     5.9937   139.8234   714.9743 </r>
       <r>     6.0391   143.4264   721.4784 </r>
       <r>     6.0844   151.0646   728.3288 </r>
       <r>     6.1297   160.7362   735.6177 </r>
       <r>     6.1751   170.1977   743.3358 </r>
       <r>     6.2204   178.0429   751.4096 </r>
       <r>     6.2658   184.2709   759.7658 </r>
       <r>     6.3111   190.0008   768.3818 </r>
       <r>     6.3565   196.3974   777.2879 </r>
       <r>     6.4018   203.4605   786.5144 </r>
       <r>     6.4472   209.6640   796.0221 </r>
       <r>     6.4925   212.9536   805.6790 </r>
       <r>     6.5379   212.4312   815.3122 </r>
       <r>     6.5832   209.2541   824.8013 </r>
       <r>     6.6286   205.7911   834.1334 </r>
       <r>     6.6739   203.6183   843.3670 </r>
       <r>     6.7193   202.0936   852.5314 </r>
       <r>     6.7646   198.8635   861.5494 </r>
       <r>     6.8100   192.0040   870.2563 </r>
       <r>     6.8553   182.0291   878.5108 </r>
       <r>     6.9007   172.0390   886.3124 </r>
       <r>     6.9460   165.8076   893.8313 </r>
       <r>     6.9913   165.3097   901.3277 </r>
       <r>     7.0367   169.5932   909.0183 </r>
       <r>     7.0820   175.7241   916.9870 </r>
       <r>     7.1274   180.8584   925.1884 </r>
       <r>     7.1727   183.8070   933.5236 </r>
       <r>     7.2181   185.1992   941.9219 </r>
       <r>     7.2634   186.6015   950.3838 </r>
       <r>     7.3088   189.5192   958.9780 </r>
       <r>     7.3541   194.7831   967.8109 </r>
       <r>     7.3995   202.1754   976.9791 </r>
       <r>     7.4448   210.0458   986.5041 </r>
       <r>     7.4902   215.1140   996.2590 </r>
       <r>     7.5355   212.9922  1005.9177 </r>
       <r>     7.5809   199.6883  1014.9730 </r>
       <r>     7.6262   173.6015  1022.8454 </r>
       <r>     7.6716   136.9037  1029.0536 </r>
       <r>     7.7169    95.2895  1033.3748 </r>
       <r>     7.7623    55.9716  1035.9129 </r>
       <r>     7.8076    24.9215  1037.0431 </r>
       <r>     7.8529     4.8675  1037.2638 </r>
       <r>     7.8983    -4.9760  1037.0381 </r>
       <r>     7.9436    -7.6293  1036.6922 </r>
       <r>     7.9890    -6.5526  1036.3950 </r>
       <r>     8.0343    -4.3596  1036.1973 </r>
       <r>     8.0797    -2.4274  1036.0873 </r>
       <r>     8.1250    -1.1663  1036.0344 </r>
       <r>     8.1704    -0.4909  1036.0121 </r>
       <r>     8.2157    -0.1826  1036.0038 </r>
       <r>     8.2611    -0.0603  1036.0011 </r>
       <r>     8.3064    -0.0178  1036.0003 </r>
       <r>     8.3518    -0.0047  1036.0001 </r>
       <r>     8.3971    -0.0011  1036.0000 </r>
       <r>     8.4425    -0.0002  1036.0000 </r>
       <r>     8.4878    -0.0000  1036.0000 </r>
       <r>     8.5332    -0.0000  1036.0000 </r>
       <r>     8.5785    -0.0000  1036.0000 </r>
       <r>     8.6239    -0.0000  1036.0000 </r>
       <r>     8.6692    -0.0000  1036.0000 </r>
       <r>     8.7146    -0.0000  1036.0000 </r>
       <r>     8.7599    -0.0000  1036.0000 </r>
       <r>     8.8052    -0.0000  1036.0000 </r>
       <r>     8.8506    -0.0000  1036.0000 </r>
       <r>     8.8959    -0.0000  1036.0000 </r>
       <r>     8.9413     0.0000  1036.0000 </r>
       <r>     8.9866     0.0000  1036.0000 </r>
       <r>     9.0320     0.0000  1036.0000 </r>
       <r>     9.0773     0.0000  1036.0000 </r>
       <r>     9.1227     0.0000  1036.0000 </r>
       <r>     9.1680     0.0000  1036.0000 </r>
       <r>     9.2134     0.0000  1036.0000 </r>
       <r>     9.2587     0.0000  1036.0000 </r>
       <r>     9.3041     0.0000  1036.0000 </r>
       <r>     9.3494     0.0000  1036.0000 </r>
       <r>     9.3948     0.0000  1036.0000 </r>
       <r>     9.4401     0.0000  1036.0000 </r>
       <r>     9.4855     0.0000  1036.0000 </r>
       <r>     9.5308     0.0000  1036.0000 </r>
       <r>     9.5762     0.0000  1036.0000 </r>
       <r>     9.6215     0.0000  1036.0000 </r>
       <r>     9.6668     0.0000  1036.0000 </r>
      </set>
     </set>
    </array>
   </total>
  </dos>
 </calculation>
 <structure name="finalpos" >
  <crystal>
   <varray name="basis" >
    <v>      10.34245185       0.00000000      -0.00000000 </v>
    <v>       0.00000000      10.34245185       0.00000000 </v>
    <v>       0.00000000      -0.00000000      10.34245185 </v>
   </varray>
   <i name="volume">   1106.29391427 </i>
   <varray name="rec_basis" >
    <v>       0.09668887      -0.00000000      -0.00000000 </v>
    <v>       0.00000000       0.09668887       0.00000000 </v>
    <v>       0.00000000      -0.00000000       0.09668887 </v>
   </varray>
  </crystal>
  <varray name="positions" >
   <v>       0.00000000      -0.00000000      -0.00000000 </v>
   <v>      -0.00000000       0.16666893       0.16666893 </v>
   <v>       0.16666893      -0.00000000       0.16666893 </v>
   <v>       0.16666893       0.16666893      -0.00000000 </v>
   <v>       0.33333106       0.00000000       0.00000000 </v>
   <v>       0.33333107       0.16666893       0.16666893 </v>
   <v>       0.50000000       0.00000000       0.16666894 </v>
   <v>       0.50000000       0.16666894      -0.00000000 </v>
   <v>       0.66666897      -0.00000000       0.00000000 </v>
   <v>       0.66666896       0.16666893       0.16666893 </v>
   <v>       0.83333104       0.00000000       0.16666893 </v>
   <v>       0.83333104       0.16666893       0.00000000 </v>
   <v>      -0.00000000       0.33333106       0.00000000 </v>
   <v>       0.00000000       0.50000000       0.16666894 </v>
   <v>       0.16666893       0.33333107       0.16666893 </v>
   <v>       0.16666894       0.50000000      -0.00000000 </v>
   <v>       0.33333107       0.33333107       0.00000000 </v>
   <v>       0.33333107       0.50000000       0.16666893 </v>
   <v>       0.50000000       0.33333107       0.16666893 </v>
   <v>       0.50000000       0.50000000      -0.00000000 </v>
   <v>       0.66666896       0.33333107      -0.00000000 </v>
   <v>       0.66666896       0.50000000       0.16666893 </v>
   <v>       0.83333104       0.33333107       0.16666893 </v>
   <v>       0.83333103       0.50000000      -0.00000000 </v>
   <v>      -0.00000000       0.66666897      -0.00000000 </v>
   <v>       0.00000000       0.83333104       0.16666893 </v>
   <v>       0.16666893       0.66666896       0.16666893 </v>
   <v>       0.16666893       0.83333104       0.00000000 </v>
   <v>       0.33333107       0.66666896       0.00000000 </v>
   <v>       0.33333107       0.83333104       0.16666893 </v>
   <v>       0.50000000       0.66666896       0.16666893 </v>
   <v>       0.50000000       0.83333103      -0.00000000 </v>
   <v>       0.66666896       0.66666896       0.00000000 </v>
   <v>       0.66666896       0.83333104       0.16666893 </v>
   <v>       0.83333104       0.66666896       0.16666893 </v>
   <v>       0.83333104       0.83333104       0.00000000 </v>
   <v>      -0.00000000      -0.00000000       0.33333106 </v>
   <v>       0.00000000       0.16666894       0.50000000 </v>
   <v>       0.16666894      -0.00000000       0.50000000 </v>
   <v>       0.16666893       0.16666893       0.33333107 </v>
   <v>       0.33333107       0.00000000       0.33333107 </v>
   <v>       0.33333107       0.16666893       0.50000000 </v>
   <v>       0.50000000      -0.00000000       0.50000000 </v>
   <v>       0.50000000       0.16666893       0.33333107 </v>
   <v>       0.66666896       0.00000000       0.33333107 </v>
   <v>       0.66666896       0.16666893       0.50000000 </v>
   <v>       0.83333103      -0.00000000       0.50000000 </v>
   <v>       0.83333104       0.16666893       0.33333107 </v>
   <v>      -0.00000000       0.33333107       0.33333107 </v>
   <v>       0.00000000       0.50000000       0.50000000 </v>
   <v>       0.16666893       0.33333107       0.50000000 </v>
   <v>       0.16666893       0.50000000       0.33333107 </v>
   <v>       0.33333107       0.33333107       0.33333107 </v>
   <v>       0.33333106       0.50000000       0.50000000 </v>
   <v>       0.50000000       0.33333106       0.50000000 </v>
   <v>       0.50000000       0.50000000       0.33333106 </v>
   <v>       0.66666896       0.33333107       0.33333107 </v>
   <v>       0.66666897       0.50000000       0.50000000 </v>
   <v>       0.83333104       0.33333107       0.50000000 </v>
   <v>       0.83333104       0.50000000       0.33333107 </v>
   <v>       0.00000000       0.66666896       0.33333107 </v>
   <v>       0.00000000       0.83333103       0.50000000 </v>
   <v>       0.16666893       0.66666896       0.50000000 </v>
   <v>       0.16666893       0.83333104       0.33333107 </v>
   <v>       0.33333107       0.66666896       0.33333107 </v>
   <v>       0.33333107       0.83333104       0.50000000 </v>
   <v>       0.50000000       0.66666897       0.50000000 </v>
   <v>       0.50000000       0.83333104       0.33333107 </v>
   <v>       0.66666896       0.66666896       0.33333107 </v>
   <v>       0.66666896       0.83333104       0.50000000 </v>
   <v>       0.83333104       0.66666896       0.50000000 </v>
   <v>       0.83333104       0.83333104       0.33333107 </v>
   <v>      -0.00000000      -0.00000000       0.66666897 </v>
   <v>       0.00000000       0.16666893       0.83333104 </v>
   <v>       0.16666893      -0.00000000       0.83333104 </v>
   <v>       0.16666893       0.16666893       0.66666896 </v>
   <v>       0.33333107       0.00000000       0.66666896 </v>
   <v>       0.33333107       0.16666893       0.83333104 </v>
   <v>       0.50000000       0.00000000       0.83333103 </v>
   <v>       0.50000000       0.16666893       0.66666896 </v>
   <v>       0.66666896       0.00000000       0.66666896 </v>
   <v>       0.66666896       0.16666893       0.83333104 </v>
   <v>       0.83333104      -0.00000000       0.83333104 </v>
   <v>       0.83333104       0.16666893       0.66666896 </v>
   <v>       0.00000000       0.33333107       0.66666896 </v>
   <v>      -0.00000000       0.50000000       0.83333103 </v>
   <v>       0.16666893       0.33333107       0.83333104 </v>
   <v>       0.16666893       0.50000000       0.66666896 </v>
   <v>       0.33333107       0.33333107       0.66666896 </v>
   <v>       0.33333107       0.50000000       0.83333104 </v>
   <v>       0.50000000       0.33333107       0.83333104 </v>
   <v>       0.50000000       0.50000000       0.66666897 </v>
   <v>       0.66666896       0.33333107       0.66666896 </v>
   <v>       0.66666896       0.50000000       0.83333104 </v>
   <v>       0.83333104       0.33333107       0.83333104 </v>
   <v>       0.83333104       0.50000000       0.66666896 </v>
   <v>      -0.00000000       0.66666896       0.66666896 </v>
   <v>      -0.00000000       0.83333104       0.83333104 </v>
   <v>       0.16666893       0.66666896       0.83333104 </v>
   <v>       0.16666893       0.83333104       0.66666896 </v>
   <v>       0.33333107       0.66666896       0.66666896 </v>
   <v>       0.33333107       0.83333104       0.83333104 </v>
   <v>       0.50000000       0.66666896       0.83333104 </v>
   <v>       0.50000000       0.83333104       0.66666896 </v>
   <v>       0.66666896       0.66666896       0.66666896 </v>
   <v>       0.66666896       0.83333104       0.83333104 </v>
   <v>       0.83333104       0.66666896       0.83333104 </v>
   <v>       0.83333104       0.83333104       0.66666896 </v>
  </varray>
 </structure>
</modeling>
