<?xml version="1.0" encoding="ISO-8859-1"?>
<modeling>
 <generator>
  <i name="program" type="string">vasp </i>
  <i name="version" type="string">5.4.4.18Apr17-6-g9f103f2a35  </i>
  <i name="subversion" type="string">(build Aug 17 2017 06:00:38) complex            parallel </i>
  <i name="platform" type="string">LinuxIFC </i>
  <i name="date" type="string">2019 07 13 </i>
  <i name="time" type="string">01:59:06 </i>
 </generator>
 <incar>
  <i type="string" name="SYSTEM">Opt</i>
  <i type="int" name="ISTART">     0</i>
  <i type="string" name="PREC">normal</i>
  <i type="string" name="ALGO"> Fast</i>
  <i type="int" name="ISPIN">     1</i>
  <i type="int" name="ICHARG">     2</i>
  <i type="int" name="NELM">   400</i>
  <i type="int" name="IBRION">     2</i>
  <i name="EDIFF">      0.00000100</i>
  <i name="EDIFFG">     -0.01000000</i>
  <i type="int" name="NSW">   100</i>
  <i type="int" name="ISIF">     2</i>
  <i type="int" name="ISYM">     0</i>
  <i name="ENCUT">    400.00000000</i>
  <i type="int" name="NGX">    72</i>
  <i type="int" name="NGY">    72</i>
  <i type="int" name="NGZ">    72</i>
  <i name="POTIM">      0.50000000</i>
  <i type="string" name="LREAL">Auto</i>
  <i type="logical" name="LWAVE"> F  </i>
  <i type="logical" name="LCHARG"> F  </i>
  <v type="int" name="KPOINT_BSE">    -1     0     0     0</v>
  <i type="int" name="NELM">   400</i>
 </incar>
 <structure name="primitive_cell" >
  <crystal>
   <varray name="basis" >
    <v>      10.33484705       0.00000000       0.00000000 </v>
    <v>       0.00000000      10.33484705       0.00000000 </v>
    <v>       0.00000000       0.00000000      10.33484705 </v>
   </varray>
   <i name="volume">   1103.85533447 </i>
   <varray name="rec_basis" >
    <v>       0.09676002       0.00000000       0.00000000 </v>
    <v>       0.00000000       0.09676002       0.00000000 </v>
    <v>       0.00000000       0.00000000       0.09676002 </v>
   </varray>
  </crystal>
  <varray name="positions" >
   <v>       0.00000000       0.00000000       0.00000000 </v>
   <v>       0.00000000       0.16666893       0.16666893 </v>
   <v>       0.16666893       0.00000000       0.16666893 </v>
   <v>       0.16666893       0.16666893       0.00000000 </v>
   <v>       0.00000000      -0.16666896       0.16666893 </v>
   <v>       0.00000000       0.16666893      -0.16666896 </v>
   <v>       0.16666893      -0.16666896       0.00000000 </v>
   <v>       0.16666893       0.00000000      -0.16666896 </v>
   <v>      -0.16666896       0.00000000       0.16666893 </v>
   <v>      -0.16666896       0.16666893       0.00000000 </v>
   <v>       0.00000000      -0.16666896      -0.16666896 </v>
   <v>      -0.16666896      -0.16666896       0.00000000 </v>
   <v>      -0.16666896       0.00000000      -0.16666896 </v>
   <v>       0.00000000      -0.33333103       0.00000000 </v>
   <v>       0.00000000       0.00000000      -0.33333103 </v>
   <v>      -0.33333103       0.00000000       0.00000000 </v>
   <v>       0.00000000       0.33333106       0.00000000 </v>
   <v>       0.00000000       0.00000000       0.33333106 </v>
   <v>       0.33333106       0.00000000       0.00000000 </v>
   <v>       0.16666893      -0.33333104       0.16666893 </v>
   <v>       0.16666893       0.16666893      -0.33333104 </v>
   <v>      -0.33333104       0.16666893       0.16666893 </v>
   <v>       0.16666893      -0.33333104      -0.16666896 </v>
   <v>       0.16666893      -0.16666896      -0.33333104 </v>
   <v>      -0.33333104      -0.16666896       0.16666893 </v>
   <v>      -0.33333104       0.16666893      -0.16666896 </v>
   <v>      -0.16666896      -0.33333104       0.16666893 </v>
   <v>      -0.16666896       0.16666893      -0.33333104 </v>
   <v>       0.16666893       0.33333107       0.16666893 </v>
   <v>       0.16666893       0.16666893       0.33333107 </v>
   <v>       0.33333107       0.16666893       0.16666893 </v>
   <v>      -0.33333104      -0.16666896      -0.16666896 </v>
   <v>      -0.16666896      -0.33333104      -0.16666896 </v>
   <v>      -0.16666896      -0.16666896      -0.33333104 </v>
   <v>       0.16666893      -0.16666896       0.33333107 </v>
   <v>       0.16666893       0.33333107      -0.16666896 </v>
   <v>       0.33333107      -0.16666896       0.16666893 </v>
   <v>       0.33333107       0.16666893      -0.16666896 </v>
   <v>      -0.16666896       0.33333107       0.16666893 </v>
   <v>      -0.16666896       0.16666893       0.33333107 </v>
   <v>       0.33333107      -0.16666896      -0.16666896 </v>
   <v>      -0.16666896      -0.16666896       0.33333107 </v>
   <v>      -0.16666896       0.33333107      -0.16666896 </v>
   <v>       0.00000000      -0.33333104      -0.33333104 </v>
   <v>      -0.33333104      -0.33333104       0.00000000 </v>
   <v>      -0.33333104       0.00000000      -0.33333104 </v>
   <v>       0.00000000      -0.33333104       0.33333107 </v>
   <v>       0.00000000       0.33333107      -0.33333104 </v>
   <v>       0.33333107      -0.33333104       0.00000000 </v>
   <v>       0.33333107       0.00000000      -0.33333104 </v>
   <v>      -0.33333104       0.33333107       0.00000000 </v>
   <v>      -0.33333104       0.00000000       0.33333107 </v>
   <v>       0.00000000       0.33333107       0.33333107 </v>
   <v>       0.33333107       0.33333107       0.00000000 </v>
   <v>       0.33333107       0.00000000       0.33333107 </v>
   <v>       0.00000000      -0.50000000       0.16666894 </v>
   <v>       0.00000000       0.16666894      -0.50000000 </v>
   <v>       0.16666894      -0.50000000       0.00000000 </v>
   <v>       0.16666894       0.00000000      -0.50000000 </v>
   <v>      -0.50000000       0.00000000       0.16666894 </v>
   <v>      -0.50000000       0.16666894       0.00000000 </v>
   <v>       0.00000000      -0.16666897      -0.50000000 </v>
   <v>       0.00000000      -0.50000000      -0.16666897 </v>
   <v>      -0.50000000      -0.16666897       0.00000000 </v>
   <v>      -0.50000000       0.00000000      -0.16666897 </v>
   <v>      -0.16666897      -0.50000000       0.00000000 </v>
   <v>      -0.16666897       0.00000000      -0.50000000 </v>
   <v>      -0.33333104      -0.33333104      -0.33333104 </v>
   <v>       0.33333107      -0.33333104      -0.33333104 </v>
   <v>      -0.33333104      -0.33333104       0.33333107 </v>
   <v>      -0.33333104       0.33333107      -0.33333104 </v>
   <v>       0.33333107      -0.33333104       0.33333107 </v>
   <v>       0.33333107       0.33333107      -0.33333104 </v>
   <v>      -0.33333104       0.33333107       0.33333107 </v>
   <v>       0.33333107       0.33333107       0.33333107 </v>
   <v>       0.16666893      -0.33333104      -0.50000000 </v>
   <v>       0.16666893      -0.50000000      -0.33333104 </v>
   <v>      -0.50000000      -0.33333104       0.16666893 </v>
   <v>      -0.50000000       0.16666893      -0.33333104 </v>
   <v>      -0.33333104      -0.50000000       0.16666893 </v>
   <v>      -0.33333104       0.16666893      -0.50000000 </v>
   <v>      -0.50000000      -0.33333104      -0.16666896 </v>
   <v>      -0.50000000      -0.16666896      -0.33333104 </v>
   <v>      -0.33333104      -0.16666896      -0.50000000 </v>
   <v>      -0.33333104      -0.50000000      -0.16666896 </v>
   <v>      -0.16666896      -0.33333104      -0.50000000 </v>
   <v>      -0.16666896      -0.50000000      -0.33333104 </v>
   <v>       0.16666893       0.33333107      -0.50000000 </v>
   <v>       0.16666893      -0.50000000       0.33333107 </v>
   <v>       0.33333107      -0.50000000       0.16666893 </v>
   <v>       0.33333107       0.16666893      -0.50000000 </v>
   <v>      -0.50000000       0.33333107       0.16666893 </v>
   <v>      -0.50000000       0.16666893       0.33333107 </v>
   <v>       0.33333107      -0.16666896      -0.50000000 </v>
   <v>       0.33333107      -0.50000000      -0.16666896 </v>
   <v>      -0.50000000      -0.16666896       0.33333107 </v>
   <v>      -0.50000000       0.33333107      -0.16666896 </v>
   <v>      -0.16666896       0.33333107      -0.50000000 </v>
   <v>      -0.16666896      -0.50000000       0.33333107 </v>
   <v>       0.00000000      -0.50000000      -0.50000000 </v>
   <v>      -0.50000000      -0.50000000       0.00000000 </v>
   <v>      -0.50000000       0.00000000      -0.50000000 </v>
   <v>      -0.50000000      -0.33333103      -0.50000000 </v>
   <v>      -0.33333103      -0.50000000      -0.50000000 </v>
   <v>      -0.50000000       0.33333106      -0.50000000 </v>
   <v>      -0.50000000      -0.50000000       0.33333106 </v>
   <v>      -0.50000000      -0.50000000      -0.33333333 </v>
  </varray>
 </structure>
 <varray name="primitive_index" >
  <v type="int" >        1 </v>
  <v type="int" >        2 </v>
  <v type="int" >       19 </v>
  <v type="int" >       20 </v>
  <v type="int" >        6 </v>
  <v type="int" >       14 </v>
  <v type="int" >       21 </v>
  <v type="int" >       25 </v>
  <v type="int" >       99 </v>
  <v type="int" >      100 </v>
  <v type="int" >       18 </v>
  <v type="int" >      101 </v>
  <v type="int" >      105 </v>
  <v type="int" >        5 </v>
  <v type="int" >       13 </v>
  <v type="int" >       87 </v>
  <v type="int" >        3 </v>
  <v type="int" >        7 </v>
  <v type="int" >       37 </v>
  <v type="int" >       28 </v>
  <v type="int" >       31 </v>
  <v type="int" >       79 </v>
  <v type="int" >       33 </v>
  <v type="int" >       34 </v>
  <v type="int" >       80 </v>
  <v type="int" >       83 </v>
  <v type="int" >       92 </v>
  <v type="int" >       95 </v>
  <v type="int" >       27 </v>
  <v type="int" >       29 </v>
  <v type="int" >       38 </v>
  <v type="int" >       86 </v>
  <v type="int" >       97 </v>
  <v type="int" >       98 </v>
  <v type="int" >       30 </v>
  <v type="int" >       32 </v>
  <v type="int" >       39 </v>
  <v type="int" >       42 </v>
  <v type="int" >       91 </v>
  <v type="int" >       93 </v>
  <v type="int" >       45 </v>
  <v type="int" >       94 </v>
  <v type="int" >       96 </v>
  <v type="int" >       17 </v>
  <v type="int" >       73 </v>
  <v type="int" >       77 </v>
  <v type="int" >       11 </v>
  <v type="int" >       15 </v>
  <v type="int" >       48 </v>
  <v type="int" >       52 </v>
  <v type="int" >       71 </v>
  <v type="int" >       74 </v>
  <v type="int" >        9 </v>
  <v type="int" >       46 </v>
  <v type="int" >       49 </v>
  <v type="int" >        4 </v>
  <v type="int" >        8 </v>
  <v type="int" >       35 </v>
  <v type="int" >       36 </v>
  <v type="int" >       54 </v>
  <v type="int" >       55 </v>
  <v type="int" >       12 </v>
  <v type="int" >       16 </v>
  <v type="int" >       59 </v>
  <v type="int" >       66 </v>
  <v type="int" >       89 </v>
  <v type="int" >       90 </v>
  <v type="int" >       85 </v>
  <v type="int" >       44 </v>
  <v type="int" >       82 </v>
  <v type="int" >       84 </v>
  <v type="int" >       41 </v>
  <v type="int" >       43 </v>
  <v type="int" >       81 </v>
  <v type="int" >       40 </v>
  <v type="int" >       24 </v>
  <v type="int" >       26 </v>
  <v type="int" >       58 </v>
  <v type="int" >       67 </v>
  <v type="int" >       72 </v>
  <v type="int" >       75 </v>
  <v type="int" >       69 </v>
  <v type="int" >       70 </v>
  <v type="int" >       76 </v>
  <v type="int" >       78 </v>
  <v type="int" >      104 </v>
  <v type="int" >      106 </v>
  <v type="int" >       22 </v>
  <v type="int" >       23 </v>
  <v type="int" >       47 </v>
  <v type="int" >       50 </v>
  <v type="int" >       56 </v>
  <v type="int" >       61 </v>
  <v type="int" >       51 </v>
  <v type="int" >       53 </v>
  <v type="int" >       65 </v>
  <v type="int" >       68 </v>
  <v type="int" >      102 </v>
  <v type="int" >      103 </v>
  <v type="int" >       10 </v>
  <v type="int" >       57 </v>
  <v type="int" >       60 </v>
  <v type="int" >       64 </v>
  <v type="int" >       88 </v>
  <v type="int" >       62 </v>
  <v type="int" >       63 </v>
  <v type="int" >      107 </v>
 </varray>
 <kpoints>
  <generation param="Monkhorst-Pack">
   <v type="int" name="divisions">       4        4        4 </v>
   <v name="usershift">      0.00000000       0.00000000       0.00000000 </v>
   <v name="genvec1">      0.25000000       0.00000000       0.00000000 </v>
   <v name="genvec2">      0.00000000       0.25000000       0.00000000 </v>
   <v name="genvec3">      0.00000000       0.00000000       0.25000000 </v>
   <v name="shift">      0.50000000       0.50000000       0.50000000 </v>
  </generation>
  <varray name="kpointlist" >
   <v>       0.12500000       0.12500000       0.12500000 </v>
   <v>       0.37500000       0.12500000       0.12500000 </v>
   <v>      -0.37500000       0.12500000       0.12500000 </v>
   <v>      -0.12500000       0.12500000       0.12500000 </v>
   <v>       0.12500000       0.37500000       0.12500000 </v>
   <v>       0.37500000       0.37500000       0.12500000 </v>
   <v>      -0.37500000       0.37500000       0.12500000 </v>
   <v>      -0.12500000       0.37500000       0.12500000 </v>
   <v>       0.12500000      -0.37500000       0.12500000 </v>
   <v>       0.37500000      -0.37500000       0.12500000 </v>
   <v>      -0.37500000      -0.37500000       0.12500000 </v>
   <v>      -0.12500000      -0.37500000       0.12500000 </v>
   <v>       0.12500000      -0.12500000       0.12500000 </v>
   <v>       0.37500000      -0.12500000       0.12500000 </v>
   <v>      -0.37500000      -0.12500000       0.12500000 </v>
   <v>      -0.12500000      -0.12500000       0.12500000 </v>
   <v>       0.12500000       0.12500000       0.37500000 </v>
   <v>       0.37500000       0.12500000       0.37500000 </v>
   <v>      -0.37500000       0.12500000       0.37500000 </v>
   <v>      -0.12500000       0.12500000       0.37500000 </v>
   <v>       0.12500000       0.37500000       0.37500000 </v>
   <v>       0.37500000       0.37500000       0.37500000 </v>
   <v>      -0.37500000       0.37500000       0.37500000 </v>
   <v>      -0.12500000       0.37500000       0.37500000 </v>
   <v>       0.12500000      -0.37500000       0.37500000 </v>
   <v>       0.37500000      -0.37500000       0.37500000 </v>
   <v>      -0.37500000      -0.37500000       0.37500000 </v>
   <v>      -0.12500000      -0.37500000       0.37500000 </v>
   <v>       0.12500000      -0.12500000       0.37500000 </v>
   <v>       0.37500000      -0.12500000       0.37500000 </v>
   <v>      -0.37500000      -0.12500000       0.37500000 </v>
   <v>      -0.12500000      -0.12500000       0.37500000 </v>
  </varray>
  <varray name="weights" >
   <v>       0.03125000 </v>
   <v>       0.03125000 </v>
   <v>       0.03125000 </v>
   <v>       0.03125000 </v>
   <v>       0.03125000 </v>
   <v>       0.03125000 </v>
   <v>       0.03125000 </v>
   <v>       0.03125000 </v>
   <v>       0.03125000 </v>
   <v>       0.03125000 </v>
   <v>       0.03125000 </v>
   <v>       0.03125000 </v>
   <v>       0.03125000 </v>
   <v>       0.03125000 </v>
   <v>       0.03125000 </v>
   <v>       0.03125000 </v>
   <v>       0.03125000 </v>
   <v>       0.03125000 </v>
   <v>       0.03125000 </v>
   <v>       0.03125000 </v>
   <v>       0.03125000 </v>
   <v>       0.03125000 </v>
   <v>       0.03125000 </v>
   <v>       0.03125000 </v>
   <v>       0.03125000 </v>
   <v>       0.03125000 </v>
   <v>       0.03125000 </v>
   <v>       0.03125000 </v>
   <v>       0.03125000 </v>
   <v>       0.03125000 </v>
   <v>       0.03125000 </v>
   <v>       0.03125000 </v>
  </varray>
 </kpoints>
 <parameters>
  <separator name="general" >
   <i type="string" name="SYSTEM">Opt</i>
   <i type="logical" name="LCOMPAT"> F  </i>
  </separator>
  <separator name="electronic" >
   <i type="string" name="PREC">normal</i>
   <i name="ENMAX">    400.00000000</i>
   <i name="ENAUG">    511.36800000</i>
   <i name="EDIFF">      0.00000100</i>
   <i type="int" name="IALGO">    68</i>
   <i type="int" name="IWAVPR">    11</i>
   <i type="int" name="NBANDS">   514</i>
   <i name="NELECT">    856.00000000</i>
   <i type="int" name="TURBO">     0</i>
   <i type="int" name="IRESTART">     0</i>
   <i type="int" name="NREBOOT">     0</i>
   <i type="int" name="NMIN">     0</i>
   <i name="EREF">      0.00000000</i>
   <separator name="electronic smearing" >
    <i type="int" name="ISMEAR">     1</i>
    <i name="SIGMA">      0.20000000</i>
    <i name="KSPACING">      0.50000000</i>
    <i type="logical" name="KGAMMA"> T  </i>
   </separator>
   <separator name="electronic projectors" >
    <i type="logical" name="LREAL"> T  </i>
    <v name="ROPT">     -0.00050000</v>
    <i type="int" name="LMAXPAW">  -100</i>
    <i type="int" name="LMAXMIX">     2</i>
    <i type="logical" name="NLSPLINE"> F  </i>
   </separator>
   <separator name="electronic startup" >
    <i type="int" name="ISTART">     0</i>
    <i type="int" name="ICHARG">     2</i>
    <i type="int" name="INIWAV">     1</i>
   </separator>
   <separator name="electronic spin" >
    <i type="int" name="ISPIN">     1</i>
    <i type="logical" name="LNONCOLLINEAR"> F  </i>
    <v name="MAGMOM">      1.00000000      1.00000000      1.00000000      1.00000000      1.00000000      1.00000000      1.00000000      1.00000000      1.00000000      1.00000000      1.00000000      1.00000000      1.00000000      1.00000000      1.00000000      1.00000000      1.00000000      1.00000000      1.00000000      1.00000000
      1.00000000      1.00000000      1.00000000      1.00000000      1.00000000      1.00000000      1.00000000      1.00000000      1.00000000      1.00000000      1.00000000      1.00000000      1.00000000      1.00000000      1.00000000      1.00000000      1.00000000      1.00000000      1.00000000      1.00000000
      1.00000000      1.00000000      1.00000000      1.00000000      1.00000000      1.00000000      1.00000000      1.00000000      1.00000000      1.00000000      1.00000000      1.00000000      1.00000000      1.00000000      1.00000000      1.00000000      1.00000000      1.00000000      1.00000000      1.00000000
      1.00000000      1.00000000      1.00000000      1.00000000      1.00000000      1.00000000      1.00000000      1.00000000      1.00000000      1.00000000      1.00000000      1.00000000      1.00000000      1.00000000      1.00000000      1.00000000      1.00000000      1.00000000      1.00000000      1.00000000
      1.00000000      1.00000000      1.00000000      1.00000000      1.00000000      1.00000000      1.00000000      1.00000000      1.00000000      1.00000000      1.00000000      1.00000000      1.00000000      1.00000000      1.00000000      1.00000000      1.00000000      1.00000000      1.00000000      1.00000000
      1.00000000      1.00000000      1.00000000      1.00000000      1.00000000      1.00000000      1.00000000</v>
    <i name="NUPDOWN">     -1.00000000</i>
    <i type="logical" name="LSORBIT"> F  </i>
    <v name="SAXIS">      0.00000000      0.00000000      1.00000000</v>
    <i type="logical" name="LSPIRAL"> F  </i>
    <v name="QSPIRAL">      0.00000000      0.00000000      0.00000000</v>
    <i type="logical" name="LZEROZ"> F  </i>
   </separator>
   <separator name="electronic exchange-correlation" >
    <i type="logical" name="LASPH"> F  </i>
    <i type="logical" name="LMETAGGA"> F  </i>
   </separator>
   <separator name="electronic convergence" >
    <i type="int" name="NELM">   400</i>
    <i type="int" name="NELMDL">    -5</i>
    <i type="int" name="NELMIN">     2</i>
    <i name="ENINI">    400.00000000</i>
    <separator name="electronic convergence detail" >
     <i type="logical" name="LDIAG"> T  </i>
     <i type="logical" name="LSUBROT"> F  </i>
     <i name="WEIMIN">      0.00100000</i>
     <i name="EBREAK">      0.00000000</i>
     <i name="DEPER">      0.30000000</i>
     <i type="int" name="NRMM">     4</i>
     <i name="TIME">      0.40000000</i>
    </separator>
   </separator>
   <separator name="electronic mixer" >
    <i name="AMIX">      0.40000000</i>
    <i name="BMIX">      1.00000000</i>
    <i name="AMIN">      0.10000000</i>
    <i name="AMIX_MAG">      1.60000000</i>
    <i name="BMIX_MAG">      1.00000000</i>
    <separator name="electronic mixer details" >
     <i type="int" name="IMIX">     4</i>
     <i type="logical" name="MIXFIRST"> F  </i>
     <i type="int" name="MAXMIX">   -45</i>
     <i name="WC">    100.00000000</i>
     <i type="int" name="INIMIX">     1</i>
     <i type="int" name="MIXPRE">     1</i>
     <i type="int" name="MREMOVE">     5</i>
    </separator>
   </separator>
   <separator name="electronic dipolcorrection" >
    <i type="logical" name="LDIPOL"> F  </i>
    <i type="logical" name="LMONO"> F  </i>
    <i type="int" name="IDIPOL">     0</i>
    <i name="EPSILON">      1.00000000</i>
    <v name="DIPOL">   -100.00000000   -100.00000000   -100.00000000</v>
    <i name="EFIELD">      0.00000000</i>
   </separator>
  </separator>
  <separator name="grids" >
   <i type="int" name="NGX">    72</i>
   <i type="int" name="NGY">    72</i>
   <i type="int" name="NGZ">    72</i>
   <i type="int" name="NGXF">   144</i>
   <i type="int" name="NGYF">   144</i>
   <i type="int" name="NGZF">   144</i>
   <i type="logical" name="ADDGRID"> F  </i>
  </separator>
  <separator name="ionic" >
   <i type="int" name="NSW">   100</i>
   <i type="int" name="IBRION">     2</i>
   <i type="int" name="MDALGO">     0</i>
   <i type="int" name="ISIF">     2</i>
   <i name="PSTRESS">      0.00000000</i>
   <i name="EDIFFG">     -0.01000000</i>
   <i type="int" name="NFREE">     1</i>
   <i name="POTIM">      0.50000000</i>
   <i name="SMASS">     -3.00000000</i>
   <i name="SCALEE">      1.00000000</i>
  </separator>
  <separator name="ionic md" >
   <i name="TEBEG">      0.00010000</i>
   <i name="TEEND">      0.00010000</i>
   <i type="int" name="NBLOCK">     1</i>
   <i type="int" name="KBLOCK">   100</i>
   <i type="int" name="NPACO">   256</i>
   <i name="APACO">     16.00000000</i>
  </separator>
  <separator name="symmetry" >
   <i type="int" name="ISYM">     0</i>
   <i name="SYMPREC">      0.00001000</i>
  </separator>
  <separator name="dos" >
   <i type="int" name="LORBIT">     0</i>
   <v name="RWIGS">     -1.00000000</v>
   <i type="int" name="NEDOS">   301</i>
   <i name="EMIN">     10.00000000</i>
   <i name="EMAX">    -10.00000000</i>
   <i name="EFERMI">      0.00000000</i>
  </separator>
  <separator name="writing" >
   <i type="int" name="NWRITE">     2</i>
   <i type="logical" name="LWAVE"> F  </i>
   <i type="logical" name="LDOWNSAMPLE"> F  </i>
   <i type="logical" name="LCHARG"> F  </i>
   <i type="logical" name="LPARD"> F  </i>
   <i type="logical" name="LVTOT"> F  </i>
   <i type="logical" name="LVHAR"> F  </i>
   <i type="logical" name="LELF"> F  </i>
   <i type="logical" name="LOPTICS"> F  </i>
   <v name="STM">      0.00000000      0.00000000      0.00000000      0.00000000      0.00000000      0.00000000      0.00000000</v>
  </separator>
  <separator name="performance" >
   <i type="int" name="NPAR">     2</i>
   <i type="int" name="NSIM">     4</i>
   <i type="int" name="NBLK">    -1</i>
   <i type="logical" name="LPLANE"> T  </i>
   <i type="logical" name="LSCALAPACK"> T  </i>
   <i type="logical" name="LSCAAWARE"> F  </i>
   <i type="logical" name="LSCALU"> F  </i>
   <i type="logical" name="LASYNC"> F  </i>
   <i type="logical" name="LORBITALREAL"> F  </i>
  </separator>
  <separator name="miscellaneous" >
   <i type="int" name="IDIOT">     3</i>
   <i type="int" name="ISPECIAL">     0</i>
   <i type="logical" name="LMUSIC"> F  </i>
   <v name="POMASS">     55.84700000</v>
   <v name="DARWINR">      0.00000000</v>
   <v name="DARWINV">      1.00000000</v>
   <i type="logical" name="LCORR"> T  </i>
  </separator>
  <i type="logical" name="GGA_COMPAT"> T  </i>
  <i type="logical" name="LBERRY"> F  </i>
  <i type="int" name="ICORELEVEL">     0</i>
  <i type="logical" name="LDAU"> F  </i>
  <i type="int" name="I_CONSTRAINED_M">     0</i>
  <separator name="electronic exchange-correlation" >
   <i type="string" name="GGA">--</i>
   <i type="int" name="VOSKOWN">     0</i>
   <i type="logical" name="LHFCALC"> F  </i>
   <i type="string" name="PRECFOCK"></i>
   <i type="logical" name="LSYMGRAD"> F  </i>
   <i type="logical" name="LHFONE"> F  </i>
   <i type="logical" name="LRHFCALC"> F  </i>
   <i type="logical" name="LTHOMAS"> F  </i>
   <i type="logical" name="LMODELHF"> F  </i>
   <i name="ENCUT4O">     -1.00000000</i>
   <i type="int" name="EXXOEP">     0</i>
   <i type="int" name="FOURORBIT">     0</i>
   <i name="AEXX">      0.00000000</i>
   <i name="HFALPHA">      0.00000000</i>
   <i name="MCALPHA">      0.00000000</i>
   <i name="ALDAX">      1.00000000</i>
   <i name="AGGAX">      1.00000000</i>
   <i name="ALDAC">      1.00000000</i>
   <i name="AGGAC">      1.00000000</i>
   <i type="int" name="NKREDX">     1</i>
   <i type="int" name="NKREDY">     1</i>
   <i type="int" name="NKREDZ">     1</i>
   <i type="logical" name="SHIFTRED"> F  </i>
   <i type="logical" name="ODDONLY"> F  </i>
   <i type="logical" name="EVENONLY"> F  </i>
   <i type="int" name="LMAXFOCK">     0</i>
   <i type="int" name="NMAXFOCKAE">     0</i>
   <i type="logical" name="LFOCKAEDFT"> F  </i>
   <i name="HFSCREEN">      0.00000000</i>
   <i name="HFSCREENC">      0.00000000</i>
   <i type="int" name="NBANDSGWLOW">     0</i>
  </separator>
  <separator name="vdW DFT" >
   <i type="logical" name="LUSE_VDW"> F  </i>
   <i name="Zab_VDW">     -0.84910000</i>
   <i name="PARAM1">      0.12340000</i>
   <i name="PARAM2">      1.00000000</i>
   <i name="PARAM3">      0.00000000</i>
  </separator>
  <separator name="model GW" >
   <i type="int" name="MODEL_GW">     0</i>
   <i name="MODEL_EPS0">      6.18984300</i>
   <i name="MODEL_ALPHA">      1.00000000</i>
  </separator>
  <separator name="linear response parameters" >
   <i type="logical" name="LEPSILON"> F  </i>
   <i type="logical" name="LRPA"> F  </i>
   <i type="logical" name="LNABLA"> F  </i>
   <i type="logical" name="LVEL"> F  </i>
   <i type="int" name="KINTER">     0</i>
   <i name="CSHIFT">      0.10000000</i>
   <i name="OMEGAMAX">     -1.00000000</i>
   <i name="DEG_THRESHOLD">      0.00200000</i>
   <i name="RTIME">     -0.10000000</i>
   <i name="WPLASMAI">      0.00000000</i>
   <v name="DFIELD">      0.00000000      0.00000000      0.00000000</v>
   <v name="WPLASMA">      0.00000000      0.00000000      0.00000000      0.00000000      0.00000000      0.00000000      0.00000000      0.00000000      0.00000000</v>
  </separator>
  <separator name="orbital magnetization" >
   <i type="logical" name="NUCIND"> F  </i>
   <v name="MAGPOS">      0.00000000      0.00000000      0.00000000</v>
   <i type="logical" name="LNICSALL"> T  </i>
   <i type="logical" name="ORBITALMAG"> F  </i>
   <i type="logical" name="LMAGBLOCH"> F  </i>
   <i type="logical" name="LCHIMAG"> F  </i>
   <i type="logical" name="LGAUGE"> T  </i>
   <i type="int" name="MAGATOM">     0</i>
   <v name="MAGDIPOL">      0.00000000      0.00000000      0.00000000</v>
   <v name="AVECCONST">      0.00000000      0.00000000      0.00000000</v>
  </separator>
  <separator name="response functions" >
   <i type="logical" name="LADDER"> F  </i>
   <i type="logical" name="LRPAFORCE"> F  </i>
   <i type="logical" name="LFXC"> F  </i>
   <i type="logical" name="LHARTREE"> T  </i>
   <i type="int" name="IBSE">     0</i>
   <v type="int" name="KPOINT">    -1     0     0     0</v>
   <i type="logical" name="LTCTE"> F  </i>
   <i type="logical" name="LTETE"> F  </i>
   <i type="logical" name="LTRIPLET"> F  </i>
   <i type="logical" name="LFXCEPS"> F  </i>
   <i type="logical" name="LFXHEG"> F  </i>
   <i type="int" name="NATURALO">     2</i>
   <i type="logical" name="L2ORDER"> F  </i>
   <i type="logical" name="LMP2LT"> F  </i>
   <i type="logical" name="LUSEW"> F  </i>
   <i name="ENCUTGW">     -2.00000000</i>
   <i name="ENCUTGWSOFT">     -2.00000000</i>
   <i name="ENCUTLF">     -1.00000000</i>
   <i type="int" name="LMAXMP2">    -1</i>
   <i name="SCISSOR">      0.00000000</i>
   <i type="int" name="NOMEGA">     0</i>
   <i type="int" name="NOMEGAR">     0</i>
   <i type="int" name="NBANDSGW">    -1</i>
   <i type="int" name="NBANDSO">    -1</i>
   <i type="int" name="NBANDSV">    -1</i>
   <i type="int" name="NELM">   400</i>
   <i type="int" name="NELMHF">     1</i>
   <i type="int" name="DIM">     3</i>
   <i type="int" name="ANTIRES">     0</i>
   <i name="OMEGAMAX">    -30.00000000</i>
   <i name="OMEGAMIN">    -30.00000000</i>
   <i name="OMEGATL">   -200.00000000</i>
   <i type="int" name="OMEGAGRID">   140</i>
   <i name="CSHIFT">     -0.10000000</i>
   <i type="logical" name="SELFENERGY"> F  </i>
   <i type="logical" name="LSPECTRAL"> F  </i>
   <i type="logical" name="LSPECTRALGW"> F  </i>
   <i type="logical" name="LSINGLES"> F  </i>
   <i type="logical" name="LFERMIGW"> F  </i>
   <i type="logical" name="ODDONLYGW"> F  </i>
   <i type="logical" name="EVENONLYGW"> F  </i>
   <i type="int" name="NKREDLFX">     1</i>
   <i type="int" name="NKREDLFY">     1</i>
   <i type="int" name="NKREDLFZ">     1</i>
   <i type="int" name="MAXMEM">  2800</i>
   <i type="int" name="TELESCOPE">     0</i>
   <i type="int" name="TAUPAR">     1</i>
   <i type="int" name="OMEGAPAR">    -1</i>
   <i name="LAMBDA">      1.00000000</i>
  </separator>
  <separator name="External order field" >
   <i name="OFIELD_KAPPA">      0.00000000</i>
   <v name="OFIELD_K">      0.00000000      0.00000000      0.00000000</v>
   <i name="OFIELD_Q6_NEAR">      0.00000000</i>
   <i name="OFIELD_Q6_FAR">      0.00000000</i>
   <i name="OFIELD_A">      0.00000000</i>
  </separator>
 </parameters>
 <atominfo>
  <atoms>     107 </atoms>
  <types>       1 </types>
  <array name="atoms" >
   <dimension dim="1">ion</dimension>
   <field type="string">element</field>
   <field type="int">atomtype</field>
   <set>
    <rc><c>Fe</c><c>   1</c></rc>
    <rc><c>Fe</c><c>   1</c></rc>
    <rc><c>Fe</c><c>   1</c></rc>
    <rc><c>Fe</c><c>   1</c></rc>
    <rc><c>Fe</c><c>   1</c></rc>
    <rc><c>Fe</c><c>   1</c></rc>
    <rc><c>Fe</c><c>   1</c></rc>
    <rc><c>Fe</c><c>   1</c></rc>
    <rc><c>Fe</c><c>   1</c></rc>
    <rc><c>Fe</c><c>   1</c></rc>
    <rc><c>Fe</c><c>   1</c></rc>
    <rc><c>Fe</c><c>   1</c></rc>
    <rc><c>Fe</c><c>   1</c></rc>
    <rc><c>Fe</c><c>   1</c></rc>
    <rc><c>Fe</c><c>   1</c></rc>
    <rc><c>Fe</c><c>   1</c></rc>
    <rc><c>Fe</c><c>   1</c></rc>
    <rc><c>Fe</c><c>   1</c></rc>
    <rc><c>Fe</c><c>   1</c></rc>
    <rc><c>Fe</c><c>   1</c></rc>
    <rc><c>Fe</c><c>   1</c></rc>
    <rc><c>Fe</c><c>   1</c></rc>
    <rc><c>Fe</c><c>   1</c></rc>
    <rc><c>Fe</c><c>   1</c></rc>
    <rc><c>Fe</c><c>   1</c></rc>
    <rc><c>Fe</c><c>   1</c></rc>
    <rc><c>Fe</c><c>   1</c></rc>
    <rc><c>Fe</c><c>   1</c></rc>
    <rc><c>Fe</c><c>   1</c></rc>
    <rc><c>Fe</c><c>   1</c></rc>
    <rc><c>Fe</c><c>   1</c></rc>
    <rc><c>Fe</c><c>   1</c></rc>
    <rc><c>Fe</c><c>   1</c></rc>
    <rc><c>Fe</c><c>   1</c></rc>
    <rc><c>Fe</c><c>   1</c></rc>
    <rc><c>Fe</c><c>   1</c></rc>
    <rc><c>Fe</c><c>   1</c></rc>
    <rc><c>Fe</c><c>   1</c></rc>
    <rc><c>Fe</c><c>   1</c></rc>
    <rc><c>Fe</c><c>   1</c></rc>
    <rc><c>Fe</c><c>   1</c></rc>
    <rc><c>Fe</c><c>   1</c></rc>
    <rc><c>Fe</c><c>   1</c></rc>
    <rc><c>Fe</c><c>   1</c></rc>
    <rc><c>Fe</c><c>   1</c></rc>
    <rc><c>Fe</c><c>   1</c></rc>
    <rc><c>Fe</c><c>   1</c></rc>
    <rc><c>Fe</c><c>   1</c></rc>
    <rc><c>Fe</c><c>   1</c></rc>
    <rc><c>Fe</c><c>   1</c></rc>
    <rc><c>Fe</c><c>   1</c></rc>
    <rc><c>Fe</c><c>   1</c></rc>
    <rc><c>Fe</c><c>   1</c></rc>
    <rc><c>Fe</c><c>   1</c></rc>
    <rc><c>Fe</c><c>   1</c></rc>
    <rc><c>Fe</c><c>   1</c></rc>
    <rc><c>Fe</c><c>   1</c></rc>
    <rc><c>Fe</c><c>   1</c></rc>
    <rc><c>Fe</c><c>   1</c></rc>
    <rc><c>Fe</c><c>   1</c></rc>
    <rc><c>Fe</c><c>   1</c></rc>
    <rc><c>Fe</c><c>   1</c></rc>
    <rc><c>Fe</c><c>   1</c></rc>
    <rc><c>Fe</c><c>   1</c></rc>
    <rc><c>Fe</c><c>   1</c></rc>
    <rc><c>Fe</c><c>   1</c></rc>
    <rc><c>Fe</c><c>   1</c></rc>
    <rc><c>Fe</c><c>   1</c></rc>
    <rc><c>Fe</c><c>   1</c></rc>
    <rc><c>Fe</c><c>   1</c></rc>
    <rc><c>Fe</c><c>   1</c></rc>
    <rc><c>Fe</c><c>   1</c></rc>
    <rc><c>Fe</c><c>   1</c></rc>
    <rc><c>Fe</c><c>   1</c></rc>
    <rc><c>Fe</c><c>   1</c></rc>
    <rc><c>Fe</c><c>   1</c></rc>
    <rc><c>Fe</c><c>   1</c></rc>
    <rc><c>Fe</c><c>   1</c></rc>
    <rc><c>Fe</c><c>   1</c></rc>
    <rc><c>Fe</c><c>   1</c></rc>
    <rc><c>Fe</c><c>   1</c></rc>
    <rc><c>Fe</c><c>   1</c></rc>
    <rc><c>Fe</c><c>   1</c></rc>
    <rc><c>Fe</c><c>   1</c></rc>
    <rc><c>Fe</c><c>   1</c></rc>
    <rc><c>Fe</c><c>   1</c></rc>
    <rc><c>Fe</c><c>   1</c></rc>
    <rc><c>Fe</c><c>   1</c></rc>
    <rc><c>Fe</c><c>   1</c></rc>
    <rc><c>Fe</c><c>   1</c></rc>
    <rc><c>Fe</c><c>   1</c></rc>
    <rc><c>Fe</c><c>   1</c></rc>
    <rc><c>Fe</c><c>   1</c></rc>
    <rc><c>Fe</c><c>   1</c></rc>
    <rc><c>Fe</c><c>   1</c></rc>
    <rc><c>Fe</c><c>   1</c></rc>
    <rc><c>Fe</c><c>   1</c></rc>
    <rc><c>Fe</c><c>   1</c></rc>
    <rc><c>Fe</c><c>   1</c></rc>
    <rc><c>Fe</c><c>   1</c></rc>
    <rc><c>Fe</c><c>   1</c></rc>
    <rc><c>Fe</c><c>   1</c></rc>
    <rc><c>Fe</c><c>   1</c></rc>
    <rc><c>Fe</c><c>   1</c></rc>
    <rc><c>Fe</c><c>   1</c></rc>
    <rc><c>Fe</c><c>   1</c></rc>
    <rc><c>Fe</c><c>   1</c></rc>
   </set>
  </array>
  <array name="atomtypes" >
   <dimension dim="1">type</dimension>
   <field type="int">atomspertype</field>
   <field type="string">element</field>
   <field>mass</field>
   <field>valence</field>
   <field type="string">pseudopotential</field>
   <set>
    <rc><c> 107</c><c>Fe</c><c>     55.84700000</c><c>      8.00000000</c><c> PAW_PBE Fe 06Sep2000                   </c></rc>
   </set>
  </array>
 </atominfo>
 <structure name="initialpos" >
  <crystal>
   <varray name="basis" >
    <v>      10.33484705       0.00000000       0.00000000 </v>
    <v>       0.00000000      10.33484705       0.00000000 </v>
    <v>       0.00000000       0.00000000      10.33484705 </v>
   </varray>
   <i name="volume">   1103.85533447 </i>
   <varray name="rec_basis" >
    <v>       0.09676002       0.00000000       0.00000000 </v>
    <v>       0.00000000       0.09676002       0.00000000 </v>
    <v>       0.00000000       0.00000000       0.09676002 </v>
   </varray>
  </crystal>
  <varray name="positions" >
   <v>       0.00000000       0.00000000       0.00000000 </v>
   <v>       0.00000000       0.16666893       0.16666893 </v>
   <v>       0.00000000       0.33333106       0.00000000 </v>
   <v>       0.00000000       0.50000000       0.16666894 </v>
   <v>       0.00000000       0.66666897       0.00000000 </v>
   <v>       0.00000000       0.83333104       0.16666893 </v>
   <v>       0.00000000       0.00000000       0.33333106 </v>
   <v>       0.00000000       0.16666894       0.50000000 </v>
   <v>       0.00000000       0.33333107       0.33333107 </v>
   <v>       0.00000000       0.50000000       0.50000000 </v>
   <v>       0.00000000       0.66666896       0.33333107 </v>
   <v>       0.00000000       0.83333103       0.50000000 </v>
   <v>       0.00000000       0.00000000       0.66666897 </v>
   <v>       0.00000000       0.16666893       0.83333104 </v>
   <v>       0.00000000       0.33333107       0.66666896 </v>
   <v>       0.00000000       0.50000000       0.83333103 </v>
   <v>       0.00000000       0.66666896       0.66666896 </v>
   <v>       0.00000000       0.83333104       0.83333104 </v>
   <v>       0.16666893       0.00000000       0.16666893 </v>
   <v>       0.16666893       0.16666893       0.00000000 </v>
   <v>       0.16666893       0.83333104       0.00000000 </v>
   <v>       0.16666893       0.33333107       0.50000000 </v>
   <v>       0.16666893       0.50000000       0.33333107 </v>
   <v>       0.16666893       0.66666896       0.50000000 </v>
   <v>       0.16666893       0.00000000       0.83333104 </v>
   <v>       0.16666893       0.50000000       0.66666896 </v>
   <v>       0.16666893       0.33333107       0.16666893 </v>
   <v>       0.16666893       0.66666896       0.16666893 </v>
   <v>       0.16666893       0.16666893       0.33333107 </v>
   <v>       0.16666893       0.83333104       0.33333107 </v>
   <v>       0.16666893       0.16666893       0.66666896 </v>
   <v>       0.16666893       0.33333107       0.83333104 </v>
   <v>       0.16666893       0.66666896       0.83333104 </v>
   <v>       0.16666893       0.83333104       0.66666896 </v>
   <v>       0.16666894       0.50000000       0.00000000 </v>
   <v>       0.16666894       0.00000000       0.50000000 </v>
   <v>       0.33333106       0.00000000       0.00000000 </v>
   <v>       0.33333107       0.16666893       0.16666893 </v>
   <v>       0.33333107       0.83333104       0.16666893 </v>
   <v>       0.33333107       0.33333107       0.33333107 </v>
   <v>       0.33333107       0.66666896       0.33333107 </v>
   <v>       0.33333107       0.16666893       0.83333104 </v>
   <v>       0.33333107       0.33333107       0.66666896 </v>
   <v>       0.33333107       0.66666896       0.66666896 </v>
   <v>       0.33333107       0.83333104       0.83333104 </v>
   <v>       0.33333107       0.33333107       0.00000000 </v>
   <v>       0.33333107       0.50000000       0.16666893 </v>
   <v>       0.33333107       0.66666896       0.00000000 </v>
   <v>       0.33333107       0.00000000       0.33333107 </v>
   <v>       0.33333107       0.16666893       0.50000000 </v>
   <v>       0.33333107       0.83333104       0.50000000 </v>
   <v>       0.33333107       0.00000000       0.66666896 </v>
   <v>       0.33333107       0.50000000       0.83333104 </v>
   <v>       0.50000000       0.00000000       0.16666894 </v>
   <v>       0.50000000       0.16666894       0.00000000 </v>
   <v>       0.50000000       0.33333107       0.16666893 </v>
   <v>       0.50000000       0.50000000       0.00000000 </v>
   <v>       0.50000000       0.66666896       0.16666893 </v>
   <v>       0.50000000       0.83333103       0.00000000 </v>
   <v>       0.50000000       0.00000000       0.50000000 </v>
   <v>       0.50000000       0.16666893       0.33333107 </v>
   <v>       0.50000000       0.33333106       0.50000000 </v>
   <v>       0.50000000       0.50000000       0.33333106 </v>
   <v>       0.50000000       0.66666897       0.50000000 </v>
   <v>       0.50000000       0.83333104       0.33333107 </v>
   <v>       0.50000000       0.00000000       0.83333103 </v>
   <v>       0.50000000       0.16666893       0.66666896 </v>
   <v>       0.50000000       0.33333107       0.83333104 </v>
   <v>       0.50000000       0.66666896       0.83333104 </v>
   <v>       0.50000000       0.83333104       0.66666896 </v>
   <v>       0.66666896       0.33333107       0.00000000 </v>
   <v>       0.66666896       0.50000000       0.16666893 </v>
   <v>       0.66666896       0.66666896       0.00000000 </v>
   <v>       0.66666896       0.00000000       0.33333107 </v>
   <v>       0.66666896       0.16666893       0.50000000 </v>
   <v>       0.66666896       0.83333104       0.50000000 </v>
   <v>       0.66666896       0.00000000       0.66666896 </v>
   <v>       0.66666896       0.50000000       0.83333104 </v>
   <v>       0.66666896       0.16666893       0.16666893 </v>
   <v>       0.66666896       0.83333104       0.16666893 </v>
   <v>       0.66666896       0.33333107       0.33333107 </v>
   <v>       0.66666896       0.66666896       0.33333107 </v>
   <v>       0.66666896       0.16666893       0.83333104 </v>
   <v>       0.66666896       0.33333107       0.66666896 </v>
   <v>       0.66666896       0.66666896       0.66666896 </v>
   <v>       0.66666896       0.83333104       0.83333104 </v>
   <v>       0.66666897       0.00000000       0.00000000 </v>
   <v>       0.66666897       0.50000000       0.50000000 </v>
   <v>       0.83333103       0.50000000       0.00000000 </v>
   <v>       0.83333103       0.00000000       0.50000000 </v>
   <v>       0.83333104       0.33333107       0.16666893 </v>
   <v>       0.83333104       0.66666896       0.16666893 </v>
   <v>       0.83333104       0.16666893       0.33333107 </v>
   <v>       0.83333104       0.83333104       0.33333107 </v>
   <v>       0.83333104       0.16666893       0.66666896 </v>
   <v>       0.83333104       0.33333107       0.83333104 </v>
   <v>       0.83333104       0.66666896       0.83333104 </v>
   <v>       0.83333104       0.83333104       0.66666896 </v>
   <v>       0.83333104       0.00000000       0.16666893 </v>
   <v>       0.83333104       0.16666893       0.00000000 </v>
   <v>       0.83333104       0.83333104       0.00000000 </v>
   <v>       0.83333104       0.33333107       0.50000000 </v>
   <v>       0.83333104       0.50000000       0.33333107 </v>
   <v>       0.83333104       0.66666896       0.50000000 </v>
   <v>       0.83333104       0.00000000       0.83333104 </v>
   <v>       0.83333104       0.50000000       0.66666896 </v>
   <v>       0.50000000       0.50000000       0.66666667 </v>
  </varray>
 </structure>
 <calculation>
  <scstep>
   <time name="dav">  291.13  291.15</time>
   <time name="total">  291.52  291.54</time>
   <energy>
    <i name="alphaZ">   7165.75404585 </i>
    <i name="ewald"> -65132.79271905 </i>
    <i name="hartreedc"> -11421.99565086 </i>
    <i name="XCdc">    440.44461950 </i>
    <i name="pawpsdc">  51244.96395782 </i>
    <i name="pawaedc"> -52061.72305433 </i>
    <i name="eentropy">      0.00037338 </i>
    <i name="bandstr">  13667.25130814 </i>
    <i name="atom">  63607.21096501 </i>
    <i name="e_fr_energy">   7509.11384547 </i>
    <i name="e_wo_entrp">   7509.11347209 </i>
    <i name="e_0_energy">   7509.11372101 </i>
   </energy>
  </scstep>
  <scstep>
   <time name="dav">  285.02  285.00</time>
   <time name="total">  285.07  285.05</time>
   <energy>
    <i name="e_fr_energy">    -26.30438313 </i>
    <i name="e_wo_entrp">    -26.31200477 </i>
    <i name="e_0_energy">    -26.30692368 </i>
   </energy>
  </scstep>
  <scstep>
   <time name="dav">  240.55  240.53</time>
   <time name="total">  240.60  240.58</time>
   <energy>
    <i name="e_fr_energy">   -842.07143124 </i>
    <i name="e_wo_entrp">   -842.09782754 </i>
    <i name="e_0_energy">   -842.08023001 </i>
   </energy>
  </scstep>
  <scstep>
   <time name="dav">  506.66  506.62</time>
   <time name="total">  506.72  506.69</time>
   <energy>
    <i name="e_fr_energy">  -1017.55701754 </i>
    <i name="e_wo_entrp">  -1017.51874861 </i>
    <i name="e_0_energy">  -1017.54426123 </i>
   </energy>
  </scstep>
  <scstep>
   <time name="dav">  471.69  471.66</time>
   <time name="total">  486.87  486.84</time>
   <energy>
    <i name="e_fr_energy">  -1032.59332300 </i>
    <i name="e_wo_entrp">  -1032.53632757 </i>
    <i name="e_0_energy">  -1032.57432452 </i>
   </energy>
  </scstep>
  <scstep>
   <time name="diag">   41.63   41.63</time>
   <time name="diis">  193.28  193.27</time>
   <time name="orth">    8.18    8.18</time>
   <time name="total">  258.51  258.49</time>
   <energy>
    <i name="e_fr_energy">   -886.75388815 </i>
    <i name="e_wo_entrp">   -886.79601779 </i>
    <i name="e_0_energy">   -886.76793136 </i>
   </energy>
  </scstep>
  <scstep>
   <time name="diag">   41.59   41.60</time>
   <time name="diis">  254.19  254.20</time>
   <time name="orth">    8.17    8.17</time>
   <time name="total">  319.50  319.51</time>
   <energy>
    <i name="e_fr_energy">  -1177.07233484 </i>
    <i name="e_wo_entrp">  -1177.06772156 </i>
    <i name="e_0_energy">  -1177.07079708 </i>
   </energy>
  </scstep>
  <scstep>
   <time name="diag">   41.65   41.66</time>
   <time name="diis">  193.02  193.01</time>
   <time name="orth">    8.17    8.17</time>
   <time name="total">  258.31  258.31</time>
   <energy>
    <i name="e_fr_energy">   -875.92472394 </i>
    <i name="e_wo_entrp">   -875.83382507 </i>
    <i name="e_0_energy">   -875.89442432 </i>
   </energy>
  </scstep>
  <scstep>
   <time name="diag">   41.57   41.56</time>
   <time name="diis">  216.01  216.00</time>
   <time name="orth">    7.77    7.77</time>
   <time name="total">  280.47  280.46</time>
   <energy>
    <i name="e_fr_energy">   -869.93542513 </i>
    <i name="e_wo_entrp">   -869.88049340 </i>
    <i name="e_0_energy">   -869.91711455 </i>
   </energy>
  </scstep>
  <scstep>
   <time name="diag">   42.67   42.67</time>
   <time name="diis">  282.71  282.70</time>
   <time name="orth">    8.40    8.39</time>
   <time name="total">  350.06  350.04</time>
   <energy>
    <i name="e_fr_energy">   -873.26890216 </i>
    <i name="e_wo_entrp">   -873.23839140 </i>
    <i name="e_0_energy">   -873.25873191 </i>
   </energy>
  </scstep>
  <scstep>
   <time name="diag">   43.68   43.69</time>
   <time name="diis">  221.47  221.45</time>
   <time name="orth">    8.23    8.23</time>
   <time name="total">  289.62  289.61</time>
   <energy>
    <i name="e_fr_energy">   -870.92205275 </i>
    <i name="e_wo_entrp">   -870.88907312 </i>
    <i name="e_0_energy">   -870.91105954 </i>
   </energy>
  </scstep>
  <scstep>
   <time name="diag">   43.82   43.82</time>
   <time name="diis">  284.90  284.89</time>
   <time name="orth">    8.39    8.39</time>
   <time name="total">  353.32  353.31</time>
   <energy>
    <i name="e_fr_energy">   -870.68817146 </i>
    <i name="e_wo_entrp">   -870.64373220 </i>
    <i name="e_0_energy">   -870.67335837 </i>
   </energy>
  </scstep>
  <scstep>
   <time name="diag">   43.47   43.47</time>
   <time name="diis">  205.94  205.93</time>
   <time name="orth">    8.42    8.42</time>
   <time name="total">  274.12  274.11</time>
   <energy>
    <i name="e_fr_energy">   -869.38323743 </i>
    <i name="e_wo_entrp">   -869.32149501 </i>
    <i name="e_0_energy">   -869.36265662 </i>
   </energy>
  </scstep>
  <scstep>
   <time name="diag">   43.49   43.49</time>
   <time name="diis">  280.74  280.73</time>
   <time name="orth">    8.41    8.41</time>
   <time name="total">  348.84  348.83</time>
   <energy>
    <i name="e_fr_energy">   -869.45408314 </i>
    <i name="e_wo_entrp">   -869.39165302 </i>
    <i name="e_0_energy">   -869.43327310 </i>
   </energy>
  </scstep>
  <scstep>
   <time name="diag">   43.46   43.46</time>
   <time name="diis">  228.60  228.60</time>
   <time name="orth">    8.38    8.38</time>
   <time name="total">  296.53  296.53</time>
   <energy>
    <i name="e_fr_energy">   -869.32870886 </i>
    <i name="e_wo_entrp">   -869.26439538 </i>
    <i name="e_0_energy">   -869.30727103 </i>
   </energy>
  </scstep>
  <scstep>
   <time name="diag">   43.40   43.40</time>
   <time name="diis">  213.59  213.57</time>
   <time name="orth">    8.39    8.40</time>
   <time name="total">  281.50  281.48</time>
   <energy>
    <i name="e_fr_energy">   -869.18394893 </i>
    <i name="e_wo_entrp">   -869.11834955 </i>
    <i name="e_0_energy">   -869.16208247 </i>
   </energy>
  </scstep>
  <scstep>
   <time name="diag">   43.33   43.33</time>
   <time name="diis">  201.76  201.78</time>
   <time name="orth">    8.38    8.38</time>
   <time name="total">  269.45  269.47</time>
   <energy>
    <i name="e_fr_energy">   -869.06371187 </i>
    <i name="e_wo_entrp">   -868.99737359 </i>
    <i name="e_0_energy">   -869.04159911 </i>
   </energy>
  </scstep>
  <scstep>
   <time name="diag">   43.49   43.49</time>
   <time name="diis">  214.95  214.95</time>
   <time name="orth">    8.38    8.38</time>
   <time name="total">  282.95  282.96</time>
   <energy>
    <i name="e_fr_energy">   -868.95667302 </i>
    <i name="e_wo_entrp">   -868.89121722 </i>
    <i name="e_0_energy">   -868.93485442 </i>
   </energy>
  </scstep>
  <scstep>
   <time name="diag">   43.42   43.42</time>
   <time name="diis">  290.85  290.84</time>
   <time name="orth">    8.38    8.38</time>
   <time name="total">  358.64  358.63</time>
   <energy>
    <i name="e_fr_energy">   -868.96991108 </i>
    <i name="e_wo_entrp">   -868.90500156 </i>
    <i name="e_0_energy">   -868.94827457 </i>
   </energy>
  </scstep>
  <scstep>
   <time name="diag">   43.23   43.23</time>
   <time name="diis">  248.27  248.26</time>
   <time name="orth">    8.39    8.39</time>
   <time name="total">  315.84  315.83</time>
   <energy>
    <i name="e_fr_energy">   -868.97599904 </i>
    <i name="e_wo_entrp">   -868.91220384 </i>
    <i name="e_0_energy">   -868.95473397 </i>
   </energy>
  </scstep>
  <scstep>
   <time name="diag">   43.20   43.20</time>
   <time name="diis">  241.06  241.05</time>
   <time name="orth">    8.39    8.39</time>
   <time name="total">  308.77  308.76</time>
   <energy>
    <i name="e_fr_energy">   -868.97350257 </i>
    <i name="e_wo_entrp">   -868.91004346 </i>
    <i name="e_0_energy">   -868.95234953 </i>
   </energy>
  </scstep>
  <scstep>
   <time name="diag">   43.36   43.36</time>
   <time name="diis">  251.19  251.17</time>
   <time name="orth">    8.37    8.37</time>
   <time name="total">  319.01  318.99</time>
   <energy>
    <i name="e_fr_energy">   -868.97226813 </i>
    <i name="e_wo_entrp">   -868.90893069 </i>
    <i name="e_0_energy">   -868.95115565 </i>
   </energy>
  </scstep>
  <scstep>
   <time name="diag">   43.27   43.27</time>
   <time name="diis">  200.51  200.49</time>
   <time name="orth">    8.39    8.39</time>
   <time name="total">  268.35  268.33</time>
   <energy>
    <i name="e_fr_energy">   -868.96653713 </i>
    <i name="e_wo_entrp">   -868.90305321 </i>
    <i name="e_0_energy">   -868.94537582 </i>
   </energy>
  </scstep>
  <scstep>
   <time name="diag">   43.43   43.45</time>
   <time name="diis">  283.67  283.67</time>
   <time name="orth">    8.39    8.39</time>
   <time name="total">  351.57  351.58</time>
   <energy>
    <i name="e_fr_energy">   -868.96633775 </i>
    <i name="e_wo_entrp">   -868.90279489 </i>
    <i name="e_0_energy">   -868.94515679 </i>
   </energy>
  </scstep>
  <scstep>
   <time name="diag">   43.40   43.39</time>
   <time name="diis">  234.84  234.83</time>
   <time name="orth">    8.38    8.38</time>
   <time name="total">  302.76  302.74</time>
   <energy>
    <i name="e_fr_energy">   -868.96502724 </i>
    <i name="e_wo_entrp">   -868.90133213 </i>
    <i name="e_0_energy">   -868.94379554 </i>
   </energy>
  </scstep>
  <scstep>
   <time name="diag">   43.23   43.22</time>
   <time name="diis">  286.40  286.38</time>
   <time name="orth">    8.37    8.37</time>
   <time name="total">  354.07  354.05</time>
   <energy>
    <i name="e_fr_energy">   -868.96499751 </i>
    <i name="e_wo_entrp">   -868.90140974 </i>
    <i name="e_0_energy">   -868.94380159 </i>
   </energy>
  </scstep>
  <scstep>
   <time name="diag">   43.39   43.39</time>
   <time name="diis">  262.94  262.92</time>
   <time name="orth">    8.37    8.37</time>
   <time name="total">  330.67  330.66</time>
   <energy>
    <i name="e_fr_energy">   -868.96497940 </i>
    <i name="e_wo_entrp">   -868.90145673 </i>
    <i name="e_0_energy">   -868.94380518 </i>
   </energy>
  </scstep>
  <scstep>
   <time name="diag">   43.30   43.30</time>
   <time name="diis">  242.26  242.25</time>
   <time name="orth">    8.40    8.40</time>
   <time name="total">  310.13  310.13</time>
   <energy>
    <i name="e_fr_energy">   -868.96492620 </i>
    <i name="e_wo_entrp">   -868.90146591 </i>
    <i name="e_0_energy">   -868.94377277 </i>
   </energy>
  </scstep>
  <scstep>
   <time name="diag">   43.39   43.38</time>
   <time name="diis">  276.95  276.95</time>
   <time name="orth">    8.36    8.36</time>
   <time name="total">  344.69  344.69</time>
   <energy>
    <i name="e_fr_energy">   -868.96491923 </i>
    <i name="e_wo_entrp">   -868.90155576 </i>
    <i name="e_0_energy">   -868.94379807 </i>
   </energy>
  </scstep>
  <scstep>
   <time name="diag">   43.37   43.37</time>
   <time name="diis">  201.55  201.54</time>
   <time name="orth">    8.40    8.40</time>
   <time name="total">  269.34  269.33</time>
   <energy>
    <i name="e_fr_energy">   -868.96489706 </i>
    <i name="e_wo_entrp">   -868.90163260 </i>
    <i name="e_0_energy">   -868.94380891 </i>
   </energy>
  </scstep>
  <scstep>
   <time name="diag">   43.14   43.14</time>
   <time name="diis">  174.56  174.57</time>
   <time name="orth">    8.39    8.38</time>
   <time name="total">  242.06  242.07</time>
   <energy>
    <i name="e_fr_energy">   -868.96488864 </i>
    <i name="e_wo_entrp">   -868.90168403 </i>
    <i name="e_0_energy">   -868.94382044 </i>
   </energy>
  </scstep>
  <scstep>
   <time name="diag">   43.21   43.21</time>
   <time name="diis">  142.87  142.86</time>
   <time name="orth">    8.39    8.39</time>
   <time name="total">  210.49  210.48</time>
   <energy>
    <i name="e_fr_energy">   -868.96488486 </i>
    <i name="e_wo_entrp">   -868.90173088 </i>
    <i name="e_0_energy">   -868.94383353 </i>
   </energy>
  </scstep>
  <scstep>
   <time name="diag">   40.42   40.42</time>
   <time name="diis">  126.10  126.10</time>
   <time name="orth">    8.37    8.37</time>
   <time name="total">  190.84  190.83</time>
   <energy>
    <i name="e_fr_energy">   -868.96488079 </i>
    <i name="e_wo_entrp">   -868.90177988 </i>
    <i name="e_0_energy">   -868.94384715 </i>
   </energy>
  </scstep>
  <scstep>
   <time name="diag">   43.13   43.13</time>
   <time name="diis">  117.38  117.38</time>
   <time name="orth">    8.30    8.30</time>
   <time name="total">  184.67  184.66</time>
   <energy>
    <i name="e_fr_energy">   -868.96487764 </i>
    <i name="e_wo_entrp">   -868.90182374 </i>
    <i name="e_0_energy">   -868.94385967 </i>
   </energy>
  </scstep>
  <scstep>
   <time name="diag">   43.14   43.14</time>
   <time name="diis">  123.12  123.12</time>
   <time name="orth">    8.39    8.39</time>
   <time name="total">  190.61  190.61</time>
   <energy>
    <i name="e_fr_energy">   -868.96487557 </i>
    <i name="e_wo_entrp">   -868.90186511 </i>
    <i name="e_0_energy">   -868.94387209 </i>
   </energy>
  </scstep>
  <scstep>
   <time name="diag">   42.87   42.86</time>
   <time name="diis">  115.70  115.71</time>
   <time name="orth">    8.37    8.38</time>
   <time name="total">  182.91  182.92</time>
   <energy>
    <i name="e_fr_energy">   -868.96487341 </i>
    <i name="e_wo_entrp">   -868.90190224 </i>
    <i name="e_0_energy">   -868.94388302 </i>
   </energy>
  </scstep>
  <scstep>
   <time name="diag">   43.37   43.37</time>
   <time name="diis">  119.87  119.86</time>
   <time name="orth">    8.06    8.06</time>
   <time name="total">  186.00  185.99</time>
   <energy>
    <i name="e_fr_energy">   -868.96487144 </i>
    <i name="e_wo_entrp">   -868.90193721 </i>
    <i name="e_0_energy">   -868.94389336 </i>
   </energy>
  </scstep>
  <scstep>
   <time name="diag">   42.27   42.28</time>
   <time name="diis">  119.62  119.62</time>
   <time name="orth">    8.38    8.38</time>
   <time name="total">  186.18  186.19</time>
   <energy>
    <i name="e_fr_energy">   -868.96486934 </i>
    <i name="e_wo_entrp">   -868.90196780 </i>
    <i name="e_0_energy">   -868.94390216 </i>
   </energy>
  </scstep>
  <scstep>
   <time name="diag">   43.21   43.21</time>
   <time name="diis">   96.41   96.41</time>
   <time name="orth">    8.36    8.36</time>
   <time name="total">  163.84  163.84</time>
   <energy>
    <i name="e_fr_energy">   -868.96486719 </i>
    <i name="e_wo_entrp">   -868.90199671 </i>
    <i name="e_0_energy">   -868.94391036 </i>
   </energy>
  </scstep>
  <scstep>
   <time name="diag">   43.20   43.20</time>
   <time name="diis">   98.24   98.23</time>
   <time name="orth">    8.08    8.08</time>
   <time name="total">  165.09  165.08</time>
   <energy>
    <i name="e_fr_energy">   -868.96486526 </i>
    <i name="e_wo_entrp">   -868.90202317 </i>
    <i name="e_0_energy">   -868.94391790 </i>
   </energy>
  </scstep>
  <scstep>
   <time name="diag">   43.03   43.03</time>
   <time name="diis">   97.88   97.87</time>
   <time name="orth">    8.09    8.09</time>
   <time name="total">  164.10  164.08</time>
   <energy>
    <i name="e_fr_energy">   -868.96486342 </i>
    <i name="e_wo_entrp">   -868.90204758 </i>
    <i name="e_0_energy">   -868.94392481 </i>
   </energy>
  </scstep>
  <scstep>
   <time name="diag">   41.63   41.63</time>
   <time name="diis">   98.83   98.82</time>
   <time name="orth">    8.35    8.35</time>
   <time name="total">  164.08  164.07</time>
   <energy>
    <i name="e_fr_energy">   -868.96486174 </i>
    <i name="e_wo_entrp">   -868.90206992 </i>
    <i name="e_0_energy">   -868.94393113 </i>
   </energy>
  </scstep>
  <scstep>
   <time name="diag">   40.98   40.97</time>
   <time name="diis">   96.75   96.74</time>
   <time name="orth">    8.35    8.35</time>
   <time name="total">  162.02  162.00</time>
   <energy>
    <i name="e_fr_energy">   -868.96486020 </i>
    <i name="e_wo_entrp">   -868.90209032 </i>
    <i name="e_0_energy">   -868.94393691 </i>
   </energy>
  </scstep>
  <scstep>
   <time name="diag">   41.94   41.94</time>
   <time name="diis">   92.89   92.89</time>
   <time name="orth">    8.37    8.37</time>
   <time name="total">  159.16  159.15</time>
   <energy>
    <i name="e_fr_energy">   -868.96485880 </i>
    <i name="e_wo_entrp">   -868.90210900 </i>
    <i name="e_0_energy">   -868.94394220 </i>
   </energy>
  </scstep>
  <scstep>
   <time name="diag">   43.10   43.10</time>
   <time name="diis">   90.64   90.64</time>
   <time name="orth">    8.27    8.27</time>
   <time name="total">  157.93  157.93</time>
   <energy>
    <i name="e_fr_energy">   -868.96485749 </i>
    <i name="e_wo_entrp">   -868.90212631 </i>
    <i name="e_0_energy">   -868.94394709 </i>
   </energy>
  </scstep>
  <scstep>
   <time name="diag">   43.14   43.13</time>
   <time name="diis">   91.29   91.28</time>
   <time name="orth">    8.27    8.27</time>
   <time name="total">  158.32  158.31</time>
   <energy>
    <i name="e_fr_energy">   -868.96485634 </i>
    <i name="e_wo_entrp">   -868.90214173 </i>
    <i name="e_0_energy">   -868.94395147 </i>
   </energy>
  </scstep>
  <scstep>
   <time name="diag">   43.13   43.12</time>
   <time name="diis">   93.69   93.68</time>
   <time name="orth">    8.01    8.01</time>
   <time name="total">  159.86  159.85</time>
   <energy>
    <i name="e_fr_energy">   -868.96485528 </i>
    <i name="e_wo_entrp">   -868.90215594 </i>
    <i name="e_0_energy">   -868.94395550 </i>
   </energy>
  </scstep>
  <scstep>
   <time name="diag">   42.73   42.72</time>
   <time name="diis">   94.23   94.23</time>
   <time name="orth">    8.25    8.25</time>
   <time name="total">  145.63  145.62</time>
   <energy>
    <i name="alphaZ">   7165.75404585 </i>
    <i name="ewald"> -65132.79271905 </i>
    <i name="hartreedc">  -9603.60598925 </i>
    <i name="XCdc">    355.54074868 </i>
    <i name="pawpsdc">  57402.94060391 </i>
    <i name="pawaedc"> -58329.12491105 </i>
    <i name="eentropy">     -0.06268504 </i>
    <i name="bandstr">   3665.17508665 </i>
    <i name="atom">  63607.21096501 </i>
    <i name="e_fr_energy">   -868.96485429 </i>
    <i name="e_wo_entrp">   -868.90216925 </i>
    <i name="e_0_energy">   -868.94395927 </i>
   </energy>
  </scstep>
  <structure>
   <crystal>
    <varray name="basis" >
     <v>      10.33484705       0.00000000       0.00000000 </v>
     <v>       0.00000000      10.33484705       0.00000000 </v>
     <v>       0.00000000       0.00000000      10.33484705 </v>
    </varray>
    <i name="volume">   1103.85533447 </i>
    <varray name="rec_basis" >
     <v>       0.09676002       0.00000000       0.00000000 </v>
     <v>       0.00000000       0.09676002       0.00000000 </v>
     <v>       0.00000000       0.00000000       0.09676002 </v>
    </varray>
   </crystal>
   <varray name="positions" >
    <v>       0.00000000       0.00000000       0.00000000 </v>
    <v>       0.00000000       0.16666893       0.16666893 </v>
    <v>       0.00000000       0.33333106       0.00000000 </v>
    <v>       0.00000000       0.50000000       0.16666894 </v>
    <v>       0.00000000       0.66666897       0.00000000 </v>
    <v>       0.00000000       0.83333104       0.16666893 </v>
    <v>       0.00000000       0.00000000       0.33333106 </v>
    <v>       0.00000000       0.16666894       0.50000000 </v>
    <v>       0.00000000       0.33333107       0.33333107 </v>
    <v>       0.00000000       0.50000000       0.50000000 </v>
    <v>       0.00000000       0.66666896       0.33333107 </v>
    <v>       0.00000000       0.83333103       0.50000000 </v>
    <v>       0.00000000       0.00000000       0.66666897 </v>
    <v>       0.00000000       0.16666893       0.83333104 </v>
    <v>       0.00000000       0.33333107       0.66666896 </v>
    <v>       0.00000000       0.50000000       0.83333103 </v>
    <v>       0.00000000       0.66666896       0.66666896 </v>
    <v>       0.00000000       0.83333104       0.83333104 </v>
    <v>       0.16666893       0.00000000       0.16666893 </v>
    <v>       0.16666893       0.16666893       0.00000000 </v>
    <v>       0.16666893       0.83333104       0.00000000 </v>
    <v>       0.16666893       0.33333107       0.50000000 </v>
    <v>       0.16666893       0.50000000       0.33333107 </v>
    <v>       0.16666893       0.66666896       0.50000000 </v>
    <v>       0.16666893       0.00000000       0.83333104 </v>
    <v>       0.16666893       0.50000000       0.66666896 </v>
    <v>       0.16666893       0.33333107       0.16666893 </v>
    <v>       0.16666893       0.66666896       0.16666893 </v>
    <v>       0.16666893       0.16666893       0.33333107 </v>
    <v>       0.16666893       0.83333104       0.33333107 </v>
    <v>       0.16666893       0.16666893       0.66666896 </v>
    <v>       0.16666893       0.33333107       0.83333104 </v>
    <v>       0.16666893       0.66666896       0.83333104 </v>
    <v>       0.16666893       0.83333104       0.66666896 </v>
    <v>       0.16666894       0.50000000       0.00000000 </v>
    <v>       0.16666894       0.00000000       0.50000000 </v>
    <v>       0.33333106       0.00000000       0.00000000 </v>
    <v>       0.33333107       0.16666893       0.16666893 </v>
    <v>       0.33333107       0.83333104       0.16666893 </v>
    <v>       0.33333107       0.33333107       0.33333107 </v>
    <v>       0.33333107       0.66666896       0.33333107 </v>
    <v>       0.33333107       0.16666893       0.83333104 </v>
    <v>       0.33333107       0.33333107       0.66666896 </v>
    <v>       0.33333107       0.66666896       0.66666896 </v>
    <v>       0.33333107       0.83333104       0.83333104 </v>
    <v>       0.33333107       0.33333107       0.00000000 </v>
    <v>       0.33333107       0.50000000       0.16666893 </v>
    <v>       0.33333107       0.66666896       0.00000000 </v>
    <v>       0.33333107       0.00000000       0.33333107 </v>
    <v>       0.33333107       0.16666893       0.50000000 </v>
    <v>       0.33333107       0.83333104       0.50000000 </v>
    <v>       0.33333107       0.00000000       0.66666896 </v>
    <v>       0.33333107       0.50000000       0.83333104 </v>
    <v>       0.50000000       0.00000000       0.16666894 </v>
    <v>       0.50000000       0.16666894       0.00000000 </v>
    <v>       0.50000000       0.33333107       0.16666893 </v>
    <v>       0.50000000       0.50000000       0.00000000 </v>
    <v>       0.50000000       0.66666896       0.16666893 </v>
    <v>       0.50000000       0.83333103       0.00000000 </v>
    <v>       0.50000000       0.00000000       0.50000000 </v>
    <v>       0.50000000       0.16666893       0.33333107 </v>
    <v>       0.50000000       0.33333106       0.50000000 </v>
    <v>       0.50000000       0.50000000       0.33333106 </v>
    <v>       0.50000000       0.66666897       0.50000000 </v>
    <v>       0.50000000       0.83333104       0.33333107 </v>
    <v>       0.50000000       0.00000000       0.83333103 </v>
    <v>       0.50000000       0.16666893       0.66666896 </v>
    <v>       0.50000000       0.33333107       0.83333104 </v>
    <v>       0.50000000       0.66666896       0.83333104 </v>
    <v>       0.50000000       0.83333104       0.66666896 </v>
    <v>       0.66666896       0.33333107       0.00000000 </v>
    <v>       0.66666896       0.50000000       0.16666893 </v>
    <v>       0.66666896       0.66666896       0.00000000 </v>
    <v>       0.66666896       0.00000000       0.33333107 </v>
    <v>       0.66666896       0.16666893       0.50000000 </v>
    <v>       0.66666896       0.83333104       0.50000000 </v>
    <v>       0.66666896       0.00000000       0.66666896 </v>
    <v>       0.66666896       0.50000000       0.83333104 </v>
    <v>       0.66666896       0.16666893       0.16666893 </v>
    <v>       0.66666896       0.83333104       0.16666893 </v>
    <v>       0.66666896       0.33333107       0.33333107 </v>
    <v>       0.66666896       0.66666896       0.33333107 </v>
    <v>       0.66666896       0.16666893       0.83333104 </v>
    <v>       0.66666896       0.33333107       0.66666896 </v>
    <v>       0.66666896       0.66666896       0.66666896 </v>
    <v>       0.66666896       0.83333104       0.83333104 </v>
    <v>       0.66666897       0.00000000       0.00000000 </v>
    <v>       0.66666897       0.50000000       0.50000000 </v>
    <v>       0.83333103       0.50000000       0.00000000 </v>
    <v>       0.83333103       0.00000000       0.50000000 </v>
    <v>       0.83333104       0.33333107       0.16666893 </v>
    <v>       0.83333104       0.66666896       0.16666893 </v>
    <v>       0.83333104       0.16666893       0.33333107 </v>
    <v>       0.83333104       0.83333104       0.33333107 </v>
    <v>       0.83333104       0.16666893       0.66666896 </v>
    <v>       0.83333104       0.33333107       0.83333104 </v>
    <v>       0.83333104       0.66666896       0.83333104 </v>
    <v>       0.83333104       0.83333104       0.66666896 </v>
    <v>       0.83333104       0.00000000       0.16666893 </v>
    <v>       0.83333104       0.16666893       0.00000000 </v>
    <v>       0.83333104       0.83333104       0.00000000 </v>
    <v>       0.83333104       0.33333107       0.50000000 </v>
    <v>       0.83333104       0.50000000       0.33333107 </v>
    <v>       0.83333104       0.66666896       0.50000000 </v>
    <v>       0.83333104       0.00000000       0.83333104 </v>
    <v>       0.83333104       0.50000000       0.66666896 </v>
    <v>       0.50000000       0.50000000       0.66666667 </v>
   </varray>
  </structure>
  <varray name="forces" >
   <v>      -0.05690839      -0.00000407      -0.00000150 </v>
   <v>      -0.02810302      -0.02851434      -0.02851513 </v>
   <v>       0.01297958       0.00640075      -0.00000480 </v>
   <v>       0.19699090       0.00000434       0.19654481 </v>
   <v>       0.01298134      -0.00639878      -0.00000376 </v>
   <v>      -0.02810169       0.02851201      -0.02851528 </v>
   <v>       0.01297838      -0.00000344       0.00639371 </v>
   <v>       0.19699767       0.19654553       0.00000163 </v>
   <v>       0.01065177      -0.01044972      -0.01045124 </v>
   <v>       0.19525770       0.00000275       0.00000634 </v>
   <v>       0.01064861       0.01044955      -0.01045276 </v>
   <v>       0.19698957      -0.19654574       0.00000246 </v>
   <v>       0.01298025      -0.00000314      -0.00639244 </v>
   <v>      -0.02810062      -0.02850990       0.02851220 </v>
   <v>       0.01065260      -0.01044513       0.01045316 </v>
   <v>       0.19699104       0.00000277      -0.19655023 </v>
   <v>       0.01064615       0.01044602       0.01045332 </v>
   <v>      -0.02810132       0.02850890       0.02851492 </v>
   <v>       0.00557876      -0.00000445       0.01257137 </v>
   <v>       0.00557453       0.01257133      -0.00000298 </v>
   <v>       0.00557809      -0.01257533       0.00000047 </v>
   <v>       0.04254038       0.04336683       0.00000756 </v>
   <v>       0.04253682       0.00000211       0.04336826 </v>
   <v>       0.04253595      -0.04337000       0.00000544 </v>
   <v>       0.00557522      -0.00000219      -0.01257200 </v>
   <v>       0.04254076      -0.00000067      -0.04336060 </v>
   <v>      -0.01125811      -0.01044533       0.01023127 </v>
   <v>      -0.01125741       0.01044871       0.01022810 </v>
   <v>      -0.01125546       0.01023375      -0.01044434 </v>
   <v>      -0.01125798      -0.01023447      -0.01045041 </v>
   <v>      -0.01125512       0.01024056       0.01044630 </v>
   <v>      -0.01125661      -0.01043856      -0.01023824 </v>
   <v>      -0.01125557       0.01043796      -0.01023198 </v>
   <v>      -0.01125780      -0.01023816       0.01044668 </v>
   <v>       0.01607875       0.00000549      -0.00001774 </v>
   <v>       0.01606698       0.00000091       0.00000017 </v>
   <v>       0.00040862      -0.00000612       0.00000029 </v>
   <v>       0.00039835       0.19654547       0.19654557 </v>
   <v>       0.00039809      -0.19654849       0.19653993 </v>
   <v>       0.00037905       0.04317599       0.04317828 </v>
   <v>       0.00038245      -0.04317653       0.04316948 </v>
   <v>       0.00039623       0.19654804      -0.19654785 </v>
   <v>       0.00038444       0.04318579      -0.04318079 </v>
   <v>       0.00038713      -0.04318769      -0.04317411 </v>
   <v>       0.00039876      -0.19654988      -0.19654050 </v>
   <v>       0.00039696       0.01689975      -0.00001004 </v>
   <v>       0.00039790       0.00000553       0.19485289 </v>
   <v>       0.00039718      -0.01689405      -0.00000781 </v>
   <v>       0.00039401      -0.00000195       0.01688486 </v>
   <v>       0.00039345       0.19485699       0.00000592 </v>
   <v>       0.00039641      -0.19485394       0.00000338 </v>
   <v>       0.00039385       0.00000030      -0.01689001 </v>
   <v>       0.00041367       0.00000416      -0.19486524 </v>
   <v>      -0.00598481      -0.00000559       0.01256545 </v>
   <v>      -0.00598024       0.01256913      -0.00001358 </v>
   <v>       0.01084307      -0.01044778       0.01024850 </v>
   <v>      -0.01645017       0.00000593      -0.00001891 </v>
   <v>       0.01084175       0.01045112       0.01024890 </v>
   <v>      -0.00598440      -0.01257335      -0.00001209 </v>
   <v>      -0.01645159      -0.00000364      -0.00000138 </v>
   <v>       0.01084108       0.01023850      -0.01045933 </v>
   <v>      -0.04287331       0.04328573       0.00000359 </v>
   <v>      -0.04286490       0.00000353       0.04329468 </v>
   <v>      -0.04286257      -0.04328473       0.00000131 </v>
   <v>       0.01084415      -0.01023994      -0.01046285 </v>
   <v>      -0.00597987      -0.00000445      -0.01255965 </v>
   <v>       0.01083994       0.01025754       0.01045003 </v>
   <v>       0.01084433      -0.01042466      -0.01026054 </v>
   <v>       0.01084486       0.01042503      -0.01025800 </v>
   <v>       0.01084689      -0.01025652       0.01045168 </v>
   <v>      -0.01337512       0.00639840      -0.00001245 </v>
   <v>      -0.19737323       0.00000460       0.19653595 </v>
   <v>      -0.01337721      -0.00639765      -0.00001212 </v>
   <v>      -0.01337003      -0.00000596       0.00638991 </v>
   <v>      -0.19737044       0.19653054       0.00000057 </v>
   <v>      -0.19736672      -0.19653554       0.00000201 </v>
   <v>      -0.01337150      -0.00000581      -0.00638770 </v>
   <v>      -0.19739066       0.00000585      -0.19655443 </v>
   <v>       0.02769288      -0.02851104      -0.02851220 </v>
   <v>       0.02769158       0.02850881      -0.02851046 </v>
   <v>      -0.01102200      -0.01046122      -0.01046955 </v>
   <v>      -0.01102201       0.01046512      -0.01046703 </v>
   <v>       0.02769060      -0.02850454       0.02851301 </v>
   <v>      -0.01101590      -0.01045866       0.01047043 </v>
   <v>      -0.01101330       0.01046128       0.01046995 </v>
   <v>       0.02768956       0.02850291       0.02850883 </v>
   <v>       0.05649065      -0.00000328      -0.00000499 </v>
   <v>      -0.19559642       0.00000628      -0.00000298 </v>
   <v>       0.00039058       0.00000157      -0.00001622 </v>
   <v>       0.00040252      -0.00000693      -0.00000047 </v>
   <v>       0.00040799       0.00639777       0.01255300 </v>
   <v>       0.00040913      -0.00639478       0.01255625 </v>
   <v>       0.00040796       0.01255550       0.00639124 </v>
   <v>       0.00040618      -0.01255765       0.00639340 </v>
   <v>       0.00040804       0.01256191      -0.00638720 </v>
   <v>       0.00040614       0.00639823      -0.01256038 </v>
   <v>       0.00040311      -0.00639746      -0.01256202 </v>
   <v>       0.00040450      -0.01256523      -0.00639269 </v>
   <v>       0.00041474      -0.00000546      -0.05731892 </v>
   <v>       0.00041437      -0.05731612      -0.00000252 </v>
   <v>       0.00041476       0.05731699      -0.00000081 </v>
   <v>       0.00040240       0.01688366       0.00000578 </v>
   <v>       0.00040921       0.00000542       0.01686427 </v>
   <v>       0.00039943      -0.01687825       0.00000632 </v>
   <v>       0.00041235      -0.00000325       0.05731870 </v>
   <v>       0.00039789       0.00000456      -0.01687218 </v>
   <v>      -0.04291549       0.00000332      -0.04309708 </v>
  </varray>
  <varray name="stress" >
   <v>      -7.70619630       0.00000542      -0.00010727 </v>
   <v>       0.00000534      -7.70503245      -0.00000111 </v>
   <v>      -0.00010723      -0.00000109      -7.70517049 </v>
  </varray>
  <energy>
   <i name="e_fr_energy">   -868.96485429 </i>
   <i name="e_wo_entrp">   -868.94395927 </i>
   <i name="e_0_energy">     -0.06268504 </i>
  </energy>
  <time name="totalsc">13152.0513151.66</time>
 </calculation>
 <calculation>
  <scstep>
   <time name="dav">  336.23  336.21</time>
   <time name="total">  351.66  351.64</time>
   <energy>
    <i name="alphaZ">   7165.75404585 </i>
    <i name="ewald"> -65144.54464957 </i>
    <i name="hartreedc">  -9592.17851441 </i>
    <i name="XCdc">    355.53089611 </i>
    <i name="pawpsdc">  57402.94059533 </i>
    <i name="pawaedc"> -58329.12490068 </i>
    <i name="eentropy">     -0.06081281 </i>
    <i name="bandstr">   3665.46829919 </i>
    <i name="atom">  63607.21096501 </i>
    <i name="e_fr_energy">   -869.00407598 </i>
    <i name="e_wo_entrp">   -868.94326316 </i>
    <i name="e_0_energy">   -868.98380504 </i>
   </energy>
  </scstep>
  <scstep>
   <time name="diag">   41.38   41.38</time>
   <time name="diis">  215.30  215.29</time>
   <time name="orth">    8.31    8.31</time>
   <time name="total">  280.61  280.59</time>
   <energy>
    <i name="e_fr_energy">   -869.83641340 </i>
    <i name="e_wo_entrp">   -869.76799260 </i>
    <i name="e_0_energy">   -869.81360647 </i>
   </energy>
  </scstep>
  <scstep>
   <time name="diag">   40.97   40.97</time>
   <time name="diis">  189.33  189.31</time>
   <time name="orth">    7.90    7.90</time>
   <time name="total">  253.13  253.11</time>
   <energy>
    <i name="e_fr_energy">   -869.02946195 </i>
    <i name="e_wo_entrp">   -868.96761662 </i>
    <i name="e_0_energy">   -869.00884684 </i>
   </energy>
  </scstep>
  <scstep>
   <time name="diag">   41.51   41.51</time>
   <time name="diis">  242.99  242.97</time>
   <time name="orth">    8.12    8.12</time>
   <time name="total">  307.70  307.68</time>
   <energy>
    <i name="e_fr_energy">   -869.01007864 </i>
    <i name="e_wo_entrp">   -868.94743906 </i>
    <i name="e_0_energy">   -868.98919878 </i>
   </energy>
  </scstep>
  <scstep>
   <time name="diag">   40.76   40.75</time>
   <time name="diis">  252.76  252.75</time>
   <time name="orth">    8.19    8.19</time>
   <time name="total">  317.21  317.20</time>
   <energy>
    <i name="e_fr_energy">   -869.01675548 </i>
    <i name="e_wo_entrp">   -868.95478231 </i>
    <i name="e_0_energy">   -868.99609776 </i>
   </energy>
  </scstep>
  <scstep>
   <time name="diag">   42.02   42.01</time>
   <time name="diis">  216.06  216.04</time>
   <time name="orth">    8.17    8.17</time>
   <time name="total">  281.48  281.45</time>
   <energy>
    <i name="e_fr_energy">   -869.01101846 </i>
    <i name="e_wo_entrp">   -868.94913967 </i>
    <i name="e_0_energy">   -868.99039219 </i>
   </energy>
  </scstep>
  <scstep>
   <time name="diag">   41.79   41.79</time>
   <time name="diis">  230.48  230.46</time>
   <time name="orth">    8.40    8.40</time>
   <time name="total">  296.67  296.65</time>
   <energy>
    <i name="e_fr_energy">   -869.01440073 </i>
    <i name="e_wo_entrp">   -868.95164368 </i>
    <i name="e_0_energy">   -868.99348171 </i>
   </energy>
  </scstep>
  <scstep>
   <time name="diag">   42.67   42.67</time>
   <time name="diis">  199.75  199.74</time>
   <time name="orth">    8.33    8.33</time>
   <time name="total">  266.70  266.68</time>
   <energy>
    <i name="e_fr_energy">   -869.01023061 </i>
    <i name="e_wo_entrp">   -868.94765204 </i>
    <i name="e_0_energy">   -868.98937108 </i>
   </energy>
  </scstep>
  <scstep>
   <time name="diag">   42.63   42.63</time>
   <time name="diis">  254.00  253.98</time>
   <time name="orth">    8.29    8.29</time>
   <time name="total">  320.05  320.02</time>
   <energy>
    <i name="e_fr_energy">   -869.01046269 </i>
    <i name="e_wo_entrp">   -868.94797861 </i>
    <i name="e_0_energy">   -868.98963466 </i>
   </energy>
  </scstep>
  <scstep>
   <time name="diag">   41.96   41.96</time>
   <time name="diis">  221.46  221.45</time>
   <time name="orth">    8.22    8.21</time>
   <time name="total">  286.86  286.84</time>
   <energy>
    <i name="e_fr_energy">   -869.01007132 </i>
    <i name="e_wo_entrp">   -868.94772233 </i>
    <i name="e_0_energy">   -868.98928833 </i>
   </energy>
  </scstep>
  <scstep>
   <time name="diag">   43.23   43.23</time>
   <time name="diis">  293.00  292.98</time>
   <time name="orth">    8.10    8.09</time>
   <time name="total">  359.69  359.67</time>
   <energy>
    <i name="e_fr_energy">   -869.01008249 </i>
    <i name="e_wo_entrp">   -868.94772024 </i>
    <i name="e_0_energy">   -868.98929507 </i>
   </energy>
  </scstep>
  <scstep>
   <time name="diag">   41.34   41.34</time>
   <time name="diis">  223.01  222.99</time>
   <time name="orth">    8.29    8.29</time>
   <time name="total">  288.18  288.16</time>
   <energy>
    <i name="e_fr_energy">   -869.01008960 </i>
    <i name="e_wo_entrp">   -868.94768884 </i>
    <i name="e_0_energy">   -868.98928934 </i>
   </energy>
  </scstep>
  <scstep>
   <time name="diag">   43.13   43.13</time>
   <time name="diis">  205.94  205.93</time>
   <time name="orth">    8.08    8.08</time>
   <time name="total">  272.47  272.46</time>
   <energy>
    <i name="e_fr_energy">   -869.01006078 </i>
    <i name="e_wo_entrp">   -868.94766298 </i>
    <i name="e_0_energy">   -868.98926151 </i>
   </energy>
  </scstep>
  <scstep>
   <time name="diag">   42.52   42.53</time>
   <time name="diis">  246.73  246.71</time>
   <time name="orth">    8.31    8.31</time>
   <time name="total">  312.81  312.80</time>
   <energy>
    <i name="e_fr_energy">   -869.01007009 </i>
    <i name="e_wo_entrp">   -868.94766480 </i>
    <i name="e_0_energy">   -868.98926833 </i>
   </energy>
  </scstep>
[...]
       <r>    -1.9508     1.5752     0.1620 </r>
       <r>    -1.9056     2.1422     0.2590 </r>
       <r>    -1.8603     2.7381     0.3830 </r>
       <r>    -1.8150     3.2763     0.5314 </r>
       <r>    -1.7697     3.6703     0.6976 </r>
       <r>    -1.7244     3.8858     0.8735 </r>
       <r>    -1.6791     3.9592     1.0528 </r>
       <r>    -1.6339     3.9715     1.2327 </r>
       <r>    -1.5886     4.0083     1.4142 </r>
       <r>    -1.5433     4.1372     1.6015 </r>
       <r>    -1.4980     4.4009     1.8008 </r>
       <r>    -1.4527     4.8129     2.0187 </r>
       <r>    -1.4074     5.3548     2.2612 </r>
       <r>    -1.3622     5.9767     2.5319 </r>
       <r>    -1.3169     6.5933     2.8304 </r>
       <r>    -1.2716     7.0762     3.1509 </r>
       <r>    -1.2263     7.2723     3.4802 </r>
       <r>    -1.1810     7.0728     3.8005 </r>
       <r>    -1.1357     6.5056     4.0951 </r>
       <r>    -1.0905     5.7728     4.3565 </r>
       <r>    -1.0452     5.1879     4.5914 </r>
       <r>    -0.9999     5.0418     4.8197 </r>
       <r>    -0.9546     5.4799     5.0678 </r>
       <r>    -0.9093     6.4589     5.3603 </r>
       <r>    -0.8640     7.7860     5.7129 </r>
       <r>    -0.8188     9.1927     6.1292 </r>
       <r>    -0.7735    10.3902     6.5997 </r>
       <r>    -0.7282    11.1032     7.1025 </r>
       <r>    -0.6829    11.1231     7.6062 </r>
       <r>    -0.6376    10.4019     8.0772 </r>
       <r>    -0.5923     9.1339     8.4908 </r>
       <r>    -0.5471     7.7392     8.8413 </r>
       <r>    -0.5018     6.7201     9.1456 </r>
       <r>    -0.4565     6.4579     9.4380 </r>
       <r>    -0.4112     7.0636     9.7579 </r>
       <r>    -0.3659     8.3520    10.1361 </r>
       <r>    -0.3206     9.9363    10.5860 </r>
       <r>    -0.2754    11.3784    11.1013 </r>
       <r>    -0.2301    12.3331    11.6598 </r>
       <r>    -0.1848    12.6461    12.2324 </r>
       <r>    -0.1395    12.3918    12.7935 </r>
       <r>    -0.0942    11.8384    13.3296 </r>
       <r>    -0.0489    11.3386    13.8431 </r>
       <r>    -0.0037    11.1769    14.3492 </r>
       <r>     0.0416    11.4518    14.8678 </r>
       <r>     0.0869    12.0587    15.4138 </r>
       <r>     0.1322    12.7797    15.9925 </r>
       <r>     0.1775    13.4104    16.5998 </r>
       <r>     0.2228    13.8361    17.2264 </r>
       <r>     0.2680    14.0269    17.8615 </r>
       <r>     0.3133    13.9879    18.4950 </r>
       <r>     0.3586    13.7274    19.1166 </r>
       <r>     0.4039    13.2724    19.7176 </r>
       <r>     0.4492    12.7150    20.2934 </r>
       <r>     0.4945    12.2541    20.8483 </r>
       <r>     0.5397    12.1873    21.4002 </r>
       <r>     0.5850    12.8203    21.9807 </r>
       <r>     0.6303    14.2953    22.6280 </r>
       <r>     0.6756    16.4279    23.3719 </r>
       <r>     0.7209    18.6909    24.2183 </r>
       <r>     0.7662    20.4254    25.1433 </r>
       <r>     0.8114    21.1877    26.1027 </r>
       <r>     0.8567    20.9979    27.0536 </r>
       <r>     0.9020    20.2869    27.9722 </r>
       <r>     0.9473    19.5547    28.8577 </r>
       <r>     0.9926    19.0061    29.7184 </r>
       <r>     1.0379    18.4751    30.5550 </r>
       <r>     1.0831    17.7238    31.3576 </r>
       <r>     1.1284    16.8565    32.1209 </r>
       <r>     1.1737    16.4622    32.8664 </r>
       <r>     1.2190    17.3178    33.6506 </r>
       <r>     1.2643    19.8549    34.5497 </r>
       <r>     1.3096    23.7793    35.6265 </r>
       <r>     1.3548    28.0989    36.8989 </r>
       <r>     1.4001    31.5307    38.3267 </r>
       <r>     1.4454    33.0621    39.8238 </r>
       <r>     1.4907    32.4071    41.2913 </r>
       <r>     1.5360    30.1824    42.6581 </r>
       <r>     1.5813    27.7455    43.9145 </r>
       <r>     1.6265    26.7599    45.1263 </r>
       <r>     1.6718    28.6455    46.4234 </r>
       <r>     1.7171    34.1094    47.9680 </r>
       <r>     1.7624    42.9364    49.9123 </r>
       <r>     1.8077    54.1254    52.3633 </r>
       <r>     1.8530    66.2992    55.3655 </r>
       <r>     1.8982    78.1447    58.9042 </r>
       <r>     1.9435    88.6297    62.9176 </r>
       <r>     1.9888    96.9629    67.3084 </r>
       <r>     2.0341   102.5285    71.9512 </r>
       <r>     2.0794   105.0360    76.7076 </r>
       <r>     2.1246   104.8272    81.4545 </r>
       <r>     2.1699   103.0145    86.1194 </r>
       <r>     2.2152   101.1840    90.7013 </r>
       <r>     2.2605   100.7406    95.2632 </r>
       <r>     2.3058   102.2686    99.8942 </r>
       <r>     2.3511   105.3223   104.6635 </r>
       <r>     2.3963   108.8258   109.5915 </r>
       <r>     2.4416   111.8854   114.6581 </r>
       <r>     2.4869   114.4752   119.8419 </r>
       <r>     2.5322   117.4481   125.1603 </r>
       <r>     2.5775   121.7964   130.6756 </r>
       <r>     2.6228   127.7391   136.4601 </r>
       <r>     2.6680   134.4332   142.5477 </r>
       <r>     2.7133   140.5873   148.9139 </r>
       <r>     2.7586   145.4401   155.4999 </r>
       <r>     2.8039   149.2457   162.2582 </r>
       <r>     2.8492   152.8812   169.1812 </r>
       <r>     2.8945   156.9756   176.2896 </r>
       <r>     2.9397   161.3237   183.5948 </r>
       <r>     2.9850   165.0111   191.0671 </r>
       <r>     3.0303   167.0521   198.6317 </r>
       <r>     3.0756   166.9829   206.1933 </r>
       <r>     3.1209   165.0110   213.6655 </r>
       <r>     3.1662   161.7572   220.9904 </r>
       <r>     3.2114   157.9309   228.1420 </r>
       <r>     3.2567   154.1979   235.1246 </r>
       <r>     3.3020   151.1944   241.9712 </r>
       <r>     3.3473   149.4541   248.7389 </r>
       <r>     3.3926   149.1580   255.4933 </r>
       <r>     3.4379   149.8949   262.2810 </r>
       <r>     3.4831   150.7158   269.1059 </r>
       <r>     3.5284   150.5443   275.9230 </r>
       <r>     3.5737   148.7156   282.6574 </r>
       <r>     3.6190   145.3252   289.2382 </r>
       <r>     3.6643   141.2057   295.6324 </r>
       <r>     3.7096   137.5405   301.8607 </r>
       <r>     3.7548   135.2622   307.9858 </r>
       <r>     3.8001   134.5002   314.0764 </r>
       <r>     3.8454   134.4230   320.1635 </r>
       <r>     3.8907   133.7203   326.2188 </r>
       <r>     3.9360   131.5581   332.1762 </r>
       <r>     3.9813   128.3786   337.9896 </r>
       <r>     4.0265   125.8597   343.6889 </r>
       <r>     4.0718   125.9323   349.3915 </r>
       <r>     4.1171   129.5553   355.2582 </r>
       <r>     4.1624   136.2188   361.4267 </r>
       <r>     4.2077   144.5358   367.9717 </r>
       <r>     4.2530   153.3043   374.9138 </r>
       <r>     4.2982   162.0281   382.2510 </r>
       <r>     4.3435   170.4981   389.9717 </r>
       <r>     4.3888   178.0232   398.0332 </r>
       <r>     4.4341   183.2433   406.3310 </r>
       <r>     4.4794   184.8384   414.7011 </r>
       <r>     4.5247   182.5742   422.9686 </r>
       <r>     4.5699   177.8429   431.0219 </r>
       <r>     4.6152   173.3046   438.8697 </r>
       <r>     4.6605   171.8526   446.6518 </r>
       <r>     4.7058   175.4366   454.5961 </r>
       <r>     4.7511   184.2519   462.9396 </r>
       <r>     4.7964   196.6203   471.8433 </r>
       <r>     4.8416   209.6361   481.3363 </r>
       <r>     4.8869   220.3252   491.3133 </r>
       <r>     4.9322   226.7917   501.5832 </r>
       <r>     4.9775   228.8146   511.9446 </r>
       <r>     5.0228   227.6800   522.2547 </r>
       <r>     5.0681   225.4649   532.4645 </r>
       <r>     5.1133   224.2357   542.6186 </r>
       <r>     5.1586   225.5162   552.8307 </r>
       <r>     5.2039   230.0515   563.2482 </r>
       <r>     5.2492   237.6409   574.0094 </r>
       <r>     5.2945   246.9085   585.1902 </r>
       <r>     5.3398   255.2345   596.7480 </r>
       <r>     5.3850   259.2861   608.4893 </r>
       <r>     5.4303   256.2712   620.0941 </r>
       <r>     5.4756   245.3773   631.2056 </r>
       <r>     5.5209   228.4474   641.5505 </r>
       <r>     5.5662   209.2760   651.0272 </r>
       <r>     5.6115   191.8131   659.7131 </r>
       <r>     5.6567   178.3553   667.7896 </r>
       <r>     5.7020   168.8475   675.4355 </r>
       <r>     5.7473   161.6417   682.7552 </r>
       <r>     5.7926   155.0689   689.7772 </r>
       <r>     5.8379   148.7091   696.5113 </r>
       <r>     5.8832   143.6078   703.0143 </r>
       <r>     5.9284   141.4871   709.4213 </r>
       <r>     5.9737   143.5989   715.9239 </r>
       <r>     6.0190   149.9265   722.7131 </r>
       <r>     6.0643   159.1076   729.9180 </r>
       <r>     6.1096   169.0554   737.5733 </r>
       <r>     6.1549   177.9449   745.6313 </r>
       <r>     6.2001   185.0348   754.0102 </r>
       <r>     6.2454   190.7964   762.6501 </r>
       <r>     6.2907   196.2057   771.5350 </r>
       <r>     6.3360   201.6921   780.6682 </r>
       <r>     6.3813   206.6153   790.0244 </r>
       <r>     6.4266   209.7657   799.5233 </r>
       <r>     6.4718   210.4640   809.0538 </r>
       <r>     6.5171   209.2239   818.5281 </r>
       <r>     6.5624   207.2828   827.9146 </r>
       <r>     6.6077   205.3689   837.2143 </r>
       <r>     6.6530   202.8614   846.4006 </r>
       <r>     6.6983   198.2393   855.3775 </r>
       <r>     6.7435   190.5776   864.0075 </r>
       <r>     6.7888   180.8445   872.1967 </r>
       <r>     6.8341   171.8130   879.9769 </r>
       <r>     6.8794   166.5088   887.5170 </r>
       <r>     6.9247   166.3331   895.0491 </r>
       <r>     6.9700   170.2772   902.7598 </r>
       <r>     7.0152   175.7666   910.7191 </r>
       <r>     7.0605   180.3981   918.8881 </r>
       <r>     7.1058   183.2602   927.1867 </r>
       <r>     7.1511   185.0567   935.5667 </r>
       <r>     7.1964   187.2859   944.0476 </r>
       <r>     7.2417   191.2799   952.7094 </r>
       <r>     7.2869   197.6083   961.6577 </r>
       <r>     7.3322   205.7334   970.9740 </r>
       <r>     7.3775   213.6605   980.6492 </r>
       <r>     7.4228   217.7780   990.5109 </r>
       <r>     7.4681   213.4946  1000.1787 </r>
       <r>     7.5134   196.9691  1009.0981 </r>
       <r>     7.5586   167.2887  1016.6734 </r>
       <r>     7.6039   127.7208  1022.4571 </r>
       <r>     7.6492    84.9579  1026.3042 </r>
       <r>     7.6945    46.5415  1028.4118 </r>
       <r>     7.7398    17.9154  1029.2230 </r>
       <r>     7.7851     0.7702  1029.2579 </r>
       <r>     7.8303    -6.6327  1028.9576 </r>
       <r>     7.8756    -7.7747  1028.6055 </r>
       <r>     7.9209    -6.0644  1028.3309 </r>
       <r>     7.9662    -3.7941  1028.1591 </r>
       <r>     8.0115    -2.0132  1028.0679 </r>
       <r>     8.0568    -0.9281  1028.0259 </r>
       <r>     8.1020    -0.3764  1028.0088 </r>
       <r>     8.1473    -0.1353  1028.0027 </r>
       <r>     8.1926    -0.0433  1028.0007 </r>
       <r>     8.2379    -0.0124  1028.0002 </r>
       <r>     8.2832    -0.0032  1028.0000 </r>
       <r>     8.3285    -0.0007  1028.0000 </r>
       <r>     8.3737    -0.0001  1028.0000 </r>
       <r>     8.4190    -0.0000  1028.0000 </r>
       <r>     8.4643    -0.0000  1028.0000 </r>
       <r>     8.5096    -0.0000  1028.0000 </r>
       <r>     8.5549    -0.0000  1028.0000 </r>
       <r>     8.6002    -0.0000  1028.0000 </r>
       <r>     8.6454    -0.0000  1028.0000 </r>
       <r>     8.6907    -0.0000  1028.0000 </r>
       <r>     8.7360    -0.0000  1028.0000 </r>
       <r>     8.7813    -0.0000  1028.0000 </r>
       <r>     8.8266    -0.0000  1028.0000 </r>
       <r>     8.8719     0.0000  1028.0000 </r>
       <r>     8.9171     0.0000  1028.0000 </r>
       <r>     8.9624     0.0000  1028.0000 </r>
       <r>     9.0077     0.0000  1028.0000 </r>
       <r>     9.0530     0.0000  1028.0000 </r>
       <r>     9.0983     0.0000  1028.0000 </r>
       <r>     9.1436     0.0000  1028.0000 </r>
       <r>     9.1888     0.0000  1028.0000 </r>
       <r>     9.2341     0.0000  1028.0000 </r>
       <r>     9.2794     0.0000  1028.0000 </r>
       <r>     9.3247     0.0000  1028.0000 </r>
       <r>     9.3700     0.0000  1028.0000 </r>
       <r>     9.4153     0.0000  1028.0000 </r>
       <r>     9.4605     0.0000  1028.0000 </r>
       <r>     9.5058     0.0000  1028.0000 </r>
       <r>     9.5511     0.0000  1028.0000 </r>
       <r>     9.5964     0.0000  1028.0000 </r>
      </set>
     </set>
    </array>
   </total>
  </dos>
 </calculation>
 <structure name="finalpos" >
  <crystal>
   <varray name="basis" >
    <v>      10.33484705       0.00000000       0.00000000 </v>
    <v>       0.00000000      10.33484705       0.00000000 </v>
    <v>       0.00000000       0.00000000      10.33484705 </v>
   </varray>
   <i name="volume">   1103.85533447 </i>
   <varray name="rec_basis" >
    <v>       0.09676002       0.00000000       0.00000000 </v>
    <v>       0.00000000       0.09676002       0.00000000 </v>
    <v>       0.00000000       0.00000000       0.09676002 </v>
   </varray>
  </crystal>
  <varray name="positions" >
   <v>      -0.00016591      -0.00000001       0.00000049 </v>
   <v>      -0.00025297       0.16641495       0.16641669 </v>
   <v>       0.00019330       0.33376715       0.00000051 </v>
   <v>       0.00199492       0.50000001       0.16866278 </v>
   <v>       0.00019329       0.66623288       0.00000049 </v>
   <v>      -0.00025300       0.83358516       0.16641672 </v>
   <v>       0.00019331      -0.00000001       0.33376843 </v>
   <v>       0.00199487       0.16866091       0.49999975 </v>
   <v>      -0.00011161       0.33319187       0.33319311 </v>
   <v>       0.00183714       0.49999992       0.49999958 </v>
   <v>      -0.00011160       0.66680819       0.33319313 </v>
   <v>       0.00199497       0.83133904       0.49999965 </v>
   <v>       0.00019332      -0.00000002       0.66623130 </v>
   <v>      -0.00025292       0.16641498       0.83358388 </v>
   <v>      -0.00011162       0.33319187       0.66680660 </v>
   <v>       0.00199497       0.50000002       0.83133788 </v>
   <v>      -0.00011161       0.66680820       0.66680659 </v>
   <v>      -0.00025300       0.83358510       0.83358386 </v>
   <v>       0.16710058       0.00000002       0.16686275 </v>
   <v>       0.16710061       0.16686100       0.00000051 </v>
   <v>       0.16710061       0.83313909       0.00000048 </v>
   <v>       0.16764265       0.33430571       0.49999860 </v>
   <v>       0.16764252       0.50000107       0.33430716 </v>
   <v>       0.16764272       0.66569435       0.49999855 </v>
   <v>       0.16710061       0.00000000       0.83313784 </v>
   <v>       0.16764288       0.50000003       0.66569166 </v>
   <v>       0.16652588       0.33319123       0.16655777 </v>
   <v>       0.16652587       0.66680878       0.16655779 </v>
   <v>       0.16652594       0.16655601       0.33319258 </v>
   <v>       0.16652597       0.83344403       0.33319260 </v>
   <v>       0.16652593       0.16655594       0.66680714 </v>
   <v>       0.16652587       0.33319122       0.83344285 </v>
   <v>       0.16652589       0.66680881       0.83344282 </v>
   <v>       0.16652596       0.83344408       0.66680712 </v>
   <v>       0.16712475       0.50000001       0.00000044 </v>
   <v>       0.16712482      -0.00000002       0.49999966 </v>
   <v>       0.33333455       0.00000001       0.00000051 </v>
   <v>       0.33333537       0.16865970       0.16866155 </v>
   <v>       0.33333535       0.83134040       0.16866144 </v>
   <v>       0.33333109       0.33430542       0.33430705 </v>
   <v>       0.33333100       0.66569460       0.33430700 </v>
   <v>       0.33333534       0.16865969       0.83133917 </v>
   <v>       0.33333104       0.33430531       0.66569277 </v>
   <v>       0.33333173       0.66569460       0.66569142 </v>
   <v>       0.33333538       0.83134035       0.83133901 </v>
   <v>       0.33333459       0.33379056       0.00000046 </v>
   <v>       0.33333467       0.50000000       0.16850700 </v>
   <v>       0.33333459       0.66620946       0.00000039 </v>
   <v>       0.33333459       0.00000002       0.33379199 </v>
   <v>       0.33333473       0.16850505       0.49999963 </v>
   <v>       0.33333461       0.83149489       0.49999961 </v>
   <v>       0.33333459      -0.00000003       0.66620769 </v>
   <v>       0.33333463       0.50000004       0.83149365 </v>
   <v>       0.49956762       0.00000002       0.16686269 </v>
   <v>       0.49956760       0.16686101       0.00000048 </v>
   <v>       0.50014224       0.33319150       0.16655784 </v>
   <v>       0.49954350       0.49999999       0.00000033 </v>
   <v>       0.50014224       0.66680855       0.16655779 </v>
   <v>       0.49956760       0.83313907       0.00000040 </v>
   <v>       0.49954334      -0.00000013       0.49999962 </v>
   <v>       0.50014220       0.16655602       0.33319288 </v>
   <v>       0.49902523       0.33430582       0.49999847 </v>
   <v>       0.49902459       0.50000065       0.33430987 </v>
   <v>       0.49902495       0.66569402       0.49999846 </v>
   <v>       0.50014214       0.83344403       0.33319285 </v>
   <v>       0.49956760      -0.00000005       0.83313781 </v>
   <v>       0.50014220       0.16655599       0.66680681 </v>
   <v>       0.50014225       0.33319151       0.83344279 </v>
   <v>       0.50014228       0.66680859       0.83344278 </v>
   <v>       0.50014217       0.83344399       0.66680690 </v>
   <v>       0.66647261       0.33376746       0.00000043 </v>
   <v>       0.66467074       0.49999997       0.16866328 </v>
   <v>       0.66647262       0.66623264       0.00000034 </v>
   <v>       0.66647262      -0.00000009       0.33376867 </v>
   <v>       0.66467100       0.16866056       0.49999954 </v>
   <v>       0.66467054       0.83133762       0.49999949 </v>
   <v>       0.66647262      -0.00000015       0.66623104 </v>
   <v>       0.66467043       0.49999994       0.83133618 </v>
   <v>       0.66691917       0.16641496       0.16641672 </v>
   <v>       0.66691918       0.83358502       0.16641659 </v>
   <v>       0.66677726       0.33319189       0.33319335 </v>
   <v>       0.66677732       0.66680813       0.33319318 </v>
   <v>       0.66691913       0.16641492       0.83358381 </v>
   <v>       0.66677728       0.33319181       0.66680632 </v>
   <v>       0.66677731       0.66680825       0.66680657 </v>
   <v>       0.66691912       0.83358500       0.83358390 </v>
   <v>       0.66683203      -0.00000005       0.00000050 </v>
   <v>       0.66482839       0.49999988       0.49999952 </v>
   <v>       0.83333213       0.50000001       0.00000043 </v>
   <v>       0.83333223      -0.00000010       0.49999966 </v>
   <v>       0.83333231       0.33376724       0.16686260 </v>
   <v>       0.83333231       0.66623281       0.16686255 </v>
   <v>       0.83333231       0.16686084       0.33376851 </v>
   <v>       0.83333230       0.83313917       0.33376856 </v>
   <v>       0.83333228       0.16686081       0.66623117 </v>
   <v>       0.83333227       0.33376728       0.83313795 </v>
   <v>       0.83333222       0.66623279       0.83313791 </v>
   <v>       0.83333224       0.83313915       0.66623114 </v>
   <v>       0.83333215       0.00000000       0.16650328 </v>
   <v>       0.83333214       0.16650160       0.00000053 </v>
   <v>       0.83333215       0.83349846       0.00000053 </v>
   <v>       0.83333258       0.33379061       0.49999960 </v>
   <v>       0.83333265       0.49999995       0.33379200 </v>
   <v>       0.83333267       0.66620945       0.49999961 </v>
   <v>       0.83333213      -0.00000003       0.83349725 </v>
   <v>       0.83333266       0.49999999       0.66620770 </v>
   <v>       0.49902436       0.49999997       0.66568839 </v>
  </varray>
 </structure>
</modeling>
