 108 108   0   0
  0.1022088E+02  0.1033485E-08  0.1033485E-08  0.1033485E-08  0.5000000E-15
  1.000000000000000E-004
  CAR 
 Opt                                     
      9.63234137     -3.69852364  301      6.83921692      1.00000000
     -3.699  0.0000E+00  0.0000E+00
     -3.654  0.0000E+00  0.0000E+00
     -3.610  0.0000E+00  0.0000E+00
     -3.565  0.0000E+00  0.0000E+00
     -3.521  0.0000E+00  0.0000E+00
     -3.476  0.0000E+00  0.0000E+00
     -3.432  0.0000E+00  0.0000E+00
     -3.387  0.0000E+00  0.0000E+00
     -3.343  0.0000E+00  0.0000E+00
     -3.299 -0.1619E-27 -0.7196E-29
     -3.254 -0.5082E-26 -0.2330E-27
     -3.210 -0.1485E-24 -0.6830E-26
     -3.165 -0.3925E-23 -0.1812E-24
     -3.121 -0.9387E-22 -0.4352E-23
     -3.076 -0.2031E-20 -0.9461E-22
     -3.032 -0.3976E-19 -0.1861E-20
     -2.988 -0.7039E-18 -0.3314E-19
     -2.943 -0.1127E-16 -0.5339E-18
     -2.899 -0.1631E-15 -0.7783E-17
     -2.854 -0.2060E-14 -0.9933E-16
     -2.810 -0.2446E-13 -0.1186E-14
     -2.765 -0.2605E-12 -0.1276E-13
     -2.721 -0.2508E-11 -0.1242E-12
     -2.676 -0.2179E-10 -0.1092E-11
     -2.632 -0.1708E-09 -0.8682E-11
     -2.588 -0.1207E-08 -0.6233E-10
     -2.543 -0.7692E-08 -0.4041E-09
     -2.499 -0.4413E-07 -0.2365E-08
     -2.454 -0.2278E-06 -0.1249E-07
     -2.410 -0.1056E-05 -0.5943E-07
     -2.365 -0.4396E-05 -0.2548E-06
     -2.321 -0.1638E-04 -0.9828E-06
     -2.277 -0.5453E-04 -0.3406E-05
     -2.232 -0.1615E-03 -0.1058E-04
     -2.188 -0.4234E-03 -0.2940E-04
     -2.143 -0.9749E-03 -0.7272E-04
     -2.099 -0.1945E-02 -0.1591E-03
     -2.054 -0.3278E-02 -0.3048E-03
     -2.010 -0.4415E-02 -0.5010E-03
     -1.966 -0.3963E-02 -0.6771E-03
     -1.921  0.2862E-03 -0.6644E-03
     -1.877  0.1057E-01 -0.1946E-03
     -1.832  0.2763E-01  0.1033E-02
     -1.788  0.4915E-01  0.3217E-02
     -1.743  0.6964E-01  0.6312E-02
     -1.699  0.8230E-01  0.9969E-02
     -1.654  0.8241E-01  0.1363E-01
     -1.610  0.6992E-01  0.1674E-01
     -1.566  0.4947E-01  0.1894E-01
     -1.521  0.2779E-01  0.2017E-01
     -1.477  0.1030E-01  0.2063E-01
     -1.432 -0.9027E-03  0.2059E-01
     -1.388 -0.6924E-02  0.2028E-01
     -1.343 -0.1037E-01  0.1982E-01
     -1.299 -0.1326E-01  0.1923E-01
     -1.255 -0.1527E-01  0.1855E-01
     -1.210 -0.1269E-01  0.1799E-01
     -1.166  0.1077E-02  0.1804E-01
     -1.121  0.3282E-01  0.1949E-01
     -1.077  0.8466E-01  0.2326E-01
     -1.032  0.1495E+00  0.2990E-01
     -0.988  0.2105E+00  0.3925E-01
     -0.943  0.2475E+00  0.5025E-01
     -0.899  0.2466E+00  0.6121E-01
     -0.855  0.2081E+00  0.7046E-01
     -0.810  0.1463E+00  0.7696E-01
     -0.766  0.8137E-01  0.8057E-01
     -0.721  0.2944E-01  0.8188E-01
     -0.677 -0.3165E-02  0.8174E-01
     -0.632 -0.1904E-01  0.8089E-01
     -0.588 -0.2439E-01  0.7981E-01
     -0.544 -0.2339E-01  0.7877E-01
     -0.499 -0.1509E-01  0.7810E-01
     -0.455  0.5885E-02  0.7836E-01
     -0.410  0.4520E-01  0.8037E-01
     -0.366  0.1028E+00  0.8494E-01
     -0.321  0.1689E+00  0.9245E-01
     -0.277  0.2249E+00  0.1024E+00
     -0.232  0.2514E+00  0.1136E+00
     -0.188  0.2383E+00  0.1242E+00
     -0.144  0.1903E+00  0.1327E+00
     -0.099  0.1243E+00  0.1382E+00
     -0.055  0.5986E-01  0.1408E+00
     -0.010  0.1052E-01  0.1413E+00
      0.034 -0.1920E-01  0.1405E+00
      0.079 -0.3027E-01  0.1391E+00
      0.123 -0.2330E-01  0.1381E+00
      0.167  0.4579E-02  0.1383E+00
      0.212  0.5724E-01  0.1408E+00
      0.256  0.1330E+00  0.1467E+00
      0.301  0.2192E+00  0.1565E+00
      0.345  0.2926E+00  0.1695E+00
      0.390  0.3288E+00  0.1841E+00
      0.434  0.3144E+00  0.1981E+00
      0.478  0.2541E+00  0.2093E+00
      0.523  0.1682E+00  0.2168E+00
      0.567  0.8175E-01  0.2204E+00
      0.612  0.1317E-01  0.2210E+00
      0.656 -0.2899E-01  0.2197E+00
      0.701 -0.4194E-01  0.2179E+00
      0.745 -0.2215E-01  0.2169E+00
      0.790  0.3636E-01  0.2185E+00
      0.834  0.1356E+00  0.2245E+00
      0.878  0.2636E+00  0.2363E+00
      0.923  0.3901E+00  0.2536E+00
      0.967  0.4748E+00  0.2747E+00
      1.012  0.4875E+00  0.2964E+00
      1.056  0.4260E+00  0.3153E+00
      1.101  0.3201E+00  0.3295E+00
      1.145  0.2166E+00  0.3391E+00
      1.189  0.1547E+00  0.3460E+00
      1.234  0.1469E+00  0.3525E+00
      1.278  0.1761E+00  0.3604E+00
      1.323  0.2091E+00  0.3696E+00
      1.367  0.2164E+00  0.3793E+00
      1.412  0.1873E+00  0.3876E+00
      1.456  0.1335E+00  0.3935E+00
      1.501  0.8054E-01  0.3971E+00
      1.545  0.5364E-01  0.3995E+00
      1.589  0.6688E-01  0.4024E+00
      1.634  0.1198E+00  0.4078E+00
      1.678  0.2017E+00  0.4167E+00
      1.723  0.2996E+00  0.4300E+00
      1.767  0.4032E+00  0.4480E+00
      1.812  0.5059E+00  0.4704E+00
      1.856  0.6016E+00  0.4972E+00
      1.900  0.6846E+00  0.5276E+00
      1.945  0.7537E+00  0.5611E+00
      1.989  0.8152E+00  0.5973E+00
      2.034  0.8804E+00  0.6364E+00
      2.078  0.9542E+00  0.6788E+00
      2.123  0.1026E+01  0.7244E+00
      2.167  0.1075E+01  0.7722E+00
      2.211  0.1085E+01  0.8204E+00
      2.256  0.1064E+01  0.8677E+00
      2.300  0.1045E+01  0.9141E+00
      2.345  0.1062E+01  0.9613E+00
      2.389  0.1124E+01  0.1011E+01
      2.434  0.1205E+01  0.1065E+01
      2.478  0.1263E+01  0.1121E+01
      2.523  0.1269E+01  0.1177E+01
      2.567  0.1222E+01  0.1232E+01
      2.611  0.1152E+01  0.1283E+01
      2.656  0.1094E+01  0.1331E+01
      2.700  0.1077E+01  0.1379E+01
      2.745  0.1107E+01  0.1428E+01
      2.789  0.1181E+01  0.1481E+01
      2.834  0.1291E+01  0.1538E+01
      2.878  0.1435E+01  0.1602E+01
      2.922  0.1599E+01  0.1673E+01
      2.967  0.1751E+01  0.1751E+01
      3.011  0.1841E+01  0.1833E+01
      3.056  0.1831E+01  0.1914E+01
      3.100  0.1730E+01  0.1991E+01
      3.145  0.1605E+01  0.2062E+01
      3.189  0.1540E+01  0.2131E+01
      3.234  0.1577E+01  0.2201E+01
      3.278  0.1675E+01  0.2275E+01
      3.322  0.1746E+01  0.2353E+01
      3.367  0.1713E+01  0.2429E+01
      3.411  0.1571E+01  0.2499E+01
      3.456  0.1385E+01  0.2560E+01
      3.500  0.1247E+01  0.2616E+01
      3.545  0.1220E+01  0.2670E+01
      3.589  0.1311E+01  0.2728E+01
      3.633  0.1477E+01  0.2794E+01
      3.678  0.1654E+01  0.2867E+01
      3.722  0.1773E+01  0.2946E+01
      3.767  0.1786E+01  0.3025E+01
      3.811  0.1676E+01  0.3100E+01
      3.856  0.1467E+01  0.3165E+01
      3.900  0.1219E+01  0.3219E+01
      3.945  0.1004E+01  0.3264E+01
      3.989  0.8860E+00  0.3303E+01
      4.033  0.8986E+00  0.3343E+01
      4.078  0.1031E+01  0.3389E+01
      4.122  0.1229E+01  0.3444E+01
      4.167  0.1413E+01  0.3506E+01
      4.211  0.1509E+01  0.3573E+01
      4.256  0.1494E+01  0.3640E+01
      4.300  0.1404E+01  0.3702E+01
      4.344  0.1325E+01  0.3761E+01
      4.389  0.1338E+01  0.3821E+01
      4.433  0.1485E+01  0.3886E+01
      4.478  0.1741E+01  0.3964E+01
      4.522  0.2032E+01  0.4054E+01
      4.567  0.2269E+01  0.4155E+01
      4.611  0.2384E+01  0.4261E+01
      4.655  0.2347E+01  0.4365E+01
      4.700  0.2172E+01  0.4462E+01
      4.744  0.1908E+01  0.4546E+01
      4.789  0.1637E+01  0.4619E+01
      4.833  0.1449E+01  0.4684E+01
      4.878  0.1417E+01  0.4747E+01
      4.922  0.1551E+01  0.4816E+01
      4.967  0.1797E+01  0.4895E+01
      5.011  0.2061E+01  0.4987E+01
      5.055  0.2266E+01  0.5088E+01
      5.100  0.2383E+01  0.5194E+01
      5.144  0.2433E+01  0.5302E+01
      5.189  0.2452E+01  0.5411E+01
      5.233  0.2461E+01  0.5520E+01
      5.278  0.2470E+01  0.5630E+01
      5.322  0.2486E+01  0.5740E+01
      5.366  0.2524E+01  0.5852E+01
      5.411  0.2597E+01  0.5968E+01
      5.455  0.2693E+01  0.6087E+01
      5.500  0.2764E+01  0.6210E+01
      5.544  0.2734E+01  0.6332E+01
      5.589  0.2546E+01  0.6445E+01
      5.633  0.2199E+01  0.6543E+01
      5.678  0.1763E+01  0.6621E+01
      5.722  0.1361E+01  0.6681E+01
      5.766  0.1110E+01  0.6731E+01
      5.811  0.1070E+01  0.6778E+01
      5.855  0.1228E+01  0.6833E+01
      5.900  0.1511E+01  0.6900E+01
      5.944  0.1818E+01  0.6981E+01
      5.989  0.2053E+01  0.7072E+01
      6.033  0.2141E+01  0.7167E+01
      6.077  0.2045E+01  0.7258E+01
      6.122  0.1791E+01  0.7338E+01
      6.166  0.1464E+01  0.7403E+01
      6.211  0.1194E+01  0.7456E+01
      6.255  0.1107E+01  0.7505E+01
      6.300  0.1268E+01  0.7561E+01
      6.344  0.1650E+01  0.7635E+01
      6.388  0.2143E+01  0.7730E+01
      6.433  0.2600E+01  0.7845E+01
      6.477  0.2889E+01  0.7974E+01
      6.522  0.2937E+01  0.8104E+01
      6.566  0.2741E+01  0.8226E+01
      6.611  0.2366E+01  0.8331E+01
      6.655  0.1915E+01  0.8416E+01
      6.700  0.1500E+01  0.8483E+01
      6.744  0.1207E+01  0.8537E+01
      6.788  0.1075E+01  0.8584E+01
      6.833  0.1089E+01  0.8633E+01
      6.877  0.1202E+01  0.8686E+01
      6.922  0.1359E+01  0.8747E+01
      6.966  0.1534E+01  0.8815E+01
      7.011  0.1735E+01  0.8892E+01
      7.055  0.1987E+01  0.8980E+01
      7.099  0.2282E+01  0.9081E+01
      7.144  0.2552E+01  0.9195E+01
      7.188  0.2684E+01  0.9314E+01
      7.233  0.2587E+01  0.9429E+01
      7.277  0.2260E+01  0.9529E+01
      7.322  0.1819E+01  0.9610E+01
      7.366  0.1449E+01  0.9675E+01
      7.411  0.1315E+01  0.9733E+01
      7.455  0.1476E+01  0.9799E+01
      7.499  0.1848E+01  0.9881E+01
      7.544  0.2241E+01  0.9981E+01
      7.588  0.2445E+01  0.1009E+02
      7.633  0.2331E+01  0.1019E+02
      7.677  0.1909E+01  0.1028E+02
      7.722  0.1313E+01  0.1034E+02
      7.766  0.7188E+00  0.1037E+02
      7.810  0.2621E+00  0.1038E+02
      7.855 -0.7145E-02  0.1038E+02
      7.899 -0.1152E+00  0.1037E+02
      7.944 -0.1238E+00  0.1037E+02
      7.988 -0.9131E-01  0.1036E+02
      8.033 -0.5435E-01  0.1036E+02
      8.077 -0.2750E-01  0.1036E+02
      8.122 -0.1210E-01  0.1036E+02
      8.166 -0.4694E-02  0.1036E+02
      8.210 -0.1616E-02  0.1036E+02
      8.255 -0.4967E-03  0.1036E+02
      8.299 -0.1367E-03  0.1036E+02
      8.344 -0.3376E-04  0.1036E+02
      8.388 -0.7502E-05  0.1036E+02
      8.433 -0.1501E-05  0.1036E+02
      8.477 -0.2710E-06  0.1036E+02
      8.521 -0.4413E-07  0.1036E+02
      8.566 -0.6492E-08  0.1036E+02
      8.610 -0.8629E-09  0.1036E+02
      8.655 -0.1037E-09  0.1036E+02
      8.699 -0.1127E-10  0.1036E+02
      8.744 -0.1109E-11  0.1036E+02
      8.788 -0.9874E-13  0.1036E+02
      8.832 -0.8295E-14  0.1036E+02
      8.877 -0.4997E-15  0.1036E+02
      8.921  0.0000E+00  0.1036E+02
      8.966  0.0000E+00  0.1036E+02
      9.010  0.0000E+00  0.1036E+02
      9.055  0.0000E+00  0.1036E+02
      9.099  0.0000E+00  0.1036E+02
      9.144  0.0000E+00  0.1036E+02
      9.188  0.0000E+00  0.1036E+02
      9.232  0.0000E+00  0.1036E+02
      9.277  0.0000E+00  0.1036E+02
      9.321  0.0000E+00  0.1036E+02
      9.366  0.0000E+00  0.1036E+02
      9.410  0.0000E+00  0.1036E+02
      9.455  0.0000E+00  0.1036E+02
      9.499  0.0000E+00  0.1036E+02
      9.543  0.0000E+00  0.1036E+02
      9.588  0.0000E+00  0.1036E+02
      9.632  0.0000E+00  0.1036E+02
