  108  108  100    1
  0.1022088E+02  0.1033485E-08  0.1033485E-08  0.1033485E-08  0.5000000E-15
  1.000000000000000E-004
  CAR 
 Opt                                     
    864      1    518
 
  0.2500000E+00  0.2500000E+00  0.2500000E+00  0.1000000E+01
    1       -1.698524   1.000000
    2       -0.944468   1.000000
    3       -0.944468   1.000000
    4       -0.944468   1.000000
    5       -0.246778   1.000000
    6       -0.246778   1.000000
    7       -0.246778   1.000000
    8        0.341876   1.000000
    9        0.388896   1.000000
   10        0.388896   1.000000
   11        0.388896   1.000000
   12        0.976129   1.000000
   13        0.976129   1.000000
   14        0.976129   1.000000
   15        0.976129   1.000000
   16        0.976129   1.000000
   17        0.976129   1.000000
   18        1.329977   1.000000
   19        1.329977   1.000000
   20        1.329977   1.000000
   21        1.714359   1.000000
   22        1.714359   1.000000
   23        1.714360   1.000000
   24        1.865527   1.000000
   25        1.865530   1.000000
   26        1.865530   1.000000
   27        1.893317   1.000000
   28        1.942322   1.000000
   29        1.942322   1.000000
   30        1.942322   1.000000
   31        2.015880   1.000000
   32        2.015887   1.000000
   33        2.015887   1.000000
   34        2.121266   1.000000
   35        2.121266   1.000000
   36        2.121266   1.000000
   37        2.155506   1.000000
   38        2.155508   1.000000
   39        2.155508   1.000000
   40        2.205631   1.000000
   41        2.205631   1.000000
   42        2.205631   1.000000
   43        2.205631   1.000000
   44        2.205631   1.000000
   45        2.205631   1.000000
   46        2.308454   1.000000
   47        2.308454   1.000000
   48        2.308454   1.000000
   49        2.444196   1.000000
   50        2.444196   1.000000
   51        2.444196   1.000000
   52        2.444197   1.000000
   53        2.444197   1.000000
   54        2.444197   1.000000
   55        2.453052   1.000000
   56        2.453052   1.000000
   57        2.453052   1.000000
   58        2.453058   1.000000
   59        2.453059   1.000000
   60        2.453059   1.000000
   61        2.590587   1.000000
   62        2.590587   1.000000
   63        2.590587   1.000000
   64        2.590590   1.000000
   65        2.590590   1.000000
   66        2.590590   1.000000
   67        2.668464   1.000000
   68        2.668464   1.000000
   69        2.668464   1.000000
   70        2.734527   1.000000
   71        2.734527   1.000000
   72        2.734527   1.000000
   73        2.806498   1.000000
   74        2.806504   1.000000
   75        2.806504   1.000000
   76        2.816772   1.000000
   77        2.816772   1.000000
   78        2.816772   1.000000
   79        2.874398   1.000000
   80        2.874398   1.000000
   81        2.874398   1.000000
   82        2.874399   1.000000
   83        2.874399   1.000000
   84        2.874399   1.000000
   85        3.020064   1.000000
   86        3.020064   1.000000
   87        3.020064   1.000000
   88        3.021455   1.000000
   89        3.021455   1.000000
   90        3.021455   1.000000
   91        3.021459   1.000000
   92        3.021459   1.000000
   93        3.021459   1.000000
   94        3.027679   1.000000
   95        3.027679   1.000000
   96        3.027679   1.000000
   97        3.027688   1.000000
   98        3.027688   1.000000
   99        3.027688   1.000000
  100        3.074951   1.000000
  101        3.074951   1.000000
  102        3.074951   1.000000
  103        3.074952   1.000000
  104        3.074952   1.000000
  105        3.074952   1.000000
  106        3.262933   1.000000
  107        3.262933   1.000000
  108        3.262933   1.000000
  109        3.262933   1.000000
  110        3.262933   1.000000
  111        3.262933   1.000000
  112        3.294972   1.000000
  113        3.294973   1.000000
  114        3.294973   1.000000
  115        3.311831   1.000000
  116        3.311831   1.000000
  117        3.311831   1.000000
  118        3.317114   1.000000
  119        3.317114   1.000000
  120        3.317114   1.000000
  121        3.317117   1.000000
  122        3.317117   1.000000
  123        3.317117   1.000000
  124        3.388430   1.000000
  125        3.388430   1.000000
  126        3.388430   1.000000
  127        3.388434   1.000000
  128        3.388434   1.000000
  129        3.388435   1.000000
  130        3.535832   1.000000
  131        3.535832   1.000000
  132        3.535832   1.000000
  133        3.587968   1.000000
  134        3.587974   1.000000
  135        3.587974   1.000000
  136        3.589035   1.000000
  137        3.589035   1.000000
  138        3.589035   1.000000
  139        3.589036   1.000000
  140        3.589036   1.000000
  141        3.589036   1.000000
  142        3.720114   1.000000
  143        3.720114   1.000000
  144        3.720114   1.000000
  145        3.720115   1.000000
  146        3.720115   1.000000
  147        3.720116   1.000000
  148        3.759141   1.000000
  149        3.759141   1.000000
  150        3.759141   1.000000
  151        3.759141   1.000000
  152        3.759141   1.000000
  153        3.759141   1.000000
  154        3.778644   1.000000
  155        3.778644   1.000000
  156        3.778644   1.000000
  157        3.778645   1.000000
  158        3.778645   1.000000
  159        3.778645   1.000000
  160        3.915998   1.000000
  161        3.915998   1.000000
  162        3.915998   1.000000
  163        3.916007   1.000000
  164        3.916007   1.000000
  165        3.916007   1.000000
  166        4.017527   1.000000
  167        4.017527   1.000000
  168        4.017527   1.000000
  169        4.154343   1.000000
  170        4.154343   1.000000
  171        4.154343   1.000000
  172        4.162971   1.000000
  173        4.162974   1.000000
  174        4.162974   1.000000
  175        4.162993   1.000000
  176        4.162993   1.000000
  177        4.162996   1.000000
  178        4.166264   1.000000
  179        4.166264   1.000000
  180        4.166264   1.000000
  181        4.247959   1.000000
  182        4.247959   1.000000
  183        4.247959   1.000000
  184        4.247960   1.000000
  185        4.247960   1.000000
  186        4.247960   1.000000
  187        4.302682   1.000000
  188        4.302682   1.000000
  189        4.302682   1.000000
  190        4.395832   1.000000
  191        4.395832   1.000000
  192        4.395832   1.000000
  193        4.465655   1.000000
  194        4.465655   1.000000
  195        4.465655   1.000000
  196        4.465655   1.000000
  197        4.465655   1.000000
  198        4.465655   1.000000
  199        4.519793   1.000000
  200        4.519794   1.000000
  201        4.519794   1.000000
  202        4.519800   1.000000
  203        4.519800   1.000000
  204        4.519800   1.000000
  205        4.567102   1.000000
  206        4.567102   1.000000
  207        4.567102   1.000000
  208        4.580263   1.000000
  209        4.580263   1.000000
  210        4.580263   1.000000
  211        4.580265   1.000000
  212        4.580266   1.000000
  213        4.580266   1.000000
  214        4.604031   1.000000
  215        4.604031   1.000000
  216        4.604031   1.000000
  217        4.620438   1.000000
  218        4.620438   1.000000
  219        4.620438   1.000000
  220        4.662199   1.000000
  221        4.729979   1.000000
  222        4.729979   1.000000
  223        4.729979   1.000000
  224        4.729982   1.000000
  225        4.729982   1.000000
  226        4.729982   1.000000
  227        4.734306   1.000000
  228        4.734306   1.000000
  229        4.734306   1.000000
  230        4.734307   1.000000
  231        4.734307   1.000000
  232        4.734307   1.000000
  233        4.744688   1.000000
  234        4.744688   1.000000
  235        4.744688   1.000000
  236        4.893278   1.000000
  237        4.893281   1.000000
  238        4.893281   1.000000
  239        4.974925   1.000000
  240        4.974926   1.000000
  241        4.974926   1.000000
  242        4.974934   1.000000
  243        4.974934   1.000000
  244        4.974934   1.000000
  245        5.006824   1.000000
  246        5.006824   1.000000
  247        5.006824   1.000000
  248        5.006824   1.000000
  249        5.006824   1.000000
  250        5.006824   1.000000
  251        5.008184   1.000000
  252        5.008184   1.000000
  253        5.008184   1.000000
  254        5.010424   1.000000
  255        5.010424   1.000000
  256        5.010424   1.000000
  257        5.043441   1.000000
  258        5.043441   1.000000
  259        5.043442   1.000000
  260        5.073781   1.000000
  261        5.146100   1.000000
  262        5.146100   1.000000
  263        5.146107   1.000000
  264        5.153149   1.000000
  265        5.153149   1.000000
  266        5.168867   1.000000
  267        5.168867   1.000000
  268        5.168867   1.000000
  269        5.168868   1.000000
  270        5.168868   1.000000
  271        5.168868   1.000000
  272        5.183141   1.000000
  273        5.183141   1.000000
  274        5.183153   1.000000
  275        5.246506   1.000000
  276        5.246515   1.000000
  277        5.246515   1.000000
  278        5.260622   1.000000
  279        5.260622   1.000000
  280        5.260624   1.000000
  281        5.265724   1.000000
  282        5.265724   1.000000
  283        5.297599   1.000000
  284        5.297599   1.000000
  285        5.297599   1.000000
  286        5.297599   1.000000
  287        5.297599   1.000000
  288        5.297599   1.000000
  289        5.325277   1.000000
  290        5.325277   1.000000
  291        5.325277   1.000000
  292        5.367105   1.000000
  293        5.367106   1.000000
  294        5.367106   1.000000
  295        5.401695   1.000000
  296        5.401695   1.000000
  297        5.401695   1.000000
  298        5.401704   1.000000
  299        5.401704   1.000000
  300        5.401705   1.000000
  301        5.457221   1.000000
  302        5.457221   1.000000
  303        5.479002   1.000000
  304        5.479002   1.000000
  305        5.479002   1.000000
  306        5.493552   1.000000
  307        5.493552   1.000000
  308        5.493552   1.000000
  309        5.498293   1.000000
  310        5.498293   1.000000
  311        5.498293   1.000000
  312        5.506239   1.000000
  313        5.506239   1.000000
  314        5.506239   1.000000
  315        5.520379   1.000000
  316        5.520379   1.000000
  317        5.520379   1.000000
  318        5.587946   1.000000
  319        5.587947   1.000000
  320        5.587947   1.000000
  321        5.587947   1.000000
  322        5.587947   1.000000
  323        5.587947   1.000000
  324        5.592139   1.000000
  325        5.592139   1.000000
  326        5.592139   1.000000
  327        5.618626   1.000000
  328        5.618626   1.000000
  329        5.618626   1.000000
  330        5.620234   1.000000
  331        5.620234   1.000000
  332        5.620234   1.000000
  333        5.640421   1.000000
  334        5.640421   1.000000
  335        5.640422   1.000000
  336        5.834023   1.000000
  337        5.834023   1.000000
  338        5.834023   1.000000
  339        5.835294   1.000000
  340        5.835294   1.000000
  341        5.835294   1.000000
  342        5.886453   1.000000
  343        5.886453   1.000000
  344        5.886453   1.000000
  345        5.886454   1.000000
  346        5.886454   1.000000
  347        5.886454   1.000000
  348        5.968471   1.000000
  349        5.968471   1.000000
  350        5.968471   1.000000
  351        6.002668   1.000000
  352        6.002668   1.000000
  353        6.002668   1.000000
  354        6.002669   1.000000
  355        6.002669   1.000000
  356        6.002670   1.000000
  357        6.023306   1.000000
  358        6.023307   1.000000
  359        6.023307   1.000000
  360        6.023317   1.000000
  361        6.023317   1.000000
  362        6.023317   1.000000
  363        6.088703   1.000001
  364        6.088703   1.000001
  365        6.088706   1.000001
  366        6.115017   1.000002
  367        6.115018   1.000002
  368        6.115018   1.000002
  369        6.120022   1.000002
  370        6.120022   1.000002
  371        6.120022   1.000002
  372        6.120027   1.000002
  373        6.120028   1.000002
  374        6.120028   1.000002
  375        6.232880   1.000078
  376        6.338173   1.001131
  377        6.338182   1.001131
  378        6.338182   1.001131
  379        6.377350   1.002601
  380        6.377350   1.002601
  381        6.377350   1.002601
  382        6.377356   1.002601
  383        6.377356   1.002601
  384        6.377356   1.002601
  385        6.386410   1.003112
  386        6.386410   1.003112
  387        6.386410   1.003112
  388        6.406197   1.004524
  389        6.406197   1.004524
  390        6.406197   1.004524
  391        6.410868   1.004925
  392        6.410868   1.004925
  393        6.410868   1.004925
  394        6.459888   1.011003
  395        6.459888   1.011003
  396        6.459888   1.011003
  397        6.459888   1.011003
  398        6.459888   1.011003
  399        6.459888   1.011003
  400        6.521078   1.023496
  401        6.521078   1.023496
  402        6.521078   1.023496
  403        6.521080   1.023497
  404        6.521080   1.023497
  405        6.521080   1.023497
  406        6.538897   1.027580
  407        6.538897   1.027580
  408        6.538897   1.027580
  409        6.538898   1.027580
  410        6.538898   1.027580
  411        6.538898   1.027580
  412        6.543494   1.028594
  413        6.543494   1.028594
  414        6.543494   1.028594
  415        6.549119   1.029791
  416        6.549119   1.029791
  417        6.549120   1.029792
  418        6.588936   1.035352
  419        6.588936   1.035352
  420        6.588937   1.035352
  421        6.685808   0.981129
  422        6.685808   0.981129
  423        6.685808   0.981129
  424        6.685818   0.981114
  425        6.685819   0.981114
  426        6.685819   0.981114
  427        6.707028   0.945491
  428        6.707028   0.945491
  429        6.839440   0.499055
  430        6.839440   0.499055
  431        6.839442   0.499048
  432        6.871614   0.364892
  433        6.871614   0.364892
  434        6.872611   0.360859
  435        6.872611   0.360859
  436        6.872611   0.360859
  437        6.938234   0.132613
  438        6.938234   0.132613
  439        6.938234   0.132613
  440        6.938236   0.132609
  441        6.938236   0.132609
  442        6.938236   0.132609
  443        7.018721  -0.010965
  444        7.018721  -0.010965
  445        7.018721  -0.010965
  446        7.018727  -0.010971
  447        7.018727  -0.010971
  448        7.018728  -0.010971
  449        7.019309  -0.011477
  450        7.019309  -0.011477
  451        7.019309  -0.011477
  452        7.160286  -0.022819
  453        7.160286  -0.022819
  454        7.160286  -0.022819
  455        7.165094  -0.021713
  456        7.165094  -0.021713
  457        7.165098  -0.021712
  458        7.174073  -0.019681
  459        7.174073  -0.019681
  460        7.174073  -0.019681
  461        7.174073  -0.019681
  462        7.174073  -0.019681
  463        7.174073  -0.019681
  464        7.181363  -0.018082
  465        7.181367  -0.018081
  466        7.181367  -0.018081
  467        7.190756  -0.016109
  468        7.190756  -0.016109
  469        7.190759  -0.016108
  470        7.216992  -0.011257
  471        7.216995  -0.011256
  472        7.216995  -0.011256
  473        7.217767  -0.011130
  474        7.217767  -0.011130
  475        7.217767  -0.011130
  476        7.218541  -0.011004
  477        7.218541  -0.011004
  478        7.218541  -0.011004
  479        7.218549  -0.011002
  480        7.218549  -0.011002
  481        7.218549  -0.011002
  482        7.325895  -0.001551
  483        7.325895  -0.001551
  484        7.325904  -0.001551
  485        7.392978  -0.000321
  486        7.392980  -0.000321
  487        7.392982  -0.000321
  488        7.496816  -0.000017
  489        7.496857  -0.000017
  490        7.497010  -0.000017
  491        7.551194  -0.000003
  492        7.551265  -0.000003
  493        7.551372  -0.000003
  494        7.551592  -0.000003
  495        7.552127  -0.000003
  496        7.552762  -0.000003
  497        7.574446  -0.000001
  498        7.574504  -0.000001
  499        7.574742  -0.000001
  500        7.575218  -0.000001
  501        7.577340  -0.000001
  502        7.578946  -0.000001
  503        7.586560  -0.000001
  504        7.586744  -0.000001
  505        7.586882  -0.000001
  506        7.587455  -0.000001
  507        7.587763  -0.000001
  508        7.589089  -0.000001
  509        7.592769  -0.000001
  510        7.592948  -0.000001
  511        7.593935  -0.000001
  512        7.595543  -0.000001
  513        7.599460  -0.000001
  514        7.606082  -0.000000
  515        7.614308  -0.000000
  516        7.617423  -0.000000
  517        7.620906  -0.000000
  518        7.632341  -0.000000
