Automatically generated mesh
       1
Reciprocal lattice
    0.25000000000000    0.25000000000000    0.25000000000000             8
