       N       E                     dE             d eps       ncg     rms          rms(c)
DAV:   1     0.761053292025E+04    0.76105E+04   -0.28928E+05  1036   0.184E+03
DAV:   2    -0.218591279941E+02   -0.76324E+04   -0.74626E+04  1036   0.458E+02
DAV:   3    -0.852731493229E+03   -0.83087E+03   -0.71099E+03  1052   0.192E+02
DAV:   4    -0.103016860505E+04   -0.17744E+03   -0.16571E+03  1888   0.571E+01
DAV:   5    -0.104584964268E+04   -0.15681E+02   -0.14811E+02  1640   0.217E+01    0.941E+01
RMM:   6    -0.878502295656E+03    0.16735E+03   -0.13742E+03  1036   0.111E+02    0.915E+00
RMM:   7    -0.881675189933E+03   -0.31729E+01   -0.11132E+02  1123   0.239E+01    0.640E+00
RMM:   8    -0.883740779034E+03   -0.20656E+01   -0.18945E+01  1219   0.838E+00    0.217E+01
RMM:   9    -0.880754113016E+03    0.29867E+01   -0.65609E+00  1064   0.745E+00    0.218E+00
RMM:  10    -0.880731289719E+03    0.22823E-01   -0.24679E+00  1529   0.107E+00    0.173E+00
RMM:  11    -0.880720159584E+03    0.11130E-01   -0.22095E-01  1281   0.679E-01    0.268E-01
RMM:  12    -0.880726002762E+03   -0.58432E-02   -0.52621E-02  1508   0.169E-01    0.251E-01
RMM:  13    -0.880724584991E+03    0.14178E-02   -0.62891E-03  1145   0.217E-01    0.367E-02
RMM:  14    -0.880724770021E+03   -0.18503E-03   -0.24825E-03  1375   0.362E-02    0.434E-02
RMM:  15    -0.880724761337E+03    0.86833E-05   -0.80445E-05  1243   0.360E-02    0.130E-02
RMM:  16    -0.880724760567E+03    0.76974E-06    0.30484E-05  1482   0.838E-03    0.871E-04
RMM:  17    -0.880724760616E+03   -0.48414E-07    0.51969E-05   892   0.334E-03    0.348E-03
RMM:  18    -0.880724755196E+03    0.54198E-05    0.40530E-05   727   0.428E-03    0.569E-04
RMM:  19    -0.880724753065E+03    0.21315E-05    0.26144E-05   681   0.231E-03    0.165E-03
RMM:  20    -0.880724750264E+03    0.28002E-05    0.23293E-05   665   0.242E-03    0.185E-04
RMM:  21    -0.880724748078E+03    0.21861E-05    0.19411E-05   600   0.104E-03    0.429E-04
RMM:  22    -0.880724746267E+03    0.18111E-05    0.18985E-05   608   0.138E-03    0.376E-04
RMM:  23    -0.880724744565E+03    0.17023E-05    0.17226E-05   527   0.749E-04    0.144E-04
RMM:  24    -0.880724742929E+03    0.16354E-05    0.17078E-05   533   0.742E-04    0.222E-04
RMM:  25    -0.880724741348E+03    0.15818E-05    0.15849E-05   448   0.646E-04    0.529E-05
RMM:  26    -0.880724739757E+03    0.15903E-05    0.15616E-05   372   0.538E-04    0.180E-04
RMM:  27    -0.880724738277E+03    0.14800E-05    0.14579E-05   349   0.509E-04    0.293E-05
RMM:  28    -0.880724736816E+03    0.14614E-05    0.14258E-05   285   0.440E-04    0.134E-04
RMM:  29    -0.880724735471E+03    0.13451E-05    0.13334E-05   266   0.424E-04    0.276E-05
RMM:  30    -0.880724734147E+03    0.13236E-05    0.12949E-05   227   0.379E-04    0.104E-04
RMM:  31    -0.880724732925E+03    0.12217E-05    0.12118E-05   217   0.371E-04    0.290E-05
RMM:  32    -0.880724731745E+03    0.11804E-05    0.11693E-05   213   0.332E-04    0.714E-05
RMM:  33    -0.880724730651E+03    0.10938E-05    0.10944E-05   205   0.330E-04    0.825E-06
RMM:  34    -0.880724729582E+03    0.10695E-05    0.10503E-05   181   0.289E-04    0.288E-05
RMM:  35    -0.880724728583E+03    0.99820E-06    0.98277E-06   183   0.297E-04
   1 F= -.88072473E+03 E0= -.88091160E+03  d E =-.880725E+03
       N       E                     dE             d eps       ncg     rms          rms(c)
DAV:   1    -0.880819073203E+03   -0.94344E-01   -0.26270E+00  1160   0.507E+00    0.234E+00
RMM:   2    -0.880722724564E+03    0.96349E-01   -0.79706E-01  1042   0.243E+00    0.309E-01
RMM:   3    -0.880723234287E+03   -0.50972E-03   -0.65244E-02  1138   0.383E-01    0.239E-01
RMM:   4    -0.880722189683E+03    0.10446E-02   -0.35673E-02  1036   0.609E-01    0.277E-01
RMM:   5    -0.880722588657E+03   -0.39897E-03   -0.39944E-03  1048   0.154E-01    0.457E-01
RMM:   6    -0.880721160773E+03    0.14279E-02   -0.80649E-03  1043   0.246E-01    0.523E-02
RMM:   7    -0.880721153143E+03    0.76291E-05   -0.73607E-04  1270   0.387E-02    0.551E-02
RMM:   8    -0.880721096781E+03    0.56362E-04   -0.79172E-05  1039   0.255E-02    0.339E-02
RMM:   9    -0.880721054331E+03    0.42450E-04   -0.12395E-04  1042   0.278E-02    0.676E-03
RMM:  10    -0.880721051662E+03    0.26692E-05   -0.41102E-05  1146   0.948E-03    0.610E-03
RMM:  11    -0.880721054660E+03   -0.29978E-05   -0.14258E-06   578   0.355E-03    0.297E-03
RMM:  12    -0.880721055729E+03   -0.10692E-05   -0.83931E-07   558   0.194E-03    0.908E-04
RMM:  13    -0.880721055897E+03   -0.16762E-06   -0.23894E-07   535   0.110E-03
   2 F= -.88072106E+03 E0= -.88090511E+03  d E =0.367269E-02
       N       E                     dE             d eps       ncg     rms          rms(c)
DAV:   1    -0.880767361063E+03   -0.46305E-01   -0.10839E+00  1160   0.327E+00    0.150E+00
RMM:   2    -0.880727231455E+03    0.40130E-01   -0.32991E-01  1042   0.156E+00    0.198E-01
RMM:   3    -0.880727307575E+03   -0.76120E-04   -0.27020E-02  1132   0.245E-01    0.175E-01
RMM:   4    -0.880727409597E+03   -0.10202E-03   -0.57789E-03  1036   0.224E-01    0.390E-01
RMM:   5    -0.880726857811E+03    0.55179E-03   -0.63125E-03  1037   0.239E-01    0.154E-01
RMM:   6    -0.880726401484E+03    0.45633E-03   -0.36431E-03  1036   0.182E-01    0.294E-02
RMM:   7    -0.880726420106E+03   -0.18623E-04   -0.27077E-04  1267   0.235E-02    0.340E-02
RMM:   8    -0.880726419681E+03    0.42479E-06   -0.29704E-05  1026   0.163E-02    0.184E-02
RMM:   9    -0.880726428831E+03   -0.91497E-05   -0.59499E-05  1042   0.193E-02    0.105E-03
RMM:  10    -0.880726429672E+03   -0.84087E-06   -0.81054E-06   781   0.259E-03
   3 F= -.88072643E+03 E0= -.88091235E+03  d E =-.170109E-02
