 vasp.5.4.4.18Apr17-6-g9f103f2a35 (build Aug 17 2017 06:00:38) complex          
  
 executed on             LinuxIFC date 2019.07.13  00:29:15
 running on    8 total cores
 distrk:  each k-point on    8 cores,    1 groups
 distr:  one band on NCORES_PER_BAND=   4 cores,    2 groups


--------------------------------------------------------------------------------------------------------


 INCAR:
 POTCAR:   PAW_PBE Fe 06Sep2000                   
 POTCAR:   PAW_PBE Fe 06Sep2000                   
   VRHFIN =Fe:  d7 s1                                                           
   LEXCH  = PE                                                                  
   EATOM  =   594.4687 eV,   43.6922 Ry                                         
                                                                                
   TITEL  = PAW_PBE Fe 06Sep2000                                                
   LULTRA =        F    use ultrasoft PP ?                                      
   IUNSCR =        1    unscreen: 0-lin 1-nonlin 2-no                           
   RPACOR =    2.000    partial core radius                                     
   POMASS =   55.847; ZVAL   =    8.000    mass and valenz                      
   RCORE  =    2.300    outmost cutoff radius                                   
   RWIGS  =    2.460; RWIGS  =    1.302    wigner-seitz radius (au A)           
   ENMAX  =  267.883; ENMIN  =  200.912 eV                                      
   RCLOC  =    1.701    cutoff for local pot                                    
   LCOR   =        T    correct aug charges                                     
   LPAW   =        T    paw PP                                                  
   EAUG   =  511.368                                                            
   DEXC   =    -.022                                                            
   RMAX   =    2.817    core radius for proj-oper                               
   RAUG   =    1.300    factor for augmentation sphere                          
   RDEP   =    2.442    radius for radial grids                                 
   QCUT   =   -4.437; QGAM   =    8.874    optimization parameters              
                                                                                
   Description                                                                  
     l     E      TYP  RCUT    TYP  RCUT                                        
     2   .000     23  2.300                                                     
     2   .000     23  2.300                                                     
     0   .000     23  2.300                                                     
     0   .000     23  2.300                                                     
     1  -.200     23  2.300                                                     
     1   .000     23  2.300                                                     
     3   .000      7   .000                                                     
  local pseudopotential read in
  partial core-charges read in
  atomic valenz-charges read in
  non local Contribution for L=           2  read in
    real space projection operators read in
  non local Contribution for L=           2  read in
    real space projection operators read in
  non local Contribution for L=           0  read in
    real space projection operators read in
  non local Contribution for L=           0  read in
    real space projection operators read in
  non local Contribution for L=           1  read in
    real space projection operators read in
  non local Contribution for L=           1  read in
    real space projection operators read in
    PAW grid and wavefunctions read in
 
   number of l-projection  operators is LMAX  =           6
   number of lm-projection operators is LMMAX =          18
 
 Optimization of the real space projectors (new method)

 maximal supplied QI-value         = 16.25
 optimisation between [QCUT,QGAM] = [ 10.24, 20.48] = [ 29.35,117.42] Ry 
 Optimized for a Real-space Cutoff    1.51 Angstroem

   l    n(q)    QCUT    max X(q) W(low)/X(q) W(high)/X(q)  e(spline) 
   2      8    10.239     4.378    0.29E-04    0.57E-04    0.52E-07
   2      8    10.239    23.237    0.44E-03    0.68E-03    0.20E-06
   0      9    10.239    17.641    0.18E-04    0.41E-06    0.72E-08
   0      9    10.239    50.908    0.75E-04    0.38E-04    0.65E-07
   1      9    10.239     6.148    0.18E-04    0.27E-04    0.19E-07
   1      9    10.239     8.345    0.39E-04    0.13E-03    0.98E-07
 PAW_PBE Fe 06Sep2000                   :
 energy of atom  1       EATOM= -594.4687
 kinetic energy error for atom=    0.0088 (will be added to EATOM!!)
 
 
 POSCAR: fcc_Fe_CON_333                          
  positions in direct lattice
  velocities in cartesian coordinates
 exchange correlation table for  LEXCH =        8
   RHO(1)=    0.500       N(1)  =     2000
   RHO(2)=  100.500       N(2)  =     4000
 


--------------------------------------------------------------------------------------------------------


 ion  position               nearest neighbor table
   1  0.000  0.000  0.000-   2 2.44   3 2.44   4 2.44  11 2.44  12 2.44  26 2.44  28 2.44  74 2.44
                            75 2.44  36 2.44  83 2.44  98 2.44
   2  0.000  0.167  0.167-  49 2.44  37 2.44  13 2.44  40 2.44  15 2.44  48 2.44  23 2.44   3 2.44
                             4 2.44   1 2.44  12 2.44  11 2.44
   3  0.167  0.000  0.167-  41 2.44  37 2.44   5 2.44  40 2.44   6 2.44  30 2.44  64 2.44   2 2.44
                             4 2.44   1 2.44  28 2.44  26 2.44
   4  0.167  0.167  0.000-  17 2.44  13 2.44   5 2.44  15 2.44   6 2.44  78 2.44  87 2.44   2 2.44
                             3 2.44   1 2.44  74 2.44  75 2.44
   5  0.333  0.000  0.000-   3 2.44   4 2.44  28 2.44  75 2.44   6 2.44   7 2.44   8 2.44  30 2.44
                            78 2.44  32 2.44  79 2.44 102 2.44
   6  0.333  0.167  0.167-  15 2.44  40 2.44  53 2.44  17 2.44  19 2.44   4 2.44  41 2.44  44 2.44
                             3 2.44   7 2.44   8 2.44   5 2.44
   7  0.500  0.000  0.167-  41 2.44  44 2.44  45 2.44  68 2.44   6 2.44   5 2.44   8 2.44  10 2.44
                            30 2.44   9 2.44  32 2.44  34 2.44
   8  0.500  0.167  0.000-  17 2.44  19 2.44  21 2.44  91 2.44   6 2.44   5 2.44   7 2.44  78 2.44
                            10 2.44  79 2.44   9 2.44  82 2.44
   9  0.667  0.000  0.000-  11 2.44  12 2.44  36 2.44  83 2.44  10 2.44  82 2.44  34 2.44   8 2.44
                             7 2.44 106 2.44  79 2.44  32 2.44
  10  0.667  0.167  0.167-  23 2.44  48 2.44  57 2.44  12 2.44  11 2.44  21 2.44  45 2.44  44 2.44
                            19 2.44   9 2.44   7 2.44   8 2.44
  11  0.833  0.000  0.167-  45 2.44   9 2.44  10 2.44  34 2.44  48 2.44  37 2.44  72 2.44  12 2.44
                             2 2.44  36 2.44   1 2.44  26 2.44
  12  0.833  0.167  0.000-  21 2.44   9 2.44  10 2.44  82 2.44  23 2.44  13 2.44  95 2.44  11 2.44
                             1 2.44  83 2.44   2 2.44  74 2.44
  13  0.000  0.333  0.000-   2 2.44   4 2.44  12 2.44  74 2.44  15 2.44  16 2.44  14 2.44  23 2.44
                            87 2.44  86 2.44  24 2.44  95 2.44
  14  0.000  0.500  0.167-  49 2.44  52 2.44  60 2.44  61 2.44  15 2.44  13 2.44  16 2.44  23 2.44
                            27 2.44  25 2.44  24 2.44  35 2.44
  15  0.167  0.333  0.167-   6 2.44  40 2.44  53 2.44  17 2.44  18 2.44   4 2.44  49 2.44  52 2.44
                             2 2.44  13 2.44  14 2.44  16 2.44
  16  0.167  0.500  0.000-  17 2.44  18 2.44  29 2.44  90 2.44  15 2.44  14 2.44  13 2.44  87 2.44
                            27 2.44  25 2.44  86 2.44  99 2.44
  17  0.333  0.333  0.000-   4 2.44   8 2.44  16 2.44  15 2.44   6 2.44  78 2.44  87 2.44  20 2.44
                            18 2.44  19 2.44  90 2.44  91 2.44
  18  0.333  0.500  0.167-  52 2.44  16 2.44  56 2.44  53 2.44  15 2.44  27 2.44  65 2.44  20 2.44
                            17 2.44  19 2.44  29 2.44  31 2.44
  19  0.500  0.333  0.167-  44 2.44   8 2.44  56 2.44  53 2.44   6 2.44  10 2.44  57 2.44  18 2.44
                            20 2.44  17 2.44  21 2.44  22 2.44
  20  0.500  0.500  0.000-  17 2.44  18 2.44  19 2.44  21 2.44  22 2.44  29 2.44  31 2.44  90 2.44
                            91 2.44  33 2.44  94 2.44 103 2.44
  21  0.667  0.333  0.000-  12 2.44  24 2.44  23 2.44  95 2.44  10 2.44   8 2.44  82 2.44  22 2.44
                            20 2.44  94 2.44  19 2.44  91 2.44
  22  0.667  0.500  0.167-  60 2.44  24 2.44  23 2.44  35 2.44  57 2.44  56 2.44  69 2.44  21 2.44
                            33 2.44  20 2.44  19 2.44  31 2.44
  23  0.833  0.333  0.167-  10 2.44  57 2.44  48 2.44  21 2.44  22 2.44  12 2.44  60 2.44   2 2.44
                            49 2.44  24 2.44  14 2.44  13 2.44
  24  0.833  0.500  0.000-  21 2.44  22 2.44  33 2.44  94 2.44  23 2.44  35 2.44  95 2.44  14 2.44
                            13 2.44 107 2.44  86 2.44  25 2.44
  25  0.000  0.667  0.000-  26 2.44  28 2.44  36 2.44  98 2.44  27 2.44  35 2.44  99 2.44  16 2.44
                            14 2.44 107 2.44  86 2.44  24 2.44
  26  0.000  0.833  0.167-  61 2.44  25 2.44  27 2.44  35 2.44  64 2.44  37 2.44  72 2.44  28 2.44
                             3 2.44  36 2.44   1 2.44  11 2.44
  27  0.167  0.667  0.167-  30 2.44  64 2.44  65 2.44  28 2.44  26 2.44  29 2.44  61 2.44  52 2.44
                            18 2.44  25 2.44  14 2.44  16 2.44
  28  0.167  0.833  0.000-  29 2.44  25 2.44  27 2.44  99 2.44  30 2.44   5 2.44 102 2.44  26 2.44
                            98 2.44   1 2.44   3 2.44  75 2.44
  29  0.333  0.667  0.000-  28 2.44  32 2.44  30 2.44 102 2.44  27 2.44  16 2.44  99 2.44  31 2.44
                            20 2.44  18 2.44 103 2.44  90 2.44
  30  0.333  0.833  0.167-  27 2.44  65 2.44  64 2.44  29 2.44  31 2.44  28 2.44  68 2.44  41 2.44
                             3 2.44  32 2.44   7 2.44   5 2.44
  31  0.500  0.667  0.167-  68 2.44  32 2.44  30 2.44  34 2.44  65 2.44  56 2.44  69 2.44  29 2.44
                            33 2.44  20 2.44  18 2.44  22 2.44
  32  0.500  0.833  0.000-  29 2.44  31 2.44  33 2.44 103 2.44  30 2.44 102 2.44  34 2.44   7 2.44
                             5 2.44 106 2.44  79 2.44   9 2.44
  33  0.667  0.667  0.000-  36 2.44  35 2.44  34 2.44  32 2.44  24 2.44 106 2.44 107 2.44  22 2.44
                            31 2.44 103 2.44  20 2.44  94 2.44
  34  0.667  0.833  0.167-  35 2.44  69 2.44  72 2.44  33 2.44  36 2.44  31 2.44  11 2.44  45 2.44
                            68 2.44  32 2.44   9 2.44   7 2.44
  35  0.833  0.667  0.167-  34 2.44  69 2.44  72 2.44  33 2.44  36 2.44  26 2.44  22 2.44  60 2.44
                            61 2.44  24 2.44  25 2.44  14 2.44
  36  0.833  0.833  0.000-  33 2.44  34 2.44  35 2.44  25 2.44   9 2.44 106 2.44 107 2.44  26 2.44
                            11 2.44  98 2.44   1 2.44  83 2.44
  37  0.000  0.000  0.333-   2 2.44   3 2.44  11 2.44  26 2.44  40 2.44  39 2.44  38 2.44  48 2.44
                            64 2.44  62 2.44  47 2.44  72 2.44
  38  0.000  0.167  0.500-  49 2.44  51 2.44  59 2.44  85 2.44  40 2.44  39 2.44  37 2.44  76 2.44
                            48 2.44  47 2.44  73 2.44  84 2.44
  39  0.167  0.000  0.500-  41 2.44  42 2.44  66 2.44  77 2.44  40 2.44  38 2.44  37 2.44  76 2.44
                            64 2.44  62 2.44  73 2.44 100 2.44
  40  0.167  0.167  0.333-   6 2.44  15 2.44  53 2.44   3 2.44  41 2.44  42 2.44  49 2.44  51 2.44
                             2 2.44  39 2.44  37 2.44  38 2.44
  41  0.333  0.000  0.333-   3 2.44   7 2.44  39 2.44   6 2.44  40 2.44  30 2.44  64 2.44  43 2.44
                            44 2.44  42 2.44  66 2.44  68 2.44
  42  0.333  0.167  0.500-  51 2.44  39 2.44  55 2.44  53 2.44  40 2.44  76 2.44  89 2.44  44 2.44
                            41 2.44  43 2.44  80 2.44  77 2.44
  43  0.500  0.000  0.500-  41 2.44  42 2.44  44 2.44  45 2.44  46 2.44  66 2.44  68 2.44  77 2.44
                            80 2.44  70 2.44  81 2.44 104 2.44
  44  0.500  0.167  0.333-  19 2.44   7 2.44  55 2.44  53 2.44   6 2.44  10 2.44  57 2.44  41 2.44
                            42 2.44  43 2.44  46 2.44  45 2.44
  45  0.667  0.000  0.333-  11 2.44  47 2.44  48 2.44  72 2.44  10 2.44   7 2.44  34 2.44  46 2.44
                            43 2.44  70 2.44  44 2.44  68 2.44
  46  0.667  0.167  0.500-  59 2.44  47 2.44  48 2.44  84 2.44  57 2.44  55 2.44  93 2.44  45 2.44
                            81 2.44  43 2.44  44 2.44  80 2.44
  47  0.833  0.000  0.500-  45 2.44  46 2.44  70 2.44  81 2.44  48 2.44  72 2.44  84 2.44  38 2.44
                            37 2.44 108 2.44  73 2.44  62 2.44
  48  0.833  0.167  0.333-  10 2.44  57 2.44  23 2.44  46 2.44  45 2.44  11 2.44  59 2.44   2 2.44
                            49 2.44  47 2.44  37 2.44  38 2.44
  49  0.000  0.333  0.333-   2 2.44  14 2.44  38 2.44  15 2.44  40 2.44  23 2.44  48 2.44  50 2.44
                            51 2.44  52 2.44  59 2.44  60 2.44
  50  0.000  0.500  0.500-  49 2.44  51 2.44  52 2.44  59 2.44  60 2.44  61 2.44  63 2.44  85 2.44
                            88 2.44  71 2.44  96 2.44  97 2.44
  51  0.167  0.333  0.500-  42 2.44  38 2.44  54 2.44  53 2.44  40 2.44  76 2.44  89 2.44  50 2.44
                            52 2.44  49 2.44  88 2.44  85 2.44
  52  0.167  0.500  0.333-  18 2.44  14 2.44  54 2.44  53 2.44  15 2.44  27 2.44  65 2.44  49 2.44
                            50 2.44  51 2.44  63 2.44  61 2.44
  53  0.333  0.333  0.333-   6 2.44  15 2.44  40 2.44  19 2.44  18 2.44  42 2.44  44 2.44  51 2.44
                            52 2.44  54 2.44  55 2.44  56 2.44
  54  0.333  0.500  0.500-  51 2.44  52 2.44  63 2.44  88 2.44  53 2.44  55 2.44  56 2.44  65 2.44
                            89 2.44  67 2.44  92 2.44 101 2.44
  55  0.500  0.333  0.500-  42 2.44  44 2.44  46 2.44  80 2.44  53 2.44  56 2.44  54 2.44  57 2.44
                            89 2.44  58 2.44  92 2.44  93 2.44
  56  0.500  0.500  0.333-  18 2.44  19 2.44  22 2.44  31 2.44  53 2.44  54 2.44  55 2.44  57 2.44
                            65 2.44  58 2.44  67 2.44  69 2.44
  57  0.667  0.333  0.333-  23 2.44  48 2.44  10 2.44  59 2.44  60 2.44  46 2.44  22 2.44  19 2.44
                            44 2.44  58 2.44  56 2.44  55 2.44
  58  0.667  0.500  0.500-  59 2.44  60 2.44  71 2.44  96 2.44  57 2.44  93 2.44  69 2.44  56 2.44
                            55 2.44 105 2.44  92 2.44  67 2.44
  59  0.833  0.333  0.500-  46 2.44  58 2.44  57 2.44  93 2.44  48 2.44  38 2.44  84 2.44  60 2.44
                            50 2.44  49 2.44  96 2.44  85 2.44
  60  0.833  0.500  0.333-  22 2.44  58 2.44  57 2.44  69 2.44  23 2.44  14 2.44  35 2.44  59 2.44
                            49 2.44  50 2.44  71 2.44  61 2.44
  61  0.000  0.667  0.333-  26 2.44  62 2.44  64 2.44  72 2.44  27 2.44  14 2.44  35 2.44  63 2.44
                            50 2.44  71 2.44  52 2.44  60 2.44
  62  0.000  0.833  0.500-  61 2.44  63 2.44  71 2.44  97 2.44  64 2.44  72 2.44 100 2.44  39 2.44
                            37 2.44 108 2.44  73 2.44  47 2.44
  63  0.167  0.667  0.500-  66 2.44  62 2.44  64 2.44 100 2.44  65 2.44  54 2.44 101 2.44  61 2.44
                            97 2.44  50 2.44  52 2.44  88 2.44
  64  0.167  0.833  0.333-  27 2.44  65 2.44  30 2.44  63 2.44  61 2.44  26 2.44  66 2.44   3 2.44
                            41 2.44  62 2.44  37 2.44  39 2.44
  65  0.333  0.667  0.333-  30 2.44  64 2.44  27 2.44  66 2.44  68 2.44  63 2.44  31 2.44  18 2.44
                            52 2.44  67 2.44  56 2.44  54 2.44
  66  0.333  0.833  0.500-  63 2.44  67 2.44  65 2.44 101 2.44  64 2.44  39 2.44 100 2.44  68 2.44
                            43 2.44  41 2.44 104 2.44  77 2.44
  67  0.500  0.667  0.500-  66 2.44  68 2.44  70 2.44 104 2.44  65 2.44 101 2.44  69 2.44  56 2.44
                            54 2.44 105 2.44  92 2.44  58 2.44
  68  0.500  0.833  0.333-  31 2.44  67 2.44  65 2.44  69 2.44  30 2.44   7 2.44  34 2.44  66 2.44
                            41 2.44  43 2.44  70 2.44  45 2.44
  69  0.667  0.667  0.333-  72 2.44  35 2.44  34 2.44  71 2.44  70 2.44  68 2.44  60 2.44  31 2.44
                            22 2.44  58 2.44  67 2.44  56 2.44
  70  0.667  0.833  0.500-  71 2.44  69 2.44  72 2.44  67 2.44  47 2.44 105 2.44 108 2.44  68 2.44
                            45 2.44 104 2.44  43 2.44  81 2.44
  71  0.833  0.667  0.500-  70 2.44  69 2.44  72 2.44  62 2.44  58 2.44 105 2.44 108 2.44  60 2.44
                            61 2.44  97 2.44  50 2.44  96 2.44
  72  0.833  0.833  0.333-  69 2.44  35 2.44  34 2.44  70 2.44  71 2.44  61 2.44  45 2.44  26 2.44
                            11 2.44  62 2.44  47 2.44  37 2.44
  73  0.000  0.000  0.667-  74 2.44  75 2.44  83 2.44  98 2.44  76 2.44  84 2.44 100 2.44  39 2.44
                            38 2.44 108 2.44  47 2.44  62 2.44
  74  0.000  0.167  0.833-  85 2.44  73 2.44  76 2.44  84 2.44  87 2.44  13 2.44  95 2.44  75 2.44
                             4 2.44  83 2.44   1 2.44  12 2.44
  75  0.167  0.000  0.833-  77 2.44  73 2.44  76 2.44 100 2.44  78 2.44   5 2.44 102 2.44  74 2.44
                            98 2.44   1 2.44   4 2.44  28 2.44
  76  0.167  0.167  0.667-  78 2.44  87 2.44  89 2.44  75 2.44  74 2.44  77 2.44  85 2.44  51 2.44
                            42 2.44  73 2.44  38 2.44  39 2.44
  77  0.333  0.000  0.667-  75 2.44  79 2.44  78 2.44 102 2.44  76 2.44  39 2.44 100 2.44  80 2.44
                            43 2.44  42 2.44 104 2.44  66 2.44
  78  0.333  0.167  0.833-  76 2.44  89 2.44  87 2.44  77 2.44  80 2.44  75 2.44  91 2.44  17 2.44
                             4 2.44  79 2.44   8 2.44   5 2.44
  79  0.500  0.000  0.833-  77 2.44  80 2.44  81 2.44 104 2.44  78 2.44 102 2.44  82 2.44   8 2.44
                             5 2.44 106 2.44   9 2.44  32 2.44
  80  0.500  0.167  0.667-  91 2.44  79 2.44  78 2.44  82 2.44  89 2.44  55 2.44  93 2.44  77 2.44
                            43 2.44  81 2.44  42 2.44  46 2.44
  81  0.667  0.000  0.667-  83 2.44  82 2.44  84 2.44  79 2.44  47 2.44 106 2.44 108 2.44  80 2.44
                            46 2.44 104 2.44  70 2.44  43 2.44
  82  0.667  0.167  0.833-  84 2.44  93 2.44  95 2.44  83 2.44  81 2.44  80 2.44  12 2.44  21 2.44
                            91 2.44  79 2.44   9 2.44   8 2.44
  83  0.833  0.000  0.833-  81 2.44  82 2.44  84 2.44  73 2.44   9 2.44 106 2.44 108 2.44  74 2.44
                            12 2.44  98 2.44  36 2.44   1 2.44
  84  0.833  0.167  0.667-  82 2.44  93 2.44  95 2.44  81 2.44  83 2.44  74 2.44  46 2.44  59 2.44
                            85 2.44  73 2.44  47 2.44  38 2.44
  85  0.000  0.333  0.667-  74 2.44  86 2.44  87 2.44  95 2.44  76 2.44  38 2.44  84 2.44  88 2.44
                            51 2.44  50 2.44  96 2.44  59 2.44
  86  0.000  0.500  0.833-  85 2.44  88 2.44  96 2.44  97 2.44  87 2.44  95 2.44  99 2.44  16 2.44
                            13 2.44 107 2.44  24 2.44  25 2.44
  87  0.167  0.333  0.833-  76 2.44  89 2.44  78 2.44  88 2.44  85 2.44  74 2.44  90 2.44  17 2.44
                             4 2.44  86 2.44  16 2.44  13 2.44
  88  0.167  0.500  0.667-  90 2.44  86 2.44  87 2.44  99 2.44  89 2.44  54 2.44 101 2.44  85 2.44
                            97 2.44  50 2.44  51 2.44  63 2.44
  89  0.333  0.333  0.667-  78 2.44  87 2.44  76 2.44  90 2.44  91 2.44  80 2.44  88 2.44  51 2.44
                            42 2.44  92 2.44  54 2.44  55 2.44
  90  0.333  0.500  0.833-  88 2.44  92 2.44  89 2.44 101 2.44  87 2.44  16 2.44  99 2.44  91 2.44
                            20 2.44  17 2.44 103 2.44  29 2.44
  91  0.500  0.333  0.833-  80 2.44  92 2.44  89 2.44  93 2.44  78 2.44   8 2.44  82 2.44  90 2.44
                            20 2.44  17 2.44  94 2.44  21 2.44
  92  0.500  0.500  0.667-  90 2.44  91 2.44  94 2.44 103 2.44  89 2.44 101 2.44  93 2.44  55 2.44
                            54 2.44 105 2.44  58 2.44  67 2.44
  93  0.667  0.333  0.667-  95 2.44  84 2.44  82 2.44  94 2.44  96 2.44  91 2.44  59 2.44  46 2.44
                            80 2.44  92 2.44  58 2.44  55 2.44
  94  0.667  0.500  0.833-  96 2.44  95 2.44  93 2.44  92 2.44  24 2.44 105 2.44 107 2.44  21 2.44
                            91 2.44 103 2.44  33 2.44  20 2.44
  95  0.833  0.333  0.833-  93 2.44  84 2.44  82 2.44  94 2.44  96 2.44  85 2.44  21 2.44  12 2.44
                            74 2.44  86 2.44  24 2.44  13 2.44
  96  0.833  0.500  0.667-  94 2.44  93 2.44  95 2.44  86 2.44  58 2.44 105 2.44 107 2.44  59 2.44
                            85 2.44  97 2.44  71 2.44  50 2.44
  97  0.000  0.667  0.667-  98 2.44  99 2.44 100 2.44  86 2.44  62 2.44 107 2.44 108 2.44  88 2.44
                            63 2.44  96 2.44  50 2.44  71 2.44
  98  0.000  0.833  0.833-  97 2.44  99 2.44 100 2.44  73 2.44  25 2.44 107 2.44 108 2.44  75 2.44
                            28 2.44  83 2.44   1 2.44  36 2.44
  99  0.167  0.667  0.833- 100 2.44 101 2.44 102 2.44  98 2.44  97 2.44  88 2.44  28 2.44  90 2.44
                            29 2.44  86 2.44  25 2.44  16 2.44
 100  0.167  0.833  0.667-  99 2.44 101 2.44 102 2.44  98 2.44  97 2.44  75 2.44  63 2.44  77 2.44
                            66 2.44  73 2.44  62 2.44  39 2.44
 101  0.333  0.667  0.667- 102 2.44 100 2.44  99 2.44 103 2.44 104 2.44  90 2.44  66 2.44  63 2.44
                            88 2.44  92 2.44  67 2.44  54 2.44
 102  0.333  0.833  0.833- 101 2.44 100 2.44  99 2.44 103 2.44 104 2.44  77 2.44  29 2.44  28 2.44
                            75 2.44  79 2.44  32 2.44   5 2.44
 103  0.500  0.667  0.833- 104 2.44 102 2.44 101 2.44  92 2.44  32 2.44 105 2.44 106 2.44  29 2.44
                            90 2.44  94 2.44  20 2.44  33 2.44
 104  0.500  0.833  0.667- 103 2.44 102 2.44 101 2.44  79 2.44  67 2.44 105 2.44 106 2.44  66 2.44
                            77 2.44  81 2.44  43 2.44  70 2.44
 105  0.667  0.667  0.667- 106 2.44 107 2.44 108 2.44  96 2.44 103 2.44 104 2.44  70 2.44  71 2.44
                            94 2.44  67 2.44  92 2.44  58 2.44
 106  0.667  0.833  0.833- 105 2.44 107 2.44 108 2.44  83 2.44 103 2.44 104 2.44  33 2.44  36 2.44
                            81 2.44  32 2.44  79 2.44   9 2.44
 107  0.833  0.667  0.833- 105 2.44 106 2.44 108 2.44  96 2.44  97 2.44  98 2.44  33 2.44  36 2.44
                            94 2.44  25 2.44  86 2.44  24 2.44
 108  0.833  0.833  0.667- 105 2.44 106 2.44 107 2.44  83 2.44  97 2.44  98 2.44  70 2.44  71 2.44
                            81 2.44  62 2.44  73 2.44  47 2.44
 
  LATTYP: Found a simple cubic cell.
 ALAT       =    10.3348470474
  
  Lattice vectors:
  
 A1 = (  10.3348470474,   0.0000000000,   0.0000000000)
 A2 = (   0.0000000000,  10.3348470474,   0.0000000000)
 A3 = (   0.0000000000,   0.0000000000,  10.3348470474)


Analysis of symmetry for initial positions (statically):
=====================================================================
 Subroutine PRICEL returns following result:
 
  LATTYP: Found a simple cubic cell.
 ALAT       =     3.4449252899
  
  Lattice vectors:
  
 A1 = (   3.4449252899,   0.0000000000,   0.0000000000)
 A2 = (   0.0000000000,   3.4449252899,   0.0000000000)
 A3 = (   0.0000000000,   0.0000000000,   3.4449252443)
 
  27 primitive cells build up your supercell.
 

 Routine SETGRP: Setting up the symmetry group for a 
 simple cubic supercell.


 Subroutine GETGRP returns: Found 48 space group operations
 (whereof 48 operations were pure point group operations)
 out of a pool of 48 trial point group operations.


The static configuration has the point symmetry O_h .


Analysis of symmetry for dynamics (positions and initial velocities):
=====================================================================
 Subroutine PRICEL returns following result:
 
  LATTYP: Found a simple cubic cell.
 ALAT       =     3.4449252899
  
  Lattice vectors:
  
 A1 = (   3.4449252899,   0.0000000000,   0.0000000000)
 A2 = (   0.0000000000,   3.4449252899,   0.0000000000)
 A3 = (   0.0000000000,   0.0000000000,   3.4449252443)
 
  27 primitive cells build up your supercell.
 

 Routine SETGRP: Setting up the symmetry group for a 
 simple cubic supercell.


 Subroutine GETGRP returns: Found 48 space group operations
 (whereof 48 operations were pure point group operations)
 out of a pool of 48 trial point group operations.


The dynamic configuration has the point symmetry O_h .


 Subroutine INISYM returns: Found 48 space group operations
 (whereof 48 operations are pure point group operations),
 and found    27 'primitive' translations

 
 
 KPOINTS: pymatgen generated KPOINTS with grid den

Automatic generation of k-mesh.
Space group operators:
 irot       det(A)        alpha          n_x          n_y          n_z        tau_x        tau_y        tau_z
    1     1.000000     0.000000     1.000000     0.000000     0.000000     0.000000     0.000000     0.000000
    2    -1.000000     0.000000     1.000000     0.000000     0.000000     0.000000     0.000000     0.000000
    3     1.000000   120.000000    -0.577350    -0.577350    -0.577350     0.000000     0.000000     0.000000
    4    -1.000000   120.000000    -0.577350    -0.577350    -0.577350     0.000000     0.000000     0.000000
    5     1.000000   120.000000     0.577350     0.577350     0.577350     0.000000     0.000000     0.000000
    6    -1.000000   120.000000     0.577350     0.577350     0.577350     0.000000     0.000000     0.000000
    7     1.000000    90.000000     0.000000     0.000000    -1.000000     0.000000     0.000000     0.000000
    8    -1.000000    90.000000     0.000000     0.000000    -1.000000     0.000000     0.000000     0.000000
    9     1.000000   180.000000     0.000000     0.707107     0.707107     0.000000     0.000000     0.000000
   10    -1.000000   180.000000     0.000000     0.707107     0.707107     0.000000     0.000000     0.000000
   11     1.000000    90.000000     0.000000     1.000000     0.000000     0.000000     0.000000     0.000000
   12    -1.000000    90.000000     0.000000     1.000000     0.000000     0.000000     0.000000     0.000000
   13     1.000000   180.000000     0.000000     0.000000     1.000000     0.000000     0.000000     0.000000
   14    -1.000000   180.000000     0.000000     0.000000     1.000000     0.000000     0.000000     0.000000
   15     1.000000   120.000000    -0.577350     0.577350     0.577350     0.000000     0.000000     0.000000
   16    -1.000000   120.000000    -0.577350     0.577350     0.577350     0.000000     0.000000     0.000000
   17     1.000000   120.000000    -0.577350     0.577350    -0.577350     0.000000     0.000000     0.000000
   18    -1.000000   120.000000    -0.577350     0.577350    -0.577350     0.000000     0.000000     0.000000
   19     1.000000    90.000000     0.000000     0.000000     1.000000     0.000000     0.000000     0.000000
   20    -1.000000    90.000000     0.000000     0.000000     1.000000     0.000000     0.000000     0.000000
   21     1.000000    90.000000    -1.000000     0.000000     0.000000     0.000000     0.000000     0.000000
   22    -1.000000    90.000000    -1.000000     0.000000     0.000000     0.000000     0.000000     0.000000
   23     1.000000   180.000000     0.707107     0.000000     0.707107     0.000000     0.000000     0.000000
   24    -1.000000   180.000000     0.707107     0.000000     0.707107     0.000000     0.000000     0.000000
   25     1.000000   120.000000     0.577350    -0.577350     0.577350     0.000000     0.000000     0.000000
   26    -1.000000   120.000000     0.577350    -0.577350     0.577350     0.000000     0.000000     0.000000
   27     1.000000   120.000000    -0.577350    -0.577350     0.577350     0.000000     0.000000     0.000000
   28    -1.000000   120.000000    -0.577350    -0.577350     0.577350     0.000000     0.000000     0.000000
   29     1.000000   180.000000     1.000000     0.000000     0.000000     0.000000     0.000000     0.000000
   30    -1.000000   180.000000     1.000000     0.000000     0.000000     0.000000     0.000000     0.000000
   31     1.000000    90.000000     0.000000    -1.000000     0.000000     0.000000     0.000000     0.000000
   32    -1.000000    90.000000     0.000000    -1.000000     0.000000     0.000000     0.000000     0.000000
   33     1.000000   180.000000     0.707107     0.707107     0.000000     0.000000     0.000000     0.000000
   34    -1.000000   180.000000     0.707107     0.707107     0.000000     0.000000     0.000000     0.000000
   35     1.000000    90.000000     1.000000     0.000000     0.000000     0.000000     0.000000     0.000000
   36    -1.000000    90.000000     1.000000     0.000000     0.000000     0.000000     0.000000     0.000000
   37     1.000000   120.000000     0.577350    -0.577350    -0.577350     0.000000     0.000000     0.000000
   38    -1.000000   120.000000     0.577350    -0.577350    -0.577350     0.000000     0.000000     0.000000
   39     1.000000   180.000000     0.000000     1.000000     0.000000     0.000000     0.000000     0.000000
   40    -1.000000   180.000000     0.000000     1.000000     0.000000     0.000000     0.000000     0.000000
   41     1.000000   120.000000     0.577350     0.577350    -0.577350     0.000000     0.000000     0.000000
   42    -1.000000   120.000000     0.577350     0.577350    -0.577350     0.000000     0.000000     0.000000
   43     1.000000   180.000000     0.000000    -0.707107     0.707107     0.000000     0.000000     0.000000
   44    -1.000000   180.000000     0.000000    -0.707107     0.707107     0.000000     0.000000     0.000000
   45     1.000000   180.000000     0.707107    -0.707107     0.000000     0.000000     0.000000     0.000000
   46    -1.000000   180.000000     0.707107    -0.707107     0.000000     0.000000     0.000000     0.000000
   47     1.000000   180.000000     0.707107     0.000000    -0.707107     0.000000     0.000000     0.000000
   48    -1.000000   180.000000     0.707107     0.000000    -0.707107     0.000000     0.000000     0.000000
 
 Subroutine IBZKPT returns following result:
 ===========================================
 
 Found      1 irreducible k-points:
 
 Following reciprocal coordinates:
            Coordinates               Weight
  0.250000  0.250000  0.250000      8.000000
 
 Following cartesian coordinates:
            Coordinates               Weight
  0.024190  0.024190  0.024190      8.000000
 


--------------------------------------------------------------------------------------------------------




 Dimension of arrays:
   k-points           NKPTS =      1   k-points in BZ     NKDIM =      1   number of bands    NBANDS=    518
   number of dos      NEDOS =    301   number of ions     NIONS =    108
   non local maximal  LDIM  =      6   non local SUM 2l+1 LMDIM =     18
   total plane-waves  NPLWV = 373248
   max r-space proj   IRMAX =   4912   max aug-charges    IRDMAX=  12243
   dimension x,y,z NGX =    72 NGY =   72 NGZ =   72
   dimension x,y,z NGXF=   144 NGYF=  144 NGZF=  144
   support grid    NGXF=   144 NGYF=  144 NGZF=  144
   ions per type =             108
   NGX,Y,Z   is equivalent  to a cutoff of  11.58, 11.58, 11.58 a.u.
   NGXF,Y,Z  is equivalent  to a cutoff of  23.16, 23.16, 23.16 a.u.

 Based on PREC, I would recommend the following setting:
   dimension x,y,z NGX =    54 NGY =   54 NGZ =   54

 SYSTEM =  Opt                                     
 POSCAR =  fcc_Fe_CON_333                          

 Startparameter for this run:
   NWRITE =      2    write-flag & timer
   PREC   = normal    normal or accurate (medium, high low for compatibility)
   ISTART =      0    job   : 0-new  1-cont  2-samecut
   ICHARG =      2    charge: 1-file 2-atom 10-const
   ISPIN  =      1    spin polarized calculation?
   LNONCOLLINEAR =      F non collinear calculations
   LSORBIT =      F    spin-orbit coupling
   INIWAV =      1    electr: 0-lowe 1-rand  2-diag
   LASPH  =      F    aspherical Exc in radial PAW
   METAGGA=      F    non-selfconsistent MetaGGA calc.

 Electronic Relaxation 1
   ENCUT  =  400.0 eV  29.40 Ry    5.42 a.u.  16.85 16.85 16.85*2*pi/ulx,y,z
   ENINI  =  400.0     initial cutoff
   ENAUG  =  511.4 eV  augmentation charge cutoff
   NELM   =    400;   NELMIN=  2; NELMDL= -5     # of ELM steps 
   EDIFF  = 0.1E-05   stopping-criterion for ELM
   LREAL  =      T    real-space projection
   NLSPLINE    = F    spline interpolate recip. space projectors
   LCOMPAT=      F    compatible to vasp.4.4
   GGA_COMPAT  = T    GGA compatible to vasp.4.4-vasp.4.6
   LMAXPAW     = -100 max onsite density
   LMAXMIX     =    2 max onsite mixed and CHGCAR
   VOSKOWN=      0    Vosko Wilk Nusair interpolation
   ROPT   =   -0.00050
 Ionic relaxation
   EDIFFG = -.1E-01   stopping-criterion for IOM
   NSW    =    100    number of steps for IOM
   NBLOCK =      1;   KBLOCK =    100    inner block; outer block 
   IBRION =      2    ionic relax: 0-MD 1-quasi-New 2-CG
   NFREE  =      1    steps in history (QN), initial steepest desc. (CG)
   ISIF   =      3    stress and relaxation
   IWAVPR =     11    prediction:  0-non 1-charg 2-wave 3-comb
   ISYM   =      2    0-nonsym 1-usesym 2-fastsym
   LCORR  =      T    Harris-Foulkes like correction to forces

   POTIM  = 0.5000    time-step for ionic-motion
   TEIN   =    0.0    initial temperature
   TEBEG  =    0.0;   TEEND  =   0.0 temperature during run
   SMASS  =  -3.00    Nose mass-parameter (am)
   estimated Nose-frequenzy (Omega)   =  0.10E-29 period in steps =****** mass=  -0.244E-26a.u.
   SCALEE = 1.0000    scale energy and forces
   NPACO  =    256;   APACO  = 16.0  distance and # of slots for P.C.
   PSTRESS=    0.0 pullay stress

  Mass of Ions in am
   POMASS =  55.85
  Ionic Valenz
   ZVAL   =   8.00
  Atomic Wigner-Seitz radii
   RWIGS  =  -1.00
  virtual crystal weights 
   VCA    =   1.00
   NELECT =     864.0000    total number of electrons
   NUPDOWN=      -1.0000    fix difference up-down

 DOS related values:
   EMIN   =  10.00;   EMAX   =-10.00  energy-range for DOS
   EFERMI =   0.00
   ISMEAR =     1;   SIGMA  =   0.20  broadening in eV -4-tet -1-fermi 0-gaus

 Electronic relaxation 2 (details)
   IALGO  =     68    algorithm
   LDIAG  =      T    sub-space diagonalisation (order eigenvalues)
   LSUBROT=      F    optimize rotation matrix (better conditioning)
   TURBO    =      0    0=normal 1=particle mesh
   IRESTART =      0    0=no restart 2=restart with 2 vectors
   NREBOOT  =      0    no. of reboots
   NMIN     =      0    reboot dimension
   EREF     =   0.00    reference energy to select bands
   IMIX   =      4    mixing-type and parameters
     AMIX     =   0.40;   BMIX     =  1.00
     AMIX_MAG =   1.60;   BMIX_MAG =  1.00
     AMIN     =   0.10
     WC   =   100.;   INIMIX=   1;  MIXPRE=   1;  MAXMIX= -45

 Intra band minimization:
   WEIMIN = 0.0010     energy-eigenvalue tresh-hold
   EBREAK =  0.48E-09  absolut break condition
   DEPER  =   0.30     relativ break condition  

   TIME   =   0.40     timestep for ELM

  volume/ion in A,a.u.               =      10.22        68.97
  Fermi-wavevector in a.u.,A,eV,Ry     =   1.508720  2.851068 30.970078  2.276236
  Thomas-Fermi vector in A             =   2.619137
 
 Write flags
   LWAVE        =      F    write WAVECAR
   LDOWNSAMPLE  =      F    k-point downsampling of WAVECAR
   LCHARG       =      F    write CHGCAR
   LVTOT        =      F    write LOCPOT, total local potential
   LVHAR        =      F    write LOCPOT, Hartree potential only
   LELF         =      F    write electronic localiz. function (ELF)
   LORBIT       =      0    0 simple, 1 ext, 2 COOP (PROOUT), +10 PAW based schemes


 Dipole corrections
   LMONO  =      F    monopole corrections only (constant potential shift)
   LDIPOL =      F    correct potential (dipole corrections)
   IDIPOL =      0    1-x, 2-y, 3-z, 4-all directions 
   EPSILON=  1.0000000 bulk dielectric constant

 Exchange correlation treatment:
   GGA     =    --    GGA type
   LEXCH   =     8    internal setting for exchange type
   VOSKOWN=      0    Vosko Wilk Nusair interpolation
   LHFCALC =     F    Hartree Fock is set to
   LHFONE  =     F    Hartree Fock one center treatment
   AEXX    =    0.0000 exact exchange contribution

 Linear response parameters
   LEPSILON=     F    determine dielectric tensor
   LRPA    =     F    only Hartree local field effects (RPA)
   LNABLA  =     F    use nabla operator in PAW spheres
   LVEL    =     F    velocity operator in full k-point grid
   LINTERFAST=   F  fast interpolation
   KINTER  =     0    interpolate to denser k-point grid
   CSHIFT  =0.1000    complex shift for real part using Kramers Kronig
   OMEGAMAX=  -1.0    maximum frequency
   DEG_THRESHOLD= 0.2000000E-02 threshold for treating states as degnerate
   RTIME   =   -0.100 relaxation time in fs
  (WPLASMAI=    0.000 imaginary part of plasma frequency in eV, 0.658/RTIME)
   DFIELD  = 0.0000000 0.0000000 0.0000000 field for delta impulse in time
 
 Orbital magnetization related:
   ORBITALMAG=     F  switch on orbital magnetization
   LCHIMAG   =     F  perturbation theory with respect to B field
   DQ        =  0.001000  dq finite difference perturbation B field
   LLRAUG    =     F  two centre corrections for induced B field



--------------------------------------------------------------------------------------------------------


 conjugate gradient relaxation of ions
 charge density and potential will be updated during run
 non-spin polarized calculation
 RMM-DIIS sequential band-by-band and
  variant of blocked Davidson during initial phase
 perform sub-space diagonalisation
    before iterative eigenvector-optimisation
 modified Broyden-mixing scheme, WC =      100.0
 initial mixing is a Kerker type mixing with AMIX =  0.4000 and BMIX =      1.0000
 Hartree-type preconditioning will be used
 using additional bands           86
 real space projection scheme for non local part
 use partial core corrections
 calculate Harris-corrections to forces 
   (improved forces if not selfconsistent)
 use gradient corrections 
 use of overlap-Matrix (Vanderbilt PP)
 Methfessel and Paxton  Order N= 1 SIGMA  =   0.20


--------------------------------------------------------------------------------------------------------


  energy-cutoff  :      400.00
  volume of cell :     1103.86
      direct lattice vectors                 reciprocal lattice vectors
    10.334847047  0.000000000  0.000000000     0.096760019  0.000000000  0.000000000
     0.000000000 10.334847047  0.000000000     0.000000000  0.096760019  0.000000000
     0.000000000  0.000000000 10.334847047     0.000000000  0.000000000  0.096760019

  length of vectors
    10.334847047 10.334847047 10.334847047     0.096760019  0.096760019  0.096760019


 
 k-points in units of 2pi/SCALE and weight: pymatgen generated KPOINTS with grid den
   0.02419000  0.02419000  0.02419000       1.000
 
 k-points in reciprocal lattice and weights: pymatgen generated KPOINTS with grid den
   0.25000000  0.25000000  0.25000000       1.000
 
 position of ions in fractional coordinates (direct lattice) 
   0.00000000  0.00000000  0.00000000
   0.00000000  0.16666893  0.16666893
   0.16666893  0.00000000  0.16666893
   0.16666893  0.16666893  0.00000000
   0.33333106  0.00000000  0.00000000
   0.33333107  0.16666893  0.16666893
   0.50000000  0.00000000  0.16666894
   0.50000000  0.16666894  0.00000000
   0.66666897  0.00000000  0.00000000
   0.66666896  0.16666893  0.16666893
   0.83333104  0.00000000  0.16666893
   0.83333104  0.16666893  0.00000000
   0.00000000  0.33333106  0.00000000
   0.00000000  0.50000000  0.16666894
   0.16666893  0.33333107  0.16666893
   0.16666894  0.50000000  0.00000000
   0.33333107  0.33333107  0.00000000
   0.33333107  0.50000000  0.16666893
   0.50000000  0.33333107  0.16666893
   0.50000000  0.50000000  0.00000000
   0.66666896  0.33333107  0.00000000
   0.66666896  0.50000000  0.16666893
   0.83333104  0.33333107  0.16666893
   0.83333103  0.50000000  0.00000000
   0.00000000  0.66666897  0.00000000
   0.00000000  0.83333104  0.16666893
   0.16666893  0.66666896  0.16666893
   0.16666893  0.83333104  0.00000000
   0.33333107  0.66666896  0.00000000
   0.33333107  0.83333104  0.16666893
   0.50000000  0.66666896  0.16666893
   0.50000000  0.83333103  0.00000000
   0.66666896  0.66666896  0.00000000
   0.66666896  0.83333104  0.16666893
   0.83333104  0.66666896  0.16666893
   0.83333104  0.83333104  0.00000000
   0.00000000  0.00000000  0.33333106
   0.00000000  0.16666894  0.50000000
   0.16666894  0.00000000  0.50000000
   0.16666893  0.16666893  0.33333107
   0.33333107  0.00000000  0.33333107
   0.33333107  0.16666893  0.50000000
   0.50000000  0.00000000  0.50000000
   0.50000000  0.16666893  0.33333107
   0.66666896  0.00000000  0.33333107
   0.66666896  0.16666893  0.50000000
   0.83333103  0.00000000  0.50000000
   0.83333104  0.16666893  0.33333107
   0.00000000  0.33333107  0.33333107
   0.00000000  0.50000000  0.50000000
   0.16666893  0.33333107  0.50000000
   0.16666893  0.50000000  0.33333107
   0.33333107  0.33333107  0.33333107
   0.33333106  0.50000000  0.50000000
   0.50000000  0.33333106  0.50000000
   0.50000000  0.50000000  0.33333106
   0.66666896  0.33333107  0.33333107
   0.66666897  0.50000000  0.50000000
   0.83333104  0.33333107  0.50000000
   0.83333104  0.50000000  0.33333107
   0.00000000  0.66666896  0.33333107
   0.00000000  0.83333103  0.50000000
   0.16666893  0.66666896  0.50000000
   0.16666893  0.83333104  0.33333107
   0.33333107  0.66666896  0.33333107
   0.33333107  0.83333104  0.50000000
   0.50000000  0.66666897  0.50000000
   0.50000000  0.83333104  0.33333107
   0.66666896  0.66666896  0.33333107
   0.66666896  0.83333104  0.50000000
   0.83333104  0.66666896  0.50000000
   0.83333104  0.83333104  0.33333107
   0.00000000  0.00000000  0.66666897
   0.00000000  0.16666893  0.83333104
   0.16666893  0.00000000  0.83333104
   0.16666893  0.16666893  0.66666896
   0.33333107  0.00000000  0.66666896
   0.33333107  0.16666893  0.83333104
   0.50000000  0.00000000  0.83333103
   0.50000000  0.16666893  0.66666896
   0.66666896  0.00000000  0.66666896
   0.66666896  0.16666893  0.83333104
   0.83333104  0.00000000  0.83333104
   0.83333104  0.16666893  0.66666896
   0.00000000  0.33333107  0.66666896
   0.00000000  0.50000000  0.83333103
   0.16666893  0.33333107  0.83333104
   0.16666893  0.50000000  0.66666896
   0.33333107  0.33333107  0.66666896
   0.33333107  0.50000000  0.83333104
   0.50000000  0.33333107  0.83333104
   0.50000000  0.50000000  0.66666897
   0.66666896  0.33333107  0.66666896
   0.66666896  0.50000000  0.83333104
   0.83333104  0.33333107  0.83333104
   0.83333104  0.50000000  0.66666896
   0.00000000  0.66666896  0.66666896
   0.00000000  0.83333104  0.83333104
   0.16666893  0.66666896  0.83333104
   0.16666893  0.83333104  0.66666896
   0.33333107  0.66666896  0.66666896
   0.33333107  0.83333104  0.83333104
   0.50000000  0.66666896  0.83333104
   0.50000000  0.83333104  0.66666896
   0.66666896  0.66666896  0.66666896
   0.66666896  0.83333104  0.83333104
   0.83333104  0.66666896  0.83333104
   0.83333104  0.83333104  0.66666896
 
 position of ions in cartesian coordinates  (Angst):
   0.00000000  0.00000000  0.00000000
   0.00000000  1.72249793  1.72249793
   1.72249793  0.00000000  1.72249793
   1.72249793  1.72249793  0.00000000
   3.44492554  0.00000000  0.00000000
   3.44492559  1.72249794  1.72249794
   5.16742352  0.00000000  1.72249798
   5.16742352  1.72249798  0.00000000
   6.88992180  0.00000000  0.00000000
   6.88992176  1.72249794  1.72249794
   8.61234881  0.00000000  1.72249793
   8.61234881  1.72249793  0.00000000
   0.00000000  3.44492554  0.00000000
   0.00000000  5.16742352  1.72249798
   1.72249794  3.44492559  1.72249794
   1.72249798  5.16742352  0.00000000
   3.44492559  3.44492559  0.00000000
   3.44492559  5.16742352  1.72249793
   5.16742352  3.44492559  1.72249793
   5.16742352  5.16742352  0.00000000
   6.88992176  3.44492559  0.00000000
   6.88992176  5.16742352  1.72249793
   8.61234881  3.44492559  1.72249794
   8.61234877  5.16742352  0.00000000
   0.00000000  6.88992180  0.00000000
   0.00000000  8.61234881  1.72249793
   1.72249794  6.88992176  1.72249794
   1.72249793  8.61234881  0.00000000
   3.44492559  6.88992176  0.00000000
   3.44492559  8.61234881  1.72249794
   5.16742352  6.88992176  1.72249793
   5.16742352  8.61234877  0.00000000
   6.88992176  6.88992176  0.00000000
   6.88992176  8.61234881  1.72249794
   8.61234881  6.88992176  1.72249794
   8.61234881  8.61234881  0.00000000
   0.00000000  0.00000000  3.44492554
   0.00000000  1.72249798  5.16742352
   1.72249798  0.00000000  5.16742352
   1.72249794  1.72249794  3.44492559
   3.44492559  0.00000000  3.44492559
   3.44492559  1.72249793  5.16742352
   5.16742352  0.00000000  5.16742352
   5.16742352  1.72249793  3.44492559
   6.88992176  0.00000000  3.44492559
   6.88992176  1.72249793  5.16742352
   8.61234877  0.00000000  5.16742352
   8.61234881  1.72249794  3.44492559
   0.00000000  3.44492559  3.44492559
   0.00000000  5.16742352  5.16742352
   1.72249793  3.44492559  5.16742352
   1.72249793  5.16742352  3.44492559
   3.44492559  3.44492559  3.44492559
   3.44492554  5.16742352  5.16742352
   5.16742352  3.44492554  5.16742352
   5.16742352  5.16742352  3.44492554
   6.88992176  3.44492559  3.44492559
   6.88992180  5.16742352  5.16742352
   8.61234881  3.44492559  5.16742352
   8.61234881  5.16742352  3.44492559
   0.00000000  6.88992176  3.44492559
   0.00000000  8.61234877  5.16742352
   1.72249793  6.88992176  5.16742352
   1.72249794  8.61234881  3.44492559
   3.44492559  6.88992176  3.44492559
   3.44492559  8.61234881  5.16742352
   5.16742352  6.88992180  5.16742352
   5.16742352  8.61234881  3.44492559
   6.88992176  6.88992176  3.44492559
   6.88992176  8.61234881  5.16742352
   8.61234881  6.88992176  5.16742352
   8.61234881  8.61234881  3.44492559
   0.00000000  0.00000000  6.88992180
   0.00000000  1.72249793  8.61234881
   1.72249793  0.00000000  8.61234881
   1.72249794  1.72249794  6.88992176
   3.44492559  0.00000000  6.88992176
   3.44492559  1.72249794  8.61234881
   5.16742352  0.00000000  8.61234877
   5.16742352  1.72249793  6.88992176
   6.88992176  0.00000000  6.88992176
   6.88992176  1.72249794  8.61234881
   8.61234881  0.00000000  8.61234881
   8.61234881  1.72249794  6.88992176
   0.00000000  3.44492559  6.88992176
   0.00000000  5.16742352  8.61234877
   1.72249794  3.44492559  8.61234881
   1.72249793  5.16742352  6.88992176
   3.44492559  3.44492559  6.88992176
   3.44492559  5.16742352  8.61234881
   5.16742352  3.44492559  8.61234881
   5.16742352  5.16742352  6.88992180
   6.88992176  3.44492559  6.88992176
   6.88992176  5.16742352  8.61234881
   8.61234881  3.44492559  8.61234881
   8.61234881  5.16742352  6.88992176
   0.00000000  6.88992176  6.88992176
   0.00000000  8.61234881  8.61234881
   1.72249794  6.88992176  8.61234881
   1.72249794  8.61234881  6.88992176
   3.44492559  6.88992176  6.88992176
   3.44492559  8.61234881  8.61234881
   5.16742352  6.88992176  8.61234881
   5.16742352  8.61234881  6.88992176
   6.88992176  6.88992176  6.88992176
   6.88992176  8.61234881  8.61234881
   8.61234881  6.88992176  8.61234881
   8.61234881  8.61234881  6.88992176
 


--------------------------------------------------------------------------------------------------------


 k-point  1 :   0.2500 0.2500 0.2500  plane waves:   20047

 maximum and minimum number of plane-waves per node :      5014     5009

 maximum number of plane-waves:     20047
 maximum index in each direction: 
   IXMAX=   16   IYMAX=   16   IZMAX=   16
   IXMIN=  -17   IYMIN=  -17   IZMIN=  -17


 real space projection operators:
  total allocation   :      71821.69 KBytes
  max/ min on nodes  :      18240.19      17708.62


 parallel 3D FFT for wavefunctions:
    minimum data exchange during FFTs selected (reduces bandwidth)
 parallel 3D FFT for charge:
    minimum data exchange during FFTs selected (reduces bandwidth)


 total amount of memory used by VASP MPI-rank0   121858. kBytes
=======================================================================

   base      :      30000. kBytes
   nonlr-proj:      31400. kBytes
   fftplans  :      15429. kBytes
   grid      :      21835. kBytes
   one-center:        419. kBytes
   wavefun   :      22775. kBytes
 
     INWAV:  cpu time    0.0001: real time    0.0003
 Broyden mixing: mesh for mixing (old mesh)
   NGX = 33   NGY = 33   NGZ = 33
  (NGX  =144   NGY  =144   NGZ  =144)
  gives a total of  35937 points

 initial charge density was supplied:
 charge density of overlapping atoms calculated
 number of electron     864.0000000 magnetization 
 keeping initial charge density in first step


--------------------------------------------------------------------------------------------------------


 Maximum index for non-local projection operator         1201
 Maximum index for augmentation-charges         1463 (set IRDMAX)


--------------------------------------------------------------------------------------------------------


 First call to EWALD:  gamma=   0.172
 Maximum number of real-space cells 3x 3x 3
 Maximum number of reciprocal cells 3x 3x 3

    FEWALD:  cpu time    0.0223: real time    0.0223


--------------------------------------- Iteration      1(   1)  ---------------------------------------


    POTLOK:  cpu time    0.4824: real time    0.4832
    SETDIJ:  cpu time    0.1052: real time    0.1052
     EDDAV:  cpu time   16.2743: real time   16.2936
       DOS:  cpu time    0.0012: real time    0.0012
    --------------------------------------------
      LOOP:  cpu time   16.8630: real time   16.8832

 eigenvalue-minimisations  :  1036
 total energy-change (2. order) : 0.7610533E+04  (-0.2892825E+05)
 number of electron     864.0000000 magnetization 
 augmentation part      864.0000000 magnetization 

 Free energy of the ion-electron system (eV)
  ---------------------------------------------------
  alpha Z        PSCENC =      7300.31925852
  Ewald energy   TEWEN  =    -66232.83996889
  -Hartree energ DENC   =    -11197.02572337
  -exchange      EXHF   =         0.00000000
  -V(xc)+E(xc)   XCENC  =       446.63038354
  PAW double counting   =     51723.88885462   -52548.28121372
  entropy T*S    EENTRO =        -0.00464062
  eigenvalues    EBANDS =     13916.17508959
  atomic energy  EATOM  =     64201.67088057
  Solvation  Ediel_sol  =         0.00000000
  ---------------------------------------------------
  free energy    TOTEN  =      7610.53292025 eV

  energy without entropy =     7610.53756087  energy(sigma->0) =     7610.53446712


--------------------------------------------------------------------------------------------------------




--------------------------------------- Iteration      1(   2)  ---------------------------------------


     EDDAV:  cpu time   12.2361: real time   12.2372
       DOS:  cpu time    0.0017: real time    0.0017
    --------------------------------------------
      LOOP:  cpu time   12.2378: real time   12.2389

 eigenvalue-minimisations  :  1036
 total energy-change (2. order) :-0.7632392E+04  (-0.7462639E+04)
 number of electron     864.0000000 magnetization 
 augmentation part      864.0000000 magnetization 

 Free energy of the ion-electron system (eV)
  ---------------------------------------------------
  alpha Z        PSCENC =      7300.31925852
  Ewald energy   TEWEN  =    -66232.83996889
  -Hartree energ DENC   =    -11197.02572337
  -exchange      EXHF   =         0.00000000
  -V(xc)+E(xc)   XCENC  =       446.63038354
  PAW double counting   =     51723.88885462   -52548.28121372
  entropy T*S    EENTRO =        -0.06957005
  eigenvalues    EBANDS =      6283.84797078
  atomic energy  EATOM  =     64201.67088057
  Solvation  Ediel_sol  =         0.00000000
  ---------------------------------------------------
  free energy    TOTEN  =       -21.85912799 eV

  energy without entropy =      -21.78955794  energy(sigma->0) =      -21.83593798


--------------------------------------------------------------------------------------------------------




--------------------------------------- Iteration      1(   3)  ---------------------------------------


     EDDAV:  cpu time    9.8550: real time    9.8559
       DOS:  cpu time    0.0020: real time    0.0020
    --------------------------------------------
      LOOP:  cpu time    9.8570: real time    9.8579

 eigenvalue-minimisations  :  1052
 total energy-change (2. order) :-0.8308724E+03  (-0.7109872E+03)
 number of electron     864.0000000 magnetization 
 augmentation part      864.0000000 magnetization 

 Free energy of the ion-electron system (eV)
  ---------------------------------------------------
  alpha Z        PSCENC =      7300.31925852
  Ewald energy   TEWEN  =    -66232.83996889
  -Hartree energ DENC   =    -11197.02572337
  -exchange      EXHF   =         0.00000000
  -V(xc)+E(xc)   XCENC  =       446.63038354
  PAW double counting   =     51723.88885462   -52548.28121372
  entropy T*S    EENTRO =        -0.05205167
  eigenvalues    EBANDS =      5452.95808716
  atomic energy  EATOM  =     64201.67088057
  Solvation  Ediel_sol  =         0.00000000
  ---------------------------------------------------
  free energy    TOTEN  =      -852.73149323 eV

  energy without entropy =     -852.67944156  energy(sigma->0) =     -852.71414267


--------------------------------------------------------------------------------------------------------




--------------------------------------- Iteration      1(   4)  ---------------------------------------


     EDDAV:  cpu time   15.9364: real time   15.9376
       DOS:  cpu time    0.0020: real time    0.0020
    --------------------------------------------
      LOOP:  cpu time   15.9384: real time   15.9396

 eigenvalue-minimisations  :  1888
 total energy-change (2. order) :-0.1774371E+03  (-0.1657107E+03)
 number of electron     864.0000000 magnetization 
 augmentation part      864.0000000 magnetization 

 Free energy of the ion-electron system (eV)
  ---------------------------------------------------
  alpha Z        PSCENC =      7300.31925852
  Ewald energy   TEWEN  =    -66232.83996889
  -Hartree energ DENC   =    -11197.02572337
  -exchange      EXHF   =         0.00000000
  -V(xc)+E(xc)   XCENC  =       446.63038354
  PAW double counting   =     51723.88885462   -52548.28121372
  entropy T*S    EENTRO =         0.42178097
  eigenvalues    EBANDS =      5275.04714270
  atomic energy  EATOM  =     64201.67088057
  Solvation  Ediel_sol  =         0.00000000
  ---------------------------------------------------
  free energy    TOTEN  =     -1030.16860505 eV

  energy without entropy =    -1030.59038602  energy(sigma->0) =    -1030.30919871


--------------------------------------------------------------------------------------------------------




--------------------------------------- Iteration      1(   5)  ---------------------------------------


     EDDAV:  cpu time   14.1474: real time   14.1508
       DOS:  cpu time    0.0020: real time    0.0020
    CHARGE:  cpu time    0.7510: real time    0.7511
    MIXING:  cpu time    0.0065: real time    0.0065
    --------------------------------------------
      LOOP:  cpu time   14.9069: real time   14.9104

 eigenvalue-minimisations  :  1640
 total energy-change (2. order) :-0.1568104E+02  (-0.1481101E+02)
 number of electron     864.0000690 magnetization 
 augmentation part      382.1465275 magnetization 

 Broyden mixing:
  rms(total) = 0.94053E+01    rms(broyden)= 0.94047E+01
  rms(prec ) = 0.11727E+02
  weight for this iteration     100.00

 Free energy of the ion-electron system (eV)
  ---------------------------------------------------
  alpha Z        PSCENC =      7300.31925852
  Ewald energy   TEWEN  =    -66232.83996889
  -Hartree energ DENC   =    -11197.02572337
  -exchange      EXHF   =         0.00000000
  -V(xc)+E(xc)   XCENC  =       446.63038354
  PAW double counting   =     51723.88885462   -52548.28121372
  entropy T*S    EENTRO =         0.59365988
  eigenvalues    EBANDS =      5259.19422616
  atomic energy  EATOM  =     64201.67088057
  Solvation  Ediel_sol  =         0.00000000
  ---------------------------------------------------
  free energy    TOTEN  =     -1045.84964268 eV

  energy without entropy =    -1046.44330256  energy(sigma->0) =    -1046.04752931


--------------------------------------------------------------------------------------------------------




--------------------------------------- Iteration      1(   6)  ---------------------------------------


    POTLOK:  cpu time    0.2511: real time    0.2522
    SETDIJ:  cpu time    0.0523: real time    0.0523
    EDDIAG:  cpu time    1.2154: real time    1.2171
  RMM-DIIS:  cpu time    5.9528: real time    5.9528
    ORTHCH:  cpu time    0.2567: real time    0.2567
       DOS:  cpu time    0.0024: real time    0.0024
    CHARGE:  cpu time    0.7503: real time    0.7503
    MIXING:  cpu time    0.0073: real time    0.0073
    --------------------------------------------
      LOOP:  cpu time    8.4882: real time    8.4911

 eigenvalue-minimisations  :  1036
 total energy-change (2. order) : 0.1673473E+03  (-0.1374203E+03)
 number of electron     864.0000787 magnetization 
 augmentation part      447.6742729 magnetization 

 Broyden mixing:
  rms(total) = 0.91549E+00    rms(broyden)= 0.91447E+00
  rms(prec ) = 0.99180E+00
  weight for this iteration     100.00

 eigenvalues of (default mixing * dielectric matrix)
  average eigenvalue GAMMA=   0.9477
  0.9477

 Free energy of the ion-electron system (eV)
  ---------------------------------------------------
  alpha Z        PSCENC =      7300.31925852
  Ewald energy   TEWEN  =    -66232.83996889
  -Hartree energ DENC   =     -9330.56444675
  -exchange      EXHF   =         0.00000000
  -V(xc)+E(xc)   XCENC  =       355.28409642
  PAW double counting   =     52423.47502387   -53002.82522679
  entropy T*S    EENTRO =         0.31067726
  eigenvalues    EBANDS =      3406.66741012
  atomic energy  EATOM  =     64201.67088057
  Solvation  Ediel_sol  =         0.00000000
  ---------------------------------------------------
  free energy    TOTEN  =      -878.50229566 eV

  energy without entropy =     -878.81297292  energy(sigma->0) =     -878.60585474


--------------------------------------------------------------------------------------------------------




--------------------------------------- Iteration      1(   7)  ---------------------------------------


    POTLOK:  cpu time    0.2570: real time    0.2570
    SETDIJ:  cpu time    0.0516: real time    0.0516
    EDDIAG:  cpu time    1.2197: real time    1.2197
  RMM-DIIS:  cpu time    6.4211: real time    6.4220
    ORTHCH:  cpu time    0.2563: real time    0.2563
       DOS:  cpu time    0.0023: real time    0.0023
    CHARGE:  cpu time    0.7786: real time    0.7786
    MIXING:  cpu time    0.0068: real time    0.0068
    --------------------------------------------
      LOOP:  cpu time    8.9935: real time    8.9945

 eigenvalue-minimisations  :  1123
 total energy-change (2. order) :-0.3172894E+01  (-0.1113243E+02)
 number of electron     864.0000758 magnetization 
 augmentation part      446.6474040 magnetization 

 Broyden mixing:
  rms(total) = 0.63983E+00    rms(broyden)= 0.63907E+00
  rms(prec ) = 0.85074E+00
  weight for this iteration     100.00

 eigenvalues of (default mixing * dielectric matrix)
  average eigenvalue GAMMA=   0.8090
  0.8872  0.7309

 Free energy of the ion-electron system (eV)
  ---------------------------------------------------
  alpha Z        PSCENC =      7300.31925852
  Ewald energy   TEWEN  =    -66232.83996889
  -Hartree energ DENC   =     -9372.53264493
  -exchange      EXHF   =         0.00000000
  -V(xc)+E(xc)   XCENC  =       359.86610457
  PAW double counting   =     54301.74380816   -55078.60710375
  entropy T*S    EENTRO =         0.53836336
  eigenvalues    EBANDS =      3638.16611246
  atomic energy  EATOM  =     64201.67088057
  Solvation  Ediel_sol  =         0.00000000
  ---------------------------------------------------
  free energy    TOTEN  =      -881.67518993 eV

  energy without entropy =     -882.21355329  energy(sigma->0) =     -881.85464439


--------------------------------------------------------------------------------------------------------




--------------------------------------- Iteration      1(   8)  ---------------------------------------


    POTLOK:  cpu time    0.2587: real time    0.2591
    SETDIJ:  cpu time    0.0524: real time    0.0524
    EDDIAG:  cpu time    1.1431: real time    1.1431
  RMM-DIIS:  cpu time    6.8513: real time    6.8514
    ORTHCH:  cpu time    0.2542: real time    0.2542
       DOS:  cpu time    0.0022: real time    0.0022
    CHARGE:  cpu time    0.7400: real time    0.7400
    MIXING:  cpu time    0.0103: real time    0.0103
    --------------------------------------------
      LOOP:  cpu time    9.3123: real time    9.3127

 eigenvalue-minimisations  :  1219
 total energy-change (2. order) :-0.2065589E+01  (-0.1894511E+01)
 number of electron     864.0000761 magnetization 
 augmentation part      446.7431342 magnetization 

 Broyden mixing:
  rms(total) = 0.21746E+01    rms(broyden)= 0.21738E+01
  rms(prec ) = 0.30473E+01
  weight for this iteration     100.00

 eigenvalues of (default mixing * dielectric matrix)
  average eigenvalue GAMMA=   0.7691
  1.1003  1.1003  0.1067

 Free energy of the ion-electron system (eV)
  ---------------------------------------------------
  alpha Z        PSCENC =      7300.31925852
  Ewald energy   TEWEN  =    -66232.83996889
  -Hartree energ DENC   =     -9385.85919924
  -exchange      EXHF   =         0.00000000
  -V(xc)+E(xc)   XCENC  =       360.98210868
  PAW double counting   =     55035.09189511   -55856.58326260
  entropy T*S    EENTRO =         0.42251314
  eigenvalues    EBANDS =      3693.05499567
  atomic energy  EATOM  =     64201.67088057
  Solvation  Ediel_sol  =         0.00000000
  ---------------------------------------------------
  free energy    TOTEN  =      -883.74077903 eV

  energy without entropy =     -884.16329218  energy(sigma->0) =     -883.88161675


--------------------------------------------------------------------------------------------------------




--------------------------------------- Iteration      1(   9)  ---------------------------------------


    POTLOK:  cpu time    0.2625: real time    0.2625
    SETDIJ:  cpu time    0.0522: real time    0.0522
    EDDIAG:  cpu time    1.2156: real time    1.2157
  RMM-DIIS:  cpu time    6.0410: real time    6.0410
    ORTHCH:  cpu time    0.2569: real time    0.2569
       DOS:  cpu time    0.0022: real time    0.0022
    CHARGE:  cpu time    0.7813: real time    0.7813
    MIXING:  cpu time    0.0077: real time    0.0077
    --------------------------------------------
      LOOP:  cpu time    8.6195: real time    8.6196

 eigenvalue-minimisations  :  1064
 total energy-change (2. order) : 0.2986666E+01  (-0.6560870E+00)
 number of electron     864.0000762 magnetization 
 augmentation part      444.0242756 magnetization 

 Broyden mixing:
  rms(total) = 0.21845E+00    rms(broyden)= 0.21401E+00
  rms(prec ) = 0.25699E+00
  weight for this iteration     100.00

 eigenvalues of (default mixing * dielectric matrix)
  average eigenvalue GAMMA=   1.0223
  1.9354  1.0232  1.0232  0.1073

 Free energy of the ion-electron system (eV)
  ---------------------------------------------------
  alpha Z        PSCENC =      7300.31925852
  Ewald energy   TEWEN  =    -66232.83996889
  -Hartree energ DENC   =     -9407.77189941
  -exchange      EXHF   =         0.00000000
  -V(xc)+E(xc)   XCENC  =       362.73488921
  PAW double counting   =     56207.79399399   -57097.59133023
  entropy T*S    EENTRO =         0.53407922
  eigenvalues    EBANDS =      3784.39598400
  atomic energy  EATOM  =     64201.67088057
  Solvation  Ediel_sol  =         0.00000000
  ---------------------------------------------------
  free energy    TOTEN  =      -880.75411302 eV

  energy without entropy =     -881.28819223  energy(sigma->0) =     -880.93213942


--------------------------------------------------------------------------------------------------------




--------------------------------------- Iteration      1(  10)  ---------------------------------------


    POTLOK:  cpu time    0.2564: real time    0.2577
    SETDIJ:  cpu time    0.0522: real time    0.0522
    EDDIAG:  cpu time    1.1226: real time    1.1227
  RMM-DIIS:  cpu time    8.4629: real time    8.4629
    ORTHCH:  cpu time    0.2304: real time    0.2304
       DOS:  cpu time    0.0021: real time    0.0021
    CHARGE:  cpu time    0.7381: real time    0.7381
    MIXING:  cpu time    0.0086: real time    0.0085
    --------------------------------------------
      LOOP:  cpu time   10.8733: real time   10.8747

 eigenvalue-minimisations  :  1529
 total energy-change (2. order) : 0.2282330E-01  (-0.2467936E+00)
 number of electron     864.0000762 magnetization 
 augmentation part      444.1563959 magnetization 

 Broyden mixing:
  rms(total) = 0.17299E+00    rms(broyden)= 0.17284E+00
  rms(prec ) = 0.23505E+00
  weight for this iteration     100.00

 eigenvalues of (default mixing * dielectric matrix)
  average eigenvalue GAMMA=   1.1010
  2.4801  1.0717  1.0717  0.7741  0.1075

 Free energy of the ion-electron system (eV)
  ---------------------------------------------------
  alpha Z        PSCENC =      7300.31925852
  Ewald energy   TEWEN  =    -66232.83996889
  -Hartree energ DENC   =     -9361.15825717
  -exchange      EXHF   =         0.00000000
  -V(xc)+E(xc)   XCENC  =       360.96360975
  PAW double counting   =     57427.04186062   -58354.87862353
  entropy T*S    EENTRO =         0.55213176
  eigenvalues    EBANDS =      3777.59781865
  atomic energy  EATOM  =     64201.67088057
  Solvation  Ediel_sol  =         0.00000000
  ---------------------------------------------------
  free energy    TOTEN  =      -880.73128972 eV

  energy without entropy =     -881.28342148  energy(sigma->0) =     -880.91533364


--------------------------------------------------------------------------------------------------------




--------------------------------------- Iteration      1(  11)  ---------------------------------------


    POTLOK:  cpu time    0.2692: real time    0.2692
    SETDIJ:  cpu time    0.0522: real time    0.0522
    EDDIAG:  cpu time    1.2195: real time    1.2195
  RMM-DIIS:  cpu time    7.2844: real time    7.2844
    ORTHCH:  cpu time    0.2527: real time    0.2527
       DOS:  cpu time    0.0022: real time    0.0022
    CHARGE:  cpu time    0.7539: real time    0.7539
    MIXING:  cpu time    0.0078: real time    0.0077
    --------------------------------------------
      LOOP:  cpu time    9.8418: real time    9.8419

 eigenvalue-minimisations  :  1281
 total energy-change (2. order) : 0.1113014E-01  (-0.2209532E-01)
 number of electron     864.0000762 magnetization 
 augmentation part      444.5099214 magnetization 

 Broyden mixing:
  rms(total) = 0.26786E-01    rms(broyden)= 0.26769E-01
  rms(prec ) = 0.35891E-01
  weight for this iteration     100.00

 eigenvalues of (default mixing * dielectric matrix)
  average eigenvalue GAMMA=   1.1577
  2.6376  1.3594  0.9635  0.9635  0.9146  0.1075

 Free energy of the ion-electron system (eV)
  ---------------------------------------------------
  alpha Z        PSCENC =      7300.31925852
  Ewald energy   TEWEN  =    -66232.83996889
  -Hartree energ DENC   =     -9339.76779607
  -exchange      EXHF   =         0.00000000
  -V(xc)+E(xc)   XCENC  =       360.10904560
  PAW double counting   =     57922.36537722   -58861.17750569
  entropy T*S    EENTRO =         0.55810951
  eigenvalues    EBANDS =      3768.04243964
  atomic energy  EATOM  =     64201.67088057
  Solvation  Ediel_sol  =         0.00000000
  ---------------------------------------------------
  free energy    TOTEN  =      -880.72015958 eV

  energy without entropy =     -881.27826909  energy(sigma->0) =     -880.90619609


--------------------------------------------------------------------------------------------------------




--------------------------------------- Iteration      1(  12)  ---------------------------------------


    POTLOK:  cpu time    0.2468: real time    0.2469
    SETDIJ:  cpu time    0.0536: real time    0.0536
    EDDIAG:  cpu time    1.1944: real time    1.1944
  RMM-DIIS:  cpu time    8.2945: real time    8.2945
    ORTHCH:  cpu time    0.2331: real time    0.2331
       DOS:  cpu time    0.0022: real time    0.0022
    CHARGE:  cpu time    0.7480: real time    0.7480
    MIXING:  cpu time    0.0089: real time    0.0089
    --------------------------------------------
      LOOP:  cpu time   10.7815: real time   10.7816

 eigenvalue-minimisations  :  1508
 total energy-change (2. order) :-0.5843178E-02  (-0.5262093E-02)
 number of electron     864.0000762 magnetization 
 augmentation part      444.6443354 magnetization 

 Broyden mixing:
  rms(total) = 0.25096E-01    rms(broyden)= 0.25091E-01
  rms(prec ) = 0.31571E-01
  weight for this iteration     100.00

 eigenvalues of (default mixing * dielectric matrix)
  average eigenvalue GAMMA=   1.2967
  2.6989  2.2763  1.0863  1.0863  0.9109  0.9109  0.1075

 Free energy of the ion-electron system (eV)
  ---------------------------------------------------
  alpha Z        PSCENC =      7300.31925852
  Ewald energy   TEWEN  =    -66232.83996889
  -Hartree energ DENC   =     -9339.01427188
  -exchange      EXHF   =         0.00000000
  -V(xc)+E(xc)   XCENC  =       360.09505234
  PAW double counting   =     58021.48967680   -58960.11255854
  entropy T*S    EENTRO =         0.56015463
  eigenvalues    EBANDS =      3767.10577367
  atomic energy  EATOM  =     64201.67088057
  Solvation  Ediel_sol  =         0.00000000
  ---------------------------------------------------
  free energy    TOTEN  =      -880.72600276 eV

  energy without entropy =     -881.28615739  energy(sigma->0) =     -880.91272097


--------------------------------------------------------------------------------------------------------




--------------------------------------- Iteration      1(  13)  ---------------------------------------


    POTLOK:  cpu time    0.2698: real time    0.2702
    SETDIJ:  cpu time    0.0529: real time    0.0529
    EDDIAG:  cpu time    1.2207: real time    1.2207
  RMM-DIIS:  cpu time    6.5036: real time    6.5036
    ORTHCH:  cpu time    0.2551: real time    0.2551
       DOS:  cpu time    0.0023: real time    0.0023
    CHARGE:  cpu time    0.7554: real time    0.7554
    MIXING:  cpu time    0.0087: real time    0.0087
    --------------------------------------------
      LOOP:  cpu time    9.0686: real time    9.0690

 eigenvalue-minimisations  :  1145
 total energy-change (2. order) : 0.1417772E-02  (-0.6289051E-03)
 number of electron     864.0000762 magnetization 
 augmentation part      444.5252651 magnetization 

 Broyden mixing:
  rms(total) = 0.36720E-02    rms(broyden)= 0.36676E-02
  rms(prec ) = 0.50548E-02
  weight for this iteration     100.00

 eigenvalues of (default mixing * dielectric matrix)
  average eigenvalue GAMMA=   1.2788
  2.4701  2.4701  0.1075  1.2537  1.0588  1.0588  0.9057  0.9057

 Free energy of the ion-electron system (eV)
  ---------------------------------------------------
  alpha Z        PSCENC =      7300.31925852
  Ewald energy   TEWEN  =    -66232.83996889
  -Hartree energ DENC   =     -9345.64585186
  -exchange      EXHF   =         0.00000000
  -V(xc)+E(xc)   XCENC  =       360.39352896
  PAW double counting   =     58020.37955935   -58956.60707229
  entropy T*S    EENTRO =         0.55951553
  eigenvalues    EBANDS =      3771.04556511
  atomic energy  EATOM  =     64201.67088057
  Solvation  Ediel_sol  =         0.00000000
  ---------------------------------------------------
  free energy    TOTEN  =      -880.72458499 eV

  energy without entropy =     -881.28410052  energy(sigma->0) =     -880.91109017


--------------------------------------------------------------------------------------------------------




--------------------------------------- Iteration      1(  14)  ---------------------------------------


    POTLOK:  cpu time    0.2733: real time    0.2734
    SETDIJ:  cpu time    0.0553: real time    0.0553
    EDDIAG:  cpu time    1.2116: real time    1.2116
  RMM-DIIS:  cpu time    7.6619: real time    7.6619
    ORTHCH:  cpu time    0.2555: real time    0.2555
       DOS:  cpu time    0.0022: real time    0.0022
    CHARGE:  cpu time    0.7564: real time    0.7564
    MIXING:  cpu time    0.0083: real time    0.0083
    --------------------------------------------
      LOOP:  cpu time   10.2244: real time   10.2245

 eigenvalue-minimisations  :  1375
 total energy-change (2. order) :-0.1850300E-03  (-0.2482505E-03)
 number of electron     864.0000762 magnetization 
 augmentation part      444.4975513 magnetization 

 Broyden mixing:
  rms(total) = 0.43373E-02    rms(broyden)= 0.43371E-02
  rms(prec ) = 0.56198E-02
  weight for this iteration     100.00

 eigenvalues of (default mixing * dielectric matrix)
  average eigenvalue GAMMA=   1.2620
  2.4888  2.3594  1.7568  0.1075  1.0582  1.0582  0.9013  0.9013  0.7266

 Free energy of the ion-electron system (eV)
  ---------------------------------------------------
  alpha Z        PSCENC =      7300.31925852
  Ewald energy   TEWEN  =    -66232.83996889
  -Hartree energ DENC   =     -9345.91672220
  -exchange      EXHF   =         0.00000000
  -V(xc)+E(xc)   XCENC  =       360.40406748
  PAW double counting   =     58012.76137962   -58948.63956005
  entropy T*S    EENTRO =         0.55976268
  eigenvalues    EBANDS =      3770.95613223
  atomic energy  EATOM  =     64201.67088057
  Solvation  Ediel_sol  =         0.00000000
  ---------------------------------------------------
  free energy    TOTEN  =      -880.72477002 eV

  energy without entropy =     -881.28453270  energy(sigma->0) =     -880.91135758


--------------------------------------------------------------------------------------------------------




--------------------------------------- Iteration      1(  15)  ---------------------------------------


    POTLOK:  cpu time    0.2392: real time    0.2392
    SETDIJ:  cpu time    0.0518: real time    0.0518
    EDDIAG:  cpu time    1.1837: real time    1.1839
  RMM-DIIS:  cpu time    7.0074: real time    7.0074
    ORTHCH:  cpu time    0.2565: real time    0.2565
       DOS:  cpu time    0.0023: real time    0.0023
    CHARGE:  cpu time    0.7793: real time    0.7793
    MIXING:  cpu time    0.0092: real time    0.0092
    --------------------------------------------
      LOOP:  cpu time    9.5292: real time    9.5296

 eigenvalue-minimisations  :  1243
 total energy-change (2. order) : 0.8683324E-05  (-0.8044542E-05)
 number of electron     864.0000762 magnetization 
 augmentation part      444.5159272 magnetization 

 Broyden mixing:
  rms(total) = 0.13034E-02    rms(broyden)= 0.13028E-02
  rms(prec ) = 0.17309E-02
  weight for this iteration     100.00

 eigenvalues of (default mixing * dielectric matrix)
  average eigenvalue GAMMA=   1.3716
  3.0095  2.5942  2.1723  0.1075  1.0824  1.0824  0.9912  0.9200  0.9200  0.8367

 Free energy of the ion-electron system (eV)
  ---------------------------------------------------
  alpha Z        PSCENC =      7300.31925852
  Ewald energy   TEWEN  =    -66232.83996889
  -Hartree energ DENC   =     -9345.32069902
  -exchange      EXHF   =         0.00000000
  -V(xc)+E(xc)   XCENC  =       360.37814067
  PAW double counting   =     58011.08524333   -58946.99726593
  entropy T*S    EENTRO =         0.56002266
  eigenvalues    EBANDS =      3770.41962674
  atomic energy  EATOM  =     64201.67088057
  Solvation  Ediel_sol  =         0.00000000
  ---------------------------------------------------
  free energy    TOTEN  =      -880.72476134 eV

  energy without entropy =     -881.28478400  energy(sigma->0) =     -880.91143556


--------------------------------------------------------------------------------------------------------




--------------------------------------- Iteration      1(  16)  ---------------------------------------


    POTLOK:  cpu time    0.2661: real time    0.2661
    SETDIJ:  cpu time    0.0537: real time    0.0537
    EDDIAG:  cpu time    1.1149: real time    1.1149
  RMM-DIIS:  cpu time    8.1993: real time    8.1994
    ORTHCH:  cpu time    0.2555: real time    0.2555
       DOS:  cpu time    0.0021: real time    0.0021
    CHARGE:  cpu time    0.7682: real time    0.7682
    MIXING:  cpu time    0.0109: real time    0.0109
    --------------------------------------------
      LOOP:  cpu time   10.6708: real time   10.6709

 eigenvalue-minimisations  :  1482
 total energy-change (2. order) : 0.7697381E-06  ( 0.3048379E-05)
 number of electron     864.0000762 magnetization 
 augmentation part      444.5223632 magnetization 

 Broyden mixing:
  rms(total) = 0.87068E-04    rms(broyden)= 0.80790E-04
  rms(prec ) = 0.10010E-03
  weight for this iteration     100.00

 eigenvalues of (default mixing * dielectric matrix)
  average eigenvalue GAMMA=   1.3514
  2.8257  2.5300  2.4172  0.1075  1.0737  1.0737  1.0789  1.0789  0.9332  0.9332
  0.8129

 Free energy of the ion-electron system (eV)
  ---------------------------------------------------
  alpha Z        PSCENC =      7300.31925852
  Ewald energy   TEWEN  =    -66232.83996889
  -Hartree energ DENC   =     -9345.20161935
  -exchange      EXHF   =         0.00000000
  -V(xc)+E(xc)   XCENC  =       360.37492814
  PAW double counting   =     58009.82253973   -58945.74724567
  entropy T*S    EENTRO =         0.56013255
  eigenvalues    EBANDS =      3770.31633384
  atomic energy  EATOM  =     64201.67088057
  Solvation  Ediel_sol  =         0.00000000
  ---------------------------------------------------
  free energy    TOTEN  =      -880.72476057 eV

  energy without entropy =     -881.28489312  energy(sigma->0) =     -880.91147142


--------------------------------------------------------------------------------------------------------




--------------------------------------- Iteration      1(  17)  ---------------------------------------


    POTLOK:  cpu time    0.2477: real time    0.2481
    SETDIJ:  cpu time    0.0536: real time    0.0536
    EDDIAG:  cpu time    1.1572: real time    1.1572
  RMM-DIIS:  cpu time    5.1536: real time    5.1536
    ORTHCH:  cpu time    0.2556: real time    0.2556
       DOS:  cpu time    0.0023: real time    0.0023
    CHARGE:  cpu time    0.7827: real time    0.7827
    MIXING:  cpu time    0.0105: real time    0.0105
    --------------------------------------------
      LOOP:  cpu time    7.6631: real time    7.6636

 eigenvalue-minimisations  :   892
 total energy-change (2. order) :-0.4841422E-07  ( 0.5196913E-05)
 number of electron     864.0000762 magnetization 
 augmentation part      444.5245428 magnetization 

 Broyden mixing:
  rms(total) = 0.34829E-03    rms(broyden)= 0.34820E-03
  rms(prec ) = 0.45248E-03
  weight for this iteration     100.00

 eigenvalues of (default mixing * dielectric matrix)
  average eigenvalue GAMMA=   1.3805
  3.0222  2.5226  2.3307  1.7628  0.1075  1.0910  1.0910  1.0087  1.0087  0.8989
  0.8989  0.8235

 Free energy of the ion-electron system (eV)
  ---------------------------------------------------
  alpha Z        PSCENC =      7300.31925852
  Ewald energy   TEWEN  =    -66232.83996889
  -Hartree energ DENC   =     -9345.12819647
[...]
   0.105E-01 0.104E-01 0.143E-04   -.205E-01 -.203E-01 -.278E-04   0.110E-20 -.184E-19 0.322E-19   0.126E-06 0.108E-06 0.132E-07
   -.105E-01 -.143E-04 0.143E-04   0.206E-01 0.278E-04 -.278E-04   -.296E-24 0.508E-20 0.847E-20   -.122E-06 -.133E-07 0.132E-07
   -.105E-01 0.104E-01 -.104E-01   0.205E-01 -.203E-01 0.203E-01   0.216E-24 -.257E-21 0.284E-19   -.122E-06 0.108E-06 -.113E-06
   -.143E-04 -.104E-01 -.104E-01   0.278E-04 0.203E-01 0.203E-01   -.423E-21 0.254E-20 -.847E-21   -.133E-07 -.108E-06 -.108E-06
   -.143E-04 0.143E-04 0.143E-04   0.278E-04 -.278E-04 -.278E-04   -.127E-20 -.254E-20 -.131E-19   -.133E-07 0.132E-07 0.132E-07
   0.104E-01 -.104E-01 0.143E-04   -.203E-01 0.203E-01 -.278E-04   0.150E-21 0.508E-20 -.157E-19   0.108E-06 -.113E-06 0.132E-07
   0.104E-01 0.143E-04 -.104E-01   -.203E-01 -.278E-04 0.203E-01   0.956E-21 -.932E-20 0.466E-20   0.108E-06 0.132E-07 -.113E-06
   -.104E-01 -.104E-01 -.104E-01   0.203E-01 0.203E-01 0.203E-01   0.296E-24 -.254E-20 -.203E-19   -.108E-06 -.108E-06 -.108E-06
   -.104E-01 0.143E-04 0.143E-04   0.203E-01 -.278E-04 -.278E-04   -.297E-24 -.805E-20 -.195E-19   -.113E-06 0.132E-07 0.132E-07
   0.143E-04 -.104E-01 0.143E-04   -.278E-04 0.203E-01 -.278E-04   -.424E-21 0.127E-20 -.339E-20   0.132E-07 -.113E-06 0.132E-07
   0.143E-04 0.143E-04 -.104E-01   -.278E-04 -.278E-04 0.203E-01   0.127E-20 -.847E-20 -.224E-19   0.132E-07 0.132E-07 -.113E-06
   0.105E-01 -.104E-01 -.104E-01   -.205E-01 0.203E-01 0.203E-01   0.546E-21 -.932E-20 -.186E-19   0.121E-06 -.108E-06 -.108E-06
   0.105E-01 0.143E-04 0.143E-04   -.206E-01 -.278E-04 -.278E-04   -.392E-21 0.424E-21 -.538E-19   0.127E-06 0.132E-07 0.132E-07
   -.105E-01 -.104E-01 0.143E-04   0.205E-01 0.203E-01 -.278E-04   -.135E-24 0.805E-20 0.720E-20   -.122E-06 -.113E-06 0.132E-07
   -.105E-01 0.143E-04 -.104E-01   0.205E-01 -.278E-04 0.203E-01   0.135E-24 0.678E-20 -.169E-20   -.122E-06 0.132E-07 -.113E-06
   -.143E-04 0.105E-01 -.104E-01   0.278E-04 -.205E-01 0.203E-01   0.424E-21 0.334E-20 -.424E-21   -.133E-07 0.121E-06 -.108E-06
   -.143E-04 -.105E-01 0.143E-04   0.278E-04 0.206E-01 -.278E-04   -.136E-24 -.212E-20 0.165E-19   -.133E-07 -.122E-06 0.132E-07
   0.104E-01 0.105E-01 0.143E-04   -.203E-01 -.205E-01 -.278E-04   0.168E-20 -.357E-20 -.216E-19   0.108E-06 0.126E-06 0.132E-07
   0.104E-01 -.105E-01 -.104E-01   -.203E-01 0.205E-01 0.203E-01   -.481E-21 -.127E-20 0.593E-20   0.108E-06 -.122E-06 -.113E-06
   -.104E-01 0.105E-01 -.104E-01   0.203E-01 -.205E-01 0.203E-01   0.215E-24 0.796E-21 0.254E-20   -.108E-06 0.121E-06 -.108E-06
   -.104E-01 -.105E-01 0.143E-04   0.203E-01 0.205E-01 -.278E-04   -.136E-24 0.127E-20 0.292E-19   -.113E-06 -.122E-06 0.132E-07
   0.143E-04 0.105E-01 0.143E-04   -.278E-04 -.206E-01 -.278E-04   0.847E-21 0.193E-19 0.322E-19   0.132E-07 0.127E-06 0.132E-07
   0.143E-04 -.105E-01 -.104E-01   -.278E-04 0.205E-01 0.203E-01   0.169E-20 0.178E-19 0.762E-20   0.132E-07 -.122E-06 -.113E-06
   0.105E-01 0.105E-01 -.104E-01   -.205E-01 -.205E-01 0.203E-01   0.482E-22 -.897E-21 0.974E-20   0.121E-06 0.121E-06 -.108E-06
   0.105E-01 -.105E-01 0.143E-04   -.205E-01 0.205E-01 -.278E-04   0.124E-20 -.762E-20 -.119E-19   0.126E-06 -.122E-06 0.132E-07
   -.105E-01 0.105E-01 0.143E-04   0.205E-01 -.205E-01 -.278E-04   -.216E-24 -.527E-20 0.889E-20   -.122E-06 0.126E-06 0.132E-07
   -.105E-01 -.105E-01 -.104E-01   0.205E-01 0.205E-01 0.203E-01   0.295E-24 0.551E-20 -.424E-20   -.122E-06 -.122E-06 -.113E-06
   -.143E-04 -.143E-04 0.105E-01   0.278E-04 0.278E-04 -.206E-01   -.805E-25 0.110E-19 0.395E-19   -.133E-07 -.133E-07 0.121E-06
   -.143E-04 0.104E-01 -.105E-01   0.278E-04 -.203E-01 0.205E-01   0.847E-21 -.124E-19 -.512E-19   -.133E-07 0.108E-06 -.122E-06
   0.104E-01 -.143E-04 -.105E-01   -.203E-01 0.278E-04 0.205E-01   -.104E-20 -.114E-19 0.258E-19   0.108E-06 -.133E-07 -.122E-06
   0.104E-01 0.104E-01 0.105E-01   -.203E-01 -.203E-01 -.205E-01   -.203E-20 0.157E-20 -.191E-19   0.108E-06 0.108E-06 0.126E-06
   -.104E-01 -.143E-04 0.105E-01   0.203E-01 0.278E-04 -.205E-01   -.806E-25 0.144E-19 0.259E-19   -.108E-06 -.133E-07 0.121E-06
   -.104E-01 0.104E-01 -.105E-01   0.203E-01 -.203E-01 0.205E-01   0.213E-24 -.608E-20 -.305E-19   -.113E-06 0.108E-06 -.122E-06
   0.143E-04 -.143E-04 -.105E-01   -.278E-04 0.278E-04 0.206E-01   0.127E-20 0.123E-19 0.127E-19   0.132E-07 -.133E-07 -.122E-06
   0.143E-04 0.104E-01 0.105E-01   -.278E-04 -.203E-01 -.205E-01   -.424E-21 -.103E-19 -.254E-19   0.132E-07 0.108E-06 0.126E-06
   0.105E-01 -.143E-04 0.105E-01   -.205E-01 0.278E-04 -.205E-01   -.124E-21 0.762E-20 0.128E-19   0.121E-06 -.133E-07 0.121E-06
   0.105E-01 0.104E-01 -.105E-01   -.205E-01 -.203E-01 0.205E-01   0.482E-21 0.578E-20 -.131E-19   0.126E-06 0.108E-06 -.122E-06
   -.105E-01 -.143E-04 -.105E-01   0.205E-01 0.278E-04 0.205E-01   0.133E-24 -.339E-20 0.805E-20   -.122E-06 -.133E-07 -.122E-06
   -.105E-01 0.104E-01 0.105E-01   0.205E-01 -.203E-01 -.205E-01   -.654E-27 -.139E-20 -.213E-20   -.122E-06 0.108E-06 0.126E-06
   -.143E-04 -.104E-01 0.105E-01   0.278E-04 0.203E-01 -.205E-01   -.423E-21 -.889E-20 0.276E-19   -.133E-07 -.108E-06 0.121E-06
   -.143E-04 0.143E-04 -.105E-01   0.278E-04 -.278E-04 0.206E-01   0.132E-24 0.424E-20 0.296E-19   -.133E-07 0.132E-07 -.122E-06
   0.104E-01 -.104E-01 -.105E-01   -.203E-01 0.203E-01 0.205E-01   0.770E-21 0.212E-20 0.377E-19   0.108E-06 -.113E-06 -.122E-06
   0.104E-01 0.143E-04 0.105E-01   -.203E-01 -.278E-04 -.205E-01   -.314E-21 -.974E-20 0.352E-19   0.108E-06 0.132E-07 0.126E-06
   -.104E-01 -.104E-01 0.105E-01   0.203E-01 0.203E-01 -.205E-01   0.799E-25 -.131E-19 0.137E-19   -.108E-06 -.108E-06 0.121E-06
   -.104E-01 0.143E-04 -.105E-01   0.203E-01 -.278E-04 0.205E-01   0.132E-24 0.720E-20 0.330E-19   -.113E-06 0.132E-07 -.122E-06
   0.143E-04 -.104E-01 -.105E-01   -.278E-04 0.203E-01 0.205E-01   -.169E-20 0.381E-20 0.267E-19   0.132E-07 -.113E-06 -.122E-06
   0.143E-04 0.143E-04 0.105E-01   -.278E-04 -.278E-04 -.206E-01   -.815E-25 0.174E-19 0.288E-19   0.132E-07 0.132E-07 0.127E-06
   0.105E-01 -.104E-01 0.105E-01   -.205E-01 0.203E-01 -.205E-01   0.175E-21 -.127E-19 0.310E-19   0.121E-06 -.108E-06 0.121E-06
   0.105E-01 0.143E-04 -.105E-01   -.205E-01 -.278E-04 0.205E-01   -.523E-21 0.106E-19 0.398E-19   0.126E-06 0.132E-07 -.122E-06
   -.105E-01 -.104E-01 -.105E-01   0.205E-01 0.203E-01 0.205E-01   0.294E-24 0.593E-20 -.424E-20   -.122E-06 -.113E-06 -.122E-06
   -.105E-01 0.143E-04 0.105E-01   0.205E-01 -.278E-04 -.205E-01   -.817E-25 0.593E-20 0.131E-19   -.122E-06 0.132E-07 0.126E-06
   -.143E-04 0.105E-01 0.105E-01   0.278E-04 -.205E-01 -.205E-01   0.424E-21 0.334E-20 -.359E-19   -.133E-07 0.121E-06 0.121E-06
   -.143E-04 -.105E-01 -.105E-01   0.278E-04 0.205E-01 0.205E-01   0.424E-21 -.847E-21 -.152E-19   -.133E-07 -.122E-06 -.122E-06
   0.104E-01 0.105E-01 -.105E-01   -.203E-01 -.205E-01 0.205E-01   0.470E-21 -.185E-20 0.123E-19   0.108E-06 0.126E-06 -.122E-06
   0.104E-01 -.105E-01 0.105E-01   -.203E-01 0.205E-01 -.205E-01   -.185E-21 0.720E-20 -.593E-20   0.108E-06 -.122E-06 0.126E-06
   -.104E-01 0.105E-01 0.105E-01   0.203E-01 -.205E-01 -.205E-01   -.116E-26 0.101E-19 0.771E-20   -.108E-06 0.121E-06 0.121E-06
   -.104E-01 -.105E-01 -.105E-01   0.203E-01 0.205E-01 0.205E-01   0.293E-24 -.424E-21 -.186E-19   -.113E-06 -.122E-06 -.122E-06
   0.143E-04 0.105E-01 -.105E-01   -.278E-04 -.205E-01 0.205E-01   0.424E-21 0.492E-20 -.368E-19   0.132E-07 0.126E-06 -.122E-06
   0.143E-04 -.105E-01 0.105E-01   -.278E-04 0.205E-01 -.205E-01   0.424E-21 0.720E-20 -.195E-19   0.132E-07 -.122E-06 0.126E-06
   0.105E-01 0.105E-01 0.105E-01   -.205E-01 -.205E-01 -.205E-01   -.678E-22 0.503E-20 -.880E-20   0.121E-06 0.121E-06 0.121E-06
   0.105E-01 -.105E-01 -.105E-01   -.205E-01 0.205E-01 0.205E-01   -.997E-21 0.423E-21 -.593E-20   0.126E-06 -.122E-06 -.122E-06
   -.105E-01 0.105E-01 -.105E-01   0.205E-01 -.205E-01 0.205E-01   0.213E-24 -.228E-20 0.119E-19   -.122E-06 0.126E-06 -.122E-06
   -.105E-01 -.105E-01 0.105E-01   0.205E-01 0.205E-01 -.205E-01   0.789E-25 0.186E-19 0.279E-19   -.122E-06 -.122E-06 0.126E-06
 -----------------------------------------------------------------------------------------------
   0.541E-08 0.544E-08 0.536E-08   -.110E-12 -.235E-12 -.271E-11   0.558E-20 0.212E-19 0.325E-18   -.508E-08 -.508E-08 -.508E-08
 
 
 POSITION                                       TOTAL-FORCE (eV/Angst)
 -----------------------------------------------------------------------------------
      0.00000     -0.00000      0.00000         0.000000      0.000000     -0.000000
      0.00000      1.72176      1.72176        -0.000000     -0.000000      0.000000
      1.72176     -0.00000      1.72176         0.000000     -0.000000     -0.000000
      1.72176      1.72176     -0.00000         0.000000      0.000000      0.000000
      3.44345     -0.00000      0.00000         0.000000     -0.000000      0.000000
      3.44345      1.72176      1.72176        -0.000000      0.000000      0.000000
      5.16521     -0.00000      1.72176         0.000000     -0.000000      0.000000
      5.16521      1.72176      0.00000         0.000000      0.000000      0.000000
      6.88697     -0.00000      0.00000        -0.000000      0.000000      0.000000
      6.88697      1.72176      1.72176        -0.000000     -0.000000      0.000000
      8.60866     -0.00000      1.72176        -0.000000     -0.000000     -0.000000
      8.60866      1.72176      0.00000        -0.000000     -0.000000      0.000000
      0.00000      3.44345     -0.00000         0.000000     -0.000000      0.000000
      0.00000      5.16521      1.72176        -0.000000     -0.000000     -0.000000
      1.72176      3.44345      1.72176         0.000000     -0.000000      0.000000
      1.72176      5.16521     -0.00000        -0.000000     -0.000000      0.000000
      3.44345      3.44345     -0.00000        -0.000000      0.000000      0.000000
      3.44345      5.16521      1.72176        -0.000000     -0.000000     -0.000000
      5.16521      3.44345      1.72176         0.000000      0.000000      0.000000
      5.16521      5.16521     -0.00000        -0.000000     -0.000000     -0.000000
      6.88697      3.44345      0.00000        -0.000000      0.000000      0.000000
      6.88697      5.16521      1.72176         0.000000      0.000000     -0.000000
      8.60866      3.44345      1.72176         0.000000      0.000000     -0.000000
      8.60866      5.16521      0.00000        -0.000000      0.000000     -0.000000
      0.00000      6.88697     -0.00000         0.000000      0.000000     -0.000000
      0.00000      8.60866      1.72176        -0.000000     -0.000000     -0.000000
      1.72176      6.88697      1.72176        -0.000000     -0.000000     -0.000000
      1.72176      8.60866     -0.00000         0.000000     -0.000000     -0.000000
      3.44345      6.88697     -0.00000        -0.000000      0.000000      0.000000
      3.44345      8.60866      1.72176        -0.000000      0.000000      0.000000
      5.16521      6.88697      1.72176        -0.000000     -0.000000     -0.000000
      5.16521      8.60866     -0.00000        -0.000000     -0.000000     -0.000000
      6.88697      6.88697     -0.00000        -0.000000     -0.000000      0.000000
      6.88697      8.60866      1.72176         0.000000      0.000000      0.000000
      8.60866      6.88697      1.72176         0.000000     -0.000000      0.000000
      8.60866      8.60866     -0.00000        -0.000000      0.000000     -0.000000
      0.00000     -0.00000      3.44345         0.000000      0.000000      0.000000
      0.00000      1.72176      5.16521        -0.000000      0.000000      0.000000
      1.72176     -0.00000      5.16521        -0.000000      0.000000      0.000000
      1.72176      1.72176      3.44345         0.000000      0.000000     -0.000000
      3.44345     -0.00000      3.44345        -0.000000      0.000000      0.000000
      3.44345      1.72176      5.16521        -0.000000      0.000000      0.000000
      5.16521     -0.00000      5.16521         0.000000     -0.000000      0.000000
      5.16521      1.72176      3.44345         0.000000     -0.000000     -0.000000
      6.88697     -0.00000      3.44345         0.000000      0.000000      0.000000
      6.88697      1.72176      5.16521         0.000000     -0.000000     -0.000000
      8.60866     -0.00000      5.16521        -0.000000     -0.000000     -0.000000
      8.60866      1.72176      3.44345        -0.000000      0.000000     -0.000000
      0.00000      3.44345      3.44345         0.000000      0.000000     -0.000000
      0.00000      5.16521      5.16521         0.000000      0.000000     -0.000000
      1.72176      3.44345      5.16521        -0.000000     -0.000000      0.000000
      1.72176      5.16521      3.44345         0.000000      0.000000     -0.000000
      3.44345      3.44345      3.44345        -0.000000      0.000000      0.000000
      3.44345      5.16521      5.16521        -0.000000     -0.000000     -0.000000
      5.16521      3.44345      5.16521        -0.000000     -0.000000     -0.000000
      5.16521      5.16521      3.44345         0.000000      0.000000      0.000000
      6.88697      3.44345      3.44345         0.000000      0.000000      0.000000
      6.88697      5.16521      5.16521        -0.000000      0.000000     -0.000000
      8.60866      3.44345      5.16521         0.000000     -0.000000      0.000000
      8.60866      5.16521      3.44345        -0.000000      0.000000      0.000000
      0.00000      6.88697      3.44345        -0.000000      0.000000      0.000000
      0.00000      8.60866      5.16521        -0.000000     -0.000000      0.000000
      1.72176      6.88697      5.16521        -0.000000     -0.000000     -0.000000
      1.72176      8.60866      3.44345         0.000000     -0.000000     -0.000000
      3.44345      6.88697      3.44345         0.000000      0.000000     -0.000000
      3.44345      8.60866      5.16521         0.000000      0.000000      0.000000
      5.16521      6.88697      5.16521        -0.000000     -0.000000     -0.000000
      5.16521      8.60866      3.44345         0.000000     -0.000000      0.000000
      6.88697      6.88697      3.44345        -0.000000     -0.000000     -0.000000
      6.88697      8.60866      5.16521         0.000000      0.000000     -0.000000
      8.60866      6.88697      5.16521         0.000000     -0.000000     -0.000000
      8.60866      8.60866      3.44345        -0.000000      0.000000     -0.000000
      0.00000     -0.00000      6.88697         0.000000      0.000000     -0.000000
      0.00000      1.72176      8.60866         0.000000     -0.000000     -0.000000
      1.72176     -0.00000      8.60866         0.000000      0.000000     -0.000000
      1.72176      1.72176      6.88697         0.000000      0.000000      0.000000
      3.44345     -0.00000      6.88697        -0.000000      0.000000      0.000000
      3.44345      1.72176      8.60866        -0.000000     -0.000000     -0.000000
      5.16521     -0.00000      8.60866        -0.000000     -0.000000     -0.000000
      5.16521      1.72176      6.88697         0.000000     -0.000000      0.000000
      6.88697     -0.00000      6.88697        -0.000000      0.000000      0.000000
      6.88697      1.72176      8.60866         0.000000     -0.000000      0.000000
      8.60866     -0.00000      8.60866        -0.000000     -0.000000      0.000000
      8.60866      1.72176      6.88697         0.000000      0.000000      0.000000
      0.00000      3.44345      6.88697        -0.000000      0.000000      0.000000
      0.00000      5.16521      8.60866        -0.000000     -0.000000      0.000000
      1.72176      3.44345      8.60866        -0.000000     -0.000000     -0.000000
      1.72176      5.16521      6.88697         0.000000      0.000000      0.000000
      3.44345      3.44345      6.88697         0.000000      0.000000     -0.000000
      3.44345      5.16521      8.60866         0.000000      0.000000      0.000000
      5.16521      3.44345      8.60866        -0.000000     -0.000000      0.000000
      5.16521      5.16521      6.88697         0.000000      0.000000     -0.000000
      6.88697      3.44345      6.88697        -0.000000      0.000000      0.000000
      6.88697      5.16521      8.60866        -0.000000     -0.000000      0.000000
      8.60866      3.44345      8.60866        -0.000000     -0.000000     -0.000000
      8.60866      5.16521      6.88697         0.000000      0.000000     -0.000000
      0.00000      6.88697      6.88697        -0.000000      0.000000     -0.000000
      0.00000      8.60866      8.60866        -0.000000     -0.000000     -0.000000
      1.72176      6.88697      8.60866         0.000000     -0.000000      0.000000
      1.72176      8.60866      6.88697         0.000000     -0.000000     -0.000000
      3.44345      6.88697      6.88697        -0.000000      0.000000      0.000000
      3.44345      8.60866      8.60866        -0.000000     -0.000000      0.000000
      5.16521      6.88697      8.60866        -0.000000     -0.000000      0.000000
      5.16521      8.60866      6.88697        -0.000000     -0.000000     -0.000000
      6.88697      6.88697      6.88697        -0.000000      0.000000      0.000000
      6.88697      8.60866      8.60866        -0.000000      0.000000     -0.000000
      8.60866      6.88697      8.60866         0.000000     -0.000000      0.000000
      8.60866      8.60866      6.88697        -0.000000     -0.000000     -0.000000
 -----------------------------------------------------------------------------------
    total drift:                                0.000000      0.000000      0.000000


--------------------------------------------------------------------------------------------------------



  FREE ENERGIE OF THE ION-ELECTRON SYSTEM (eV)
  ---------------------------------------------------
  free  energy   TOTEN  =      -880.72642967 eV

  energy  without entropy=     -881.28417701  energy(sigma->0) =     -880.91234545
 
 d Force = 0.0000000E+00[ 0.000E+00, 0.000E+00]  d Energy = 0.5373775E-02-0.537E-02
 d Force = 0.0000000E+00[ 0.000E+00, 0.000E+00]  d Ewald  =-0.5080715E+02 0.508E+02


--------------------------------------------------------------------------------------------------------


    POTLOK:  cpu time    0.3158: real time    0.3158


--------------------------------------------------------------------------------------------------------




--------------------------------------------------------------------------------------------------------


  
 reached required accuracy - stopping structural energy minimisation
     LOOP+:  cpu time   93.9552: real time   93.9844
    4ORBIT:  cpu time    0.0000: real time    0.0000

 total amount of memory used by VASP MPI-rank0   121858. kBytes
=======================================================================

   base      :      30000. kBytes
   nonlr-proj:      31400. kBytes
   fftplans  :      15429. kBytes
   grid      :      21835. kBytes
   one-center:        419. kBytes
   wavefun   :      22775. kBytes
 
  
  
 General timing and accounting informations for this job:
 ========================================================
  
                  Total CPU time used (sec):      524.050
                            User time (sec):      522.943
                          System time (sec):        1.107
                         Elapsed time (sec):      524.275
  
                   Maximum memory used (kb):      174212.
                   Average memory used (kb):           0.
  
                          Minor page faults:       125570
                          Major page faults:            6
                 Voluntary context switches:          583
