<?xml version="1.0" encoding="ISO-8859-1"?>
<modeling>
 <generator>
  <i name="program" type="string">vasp </i>
  <i name="version" type="string">5.4.4.18Apr17-6-g9f103f2a35  </i>
  <i name="subversion" type="string">(build Aug 17 2017 06:00:38) complex            parallel </i>
  <i name="platform" type="string">LinuxIFC </i>
  <i name="date" type="string">2019 07 13 </i>
  <i name="time" type="string">00:29:15 </i>
 </generator>
 <incar>
  <i type="string" name="SYSTEM">Opt</i>
  <i type="int" name="ISTART">     0</i>
  <i type="string" name="PREC">normal</i>
  <i type="string" name="ALGO"> Fast</i>
  <i type="int" name="ISPIN">     1</i>
  <i type="int" name="ICHARG">     2</i>
  <i type="int" name="NELM">   400</i>
  <i type="int" name="IBRION">     2</i>
  <i name="EDIFF">      0.00000100</i>
  <i name="EDIFFG">     -0.01000000</i>
  <i type="int" name="NSW">   100</i>
  <i type="int" name="ISIF">     3</i>
  <i name="ENCUT">    400.00000000</i>
  <i type="int" name="NGX">    72</i>
  <i type="int" name="NGY">    72</i>
  <i type="int" name="NGZ">    72</i>
  <i name="POTIM">      0.50000000</i>
  <i type="string" name="LREAL">Auto</i>
  <i type="logical" name="LWAVE"> F  </i>
  <i type="logical" name="LCHARG"> F  </i>
  <v type="int" name="KPOINT_BSE">    -1     0     0     0</v>
  <i type="int" name="NELM">   400</i>
 </incar>
 <structure name="primitive_cell" >
  <crystal>
   <varray name="basis" >
    <v>       3.44492529       0.00000000       0.00000000 </v>
    <v>       0.00000000       3.44492529       0.00000000 </v>
    <v>       0.00000000       0.00000000       3.44492524 </v>
   </varray>
   <i name="volume">     40.88268566 </i>
   <varray name="rec_basis" >
    <v>       0.29028206       0.00000000       0.00000000 </v>
    <v>       0.00000000       0.29028206       0.00000000 </v>
    <v>       0.00000000       0.00000000       0.29028206 </v>
   </varray>
  </crystal>
  <varray name="positions" >
   <v>       0.00000000       0.00000000       0.00000000 </v>
   <v>       0.00000000      -0.49998976      -0.49998975 </v>
   <v>      -0.49998976       0.00000000      -0.49998975 </v>
   <v>      -0.49998976      -0.49998976       0.00000000 </v>
  </varray>
 </structure>
 <varray name="primitive_index" >
  <v type="int" >        1 </v>
  <v type="int" >        2 </v>
  <v type="int" >        3 </v>
  <v type="int" >        4 </v>
 </varray>
 <kpoints>
  <generation param="Monkhorst-Pack">
   <v type="int" name="divisions">       2        2        2 </v>
   <v name="usershift">      0.00000000       0.00000000       0.00000000 </v>
   <v name="genvec1">      0.50000000       0.00000000       0.00000000 </v>
   <v name="genvec2">      0.00000000       0.50000000       0.00000000 </v>
   <v name="genvec3">      0.00000000       0.00000000       0.50000000 </v>
   <v name="shift">      0.50000000       0.50000000       0.50000000 </v>
  </generation>
  <varray name="kpointlist" >
   <v>       0.25000000       0.25000000       0.25000000 </v>
  </varray>
  <varray name="weights" >
   <v>       1.00000000 </v>
  </varray>
 </kpoints>
 <parameters>
  <separator name="general" >
   <i type="string" name="SYSTEM">Opt</i>
   <i type="logical" name="LCOMPAT"> F  </i>
  </separator>
  <separator name="electronic" >
   <i type="string" name="PREC">normal</i>
   <i name="ENMAX">    400.00000000</i>
   <i name="ENAUG">    511.36800000</i>
   <i name="EDIFF">      0.00000100</i>
   <i type="int" name="IALGO">    68</i>
   <i type="int" name="IWAVPR">    11</i>
   <i type="int" name="NBANDS">   518</i>
   <i name="NELECT">    864.00000000</i>
   <i type="int" name="TURBO">     0</i>
   <i type="int" name="IRESTART">     0</i>
   <i type="int" name="NREBOOT">     0</i>
   <i type="int" name="NMIN">     0</i>
   <i name="EREF">      0.00000000</i>
   <separator name="electronic smearing" >
    <i type="int" name="ISMEAR">     1</i>
    <i name="SIGMA">      0.20000000</i>
    <i name="KSPACING">      0.50000000</i>
    <i type="logical" name="KGAMMA"> T  </i>
   </separator>
   <separator name="electronic projectors" >
    <i type="logical" name="LREAL"> T  </i>
    <v name="ROPT">     -0.00050000</v>
    <i type="int" name="LMAXPAW">  -100</i>
    <i type="int" name="LMAXMIX">     2</i>
    <i type="logical" name="NLSPLINE"> F  </i>
   </separator>
   <separator name="electronic startup" >
    <i type="int" name="ISTART">     0</i>
    <i type="int" name="ICHARG">     2</i>
    <i type="int" name="INIWAV">     1</i>
   </separator>
   <separator name="electronic spin" >
    <i type="int" name="ISPIN">     1</i>
    <i type="logical" name="LNONCOLLINEAR"> F  </i>
    <v name="MAGMOM">      1.00000000      1.00000000      1.00000000      1.00000000      1.00000000      1.00000000      1.00000000      1.00000000      1.00000000      1.00000000      1.00000000      1.00000000      1.00000000      1.00000000      1.00000000      1.00000000      1.00000000      1.00000000      1.00000000      1.00000000
      1.00000000      1.00000000      1.00000000      1.00000000      1.00000000      1.00000000      1.00000000      1.00000000      1.00000000      1.00000000      1.00000000      1.00000000      1.00000000      1.00000000      1.00000000      1.00000000      1.00000000      1.00000000      1.00000000      1.00000000
      1.00000000      1.00000000      1.00000000      1.00000000      1.00000000      1.00000000      1.00000000      1.00000000      1.00000000      1.00000000      1.00000000      1.00000000      1.00000000      1.00000000      1.00000000      1.00000000      1.00000000      1.00000000      1.00000000      1.00000000
      1.00000000      1.00000000      1.00000000      1.00000000      1.00000000      1.00000000      1.00000000      1.00000000      1.00000000      1.00000000      1.00000000      1.00000000      1.00000000      1.00000000      1.00000000      1.00000000      1.00000000      1.00000000      1.00000000      1.00000000
      1.00000000      1.00000000      1.00000000      1.00000000      1.00000000      1.00000000      1.00000000      1.00000000      1.00000000      1.00000000      1.00000000      1.00000000      1.00000000      1.00000000      1.00000000      1.00000000      1.00000000      1.00000000      1.00000000      1.00000000
      1.00000000      1.00000000      1.00000000      1.00000000      1.00000000      1.00000000      1.00000000      1.00000000</v>
    <i name="NUPDOWN">     -1.00000000</i>
    <i type="logical" name="LSORBIT"> F  </i>
    <v name="SAXIS">      0.00000000      0.00000000      1.00000000</v>
    <i type="logical" name="LSPIRAL"> F  </i>
    <v name="QSPIRAL">      0.00000000      0.00000000      0.00000000</v>
    <i type="logical" name="LZEROZ"> F  </i>
   </separator>
   <separator name="electronic exchange-correlation" >
    <i type="logical" name="LASPH"> F  </i>
    <i type="logical" name="LMETAGGA"> F  </i>
   </separator>
   <separator name="electronic convergence" >
    <i type="int" name="NELM">   400</i>
    <i type="int" name="NELMDL">    -5</i>
    <i type="int" name="NELMIN">     2</i>
    <i name="ENINI">    400.00000000</i>
    <separator name="electronic convergence detail" >
     <i type="logical" name="LDIAG"> T  </i>
     <i type="logical" name="LSUBROT"> F  </i>
     <i name="WEIMIN">      0.00100000</i>
     <i name="EBREAK">      0.00000000</i>
     <i name="DEPER">      0.30000000</i>
     <i type="int" name="NRMM">     4</i>
     <i name="TIME">      0.40000000</i>
    </separator>
   </separator>
   <separator name="electronic mixer" >
    <i name="AMIX">      0.40000000</i>
    <i name="BMIX">      1.00000000</i>
    <i name="AMIN">      0.10000000</i>
    <i name="AMIX_MAG">      1.60000000</i>
    <i name="BMIX_MAG">      1.00000000</i>
    <separator name="electronic mixer details" >
     <i type="int" name="IMIX">     4</i>
     <i type="logical" name="MIXFIRST"> F  </i>
     <i type="int" name="MAXMIX">   -45</i>
     <i name="WC">    100.00000000</i>
     <i type="int" name="INIMIX">     1</i>
     <i type="int" name="MIXPRE">     1</i>
     <i type="int" name="MREMOVE">     5</i>
    </separator>
   </separator>
   <separator name="electronic dipolcorrection" >
    <i type="logical" name="LDIPOL"> F  </i>
    <i type="logical" name="LMONO"> F  </i>
    <i type="int" name="IDIPOL">     0</i>
    <i name="EPSILON">      1.00000000</i>
    <v name="DIPOL">   -100.00000000   -100.00000000   -100.00000000</v>
    <i name="EFIELD">      0.00000000</i>
   </separator>
  </separator>
  <separator name="grids" >
   <i type="int" name="NGX">    72</i>
   <i type="int" name="NGY">    72</i>
   <i type="int" name="NGZ">    72</i>
   <i type="int" name="NGXF">   144</i>
   <i type="int" name="NGYF">   144</i>
   <i type="int" name="NGZF">   144</i>
   <i type="logical" name="ADDGRID"> F  </i>
  </separator>
  <separator name="ionic" >
   <i type="int" name="NSW">   100</i>
   <i type="int" name="IBRION">     2</i>
   <i type="int" name="MDALGO">     0</i>
   <i type="int" name="ISIF">     3</i>
   <i name="PSTRESS">      0.00000000</i>
   <i name="EDIFFG">     -0.01000000</i>
   <i type="int" name="NFREE">     1</i>
   <i name="POTIM">      0.50000000</i>
   <i name="SMASS">     -3.00000000</i>
   <i name="SCALEE">      1.00000000</i>
  </separator>
  <separator name="ionic md" >
   <i name="TEBEG">      0.00010000</i>
   <i name="TEEND">      0.00010000</i>
   <i type="int" name="NBLOCK">     1</i>
   <i type="int" name="KBLOCK">   100</i>
   <i type="int" name="NPACO">   256</i>
   <i name="APACO">     16.00000000</i>
  </separator>
  <separator name="symmetry" >
   <i type="int" name="ISYM">     2</i>
   <i name="SYMPREC">      0.00001000</i>
  </separator>
  <separator name="dos" >
   <i type="int" name="LORBIT">     0</i>
   <v name="RWIGS">     -1.00000000</v>
   <i type="int" name="NEDOS">   301</i>
   <i name="EMIN">     10.00000000</i>
   <i name="EMAX">    -10.00000000</i>
   <i name="EFERMI">      0.00000000</i>
  </separator>
  <separator name="writing" >
   <i type="int" name="NWRITE">     2</i>
   <i type="logical" name="LWAVE"> F  </i>
   <i type="logical" name="LDOWNSAMPLE"> F  </i>
   <i type="logical" name="LCHARG"> F  </i>
   <i type="logical" name="LPARD"> F  </i>
   <i type="logical" name="LVTOT"> F  </i>
   <i type="logical" name="LVHAR"> F  </i>
   <i type="logical" name="LELF"> F  </i>
   <i type="logical" name="LOPTICS"> F  </i>
   <v name="STM">      0.00000000      0.00000000      0.00000000      0.00000000      0.00000000      0.00000000      0.00000000</v>
  </separator>
  <separator name="performance" >
   <i type="int" name="NPAR">     2</i>
   <i type="int" name="NSIM">     4</i>
   <i type="int" name="NBLK">    -1</i>
   <i type="logical" name="LPLANE"> T  </i>
   <i type="logical" name="LSCALAPACK"> T  </i>
   <i type="logical" name="LSCAAWARE"> F  </i>
   <i type="logical" name="LSCALU"> F  </i>
   <i type="logical" name="LASYNC"> F  </i>
   <i type="logical" name="LORBITALREAL"> F  </i>
  </separator>
  <separator name="miscellaneous" >
   <i type="int" name="IDIOT">     3</i>
   <i type="int" name="ISPECIAL">     0</i>
   <i type="logical" name="LMUSIC"> F  </i>
   <v name="POMASS">     55.84700000</v>
   <v name="DARWINR">      0.00000000</v>
   <v name="DARWINV">      1.00000000</v>
   <i type="logical" name="LCORR"> T  </i>
  </separator>
  <i type="logical" name="GGA_COMPAT"> T  </i>
  <i type="logical" name="LBERRY"> F  </i>
  <i type="int" name="ICORELEVEL">     0</i>
  <i type="logical" name="LDAU"> F  </i>
  <i type="int" name="I_CONSTRAINED_M">     0</i>
  <separator name="electronic exchange-correlation" >
   <i type="string" name="GGA">--</i>
   <i type="int" name="VOSKOWN">     0</i>
   <i type="logical" name="LHFCALC"> F  </i>
   <i type="string" name="PRECFOCK"></i>
   <i type="logical" name="LSYMGRAD"> F  </i>
   <i type="logical" name="LHFONE"> F  </i>
   <i type="logical" name="LRHFCALC"> F  </i>
   <i type="logical" name="LTHOMAS"> F  </i>
   <i type="logical" name="LMODELHF"> F  </i>
   <i name="ENCUT4O">     -1.00000000</i>
   <i type="int" name="EXXOEP">     0</i>
   <i type="int" name="FOURORBIT">     0</i>
   <i name="AEXX">      0.00000000</i>
   <i name="HFALPHA">      0.00000000</i>
   <i name="MCALPHA">      0.00000000</i>
   <i name="ALDAX">      1.00000000</i>
   <i name="AGGAX">      1.00000000</i>
   <i name="ALDAC">      1.00000000</i>
   <i name="AGGAC">      1.00000000</i>
   <i type="int" name="NKREDX">     1</i>
   <i type="int" name="NKREDY">     1</i>
   <i type="int" name="NKREDZ">     1</i>
   <i type="logical" name="SHIFTRED"> F  </i>
   <i type="logical" name="ODDONLY"> F  </i>
   <i type="logical" name="EVENONLY"> F  </i>
   <i type="int" name="LMAXFOCK">     0</i>
   <i type="int" name="NMAXFOCKAE">     0</i>
   <i type="logical" name="LFOCKAEDFT"> F  </i>
   <i name="HFSCREEN">      0.00000000</i>
   <i name="HFSCREENC">      0.00000000</i>
   <i type="int" name="NBANDSGWLOW">     0</i>
  </separator>
  <separator name="vdW DFT" >
   <i type="logical" name="LUSE_VDW"> F  </i>
   <i name="Zab_VDW">     -0.84910000</i>
   <i name="PARAM1">      0.12340000</i>
   <i name="PARAM2">      1.00000000</i>
   <i name="PARAM3">      0.00000000</i>
  </separator>
  <separator name="model GW" >
   <i type="int" name="MODEL_GW">     0</i>
   <i name="MODEL_EPS0">      6.13252964</i>
   <i name="MODEL_ALPHA">      1.00000000</i>
  </separator>
  <separator name="linear response parameters" >
   <i type="logical" name="LEPSILON"> F  </i>
   <i type="logical" name="LRPA"> F  </i>
   <i type="logical" name="LNABLA"> F  </i>
   <i type="logical" name="LVEL"> F  </i>
   <i type="int" name="KINTER">     0</i>
   <i name="CSHIFT">      0.10000000</i>
   <i name="OMEGAMAX">     -1.00000000</i>
   <i name="DEG_THRESHOLD">      0.00200000</i>
   <i name="RTIME">     -0.10000000</i>
   <i name="WPLASMAI">      0.00000000</i>
   <v name="DFIELD">      0.00000000      0.00000000      0.00000000</v>
   <v name="WPLASMA">      0.00000000      0.00000000      0.00000000      0.00000000      0.00000000      0.00000000      0.00000000      0.00000000      0.00000000</v>
  </separator>
  <separator name="orbital magnetization" >
   <i type="logical" name="NUCIND"> F  </i>
   <v name="MAGPOS">      0.00000000      0.00000000      0.00000000</v>
   <i type="logical" name="LNICSALL"> T  </i>
   <i type="logical" name="ORBITALMAG"> F  </i>
   <i type="logical" name="LMAGBLOCH"> F  </i>
   <i type="logical" name="LCHIMAG"> F  </i>
   <i type="logical" name="LGAUGE"> T  </i>
   <i type="int" name="MAGATOM">     0</i>
   <v name="MAGDIPOL">      0.00000000      0.00000000      0.00000000</v>
   <v name="AVECCONST">      0.00000000      0.00000000      0.00000000</v>
  </separator>
  <separator name="response functions" >
   <i type="logical" name="LADDER"> F  </i>
   <i type="logical" name="LRPAFORCE"> F  </i>
   <i type="logical" name="LFXC"> F  </i>
   <i type="logical" name="LHARTREE"> T  </i>
   <i type="int" name="IBSE">     0</i>
   <v type="int" name="KPOINT">    -1     0     0     0</v>
   <i type="logical" name="LTCTE"> F  </i>
   <i type="logical" name="LTETE"> F  </i>
   <i type="logical" name="LTRIPLET"> F  </i>
   <i type="logical" name="LFXCEPS"> F  </i>
   <i type="logical" name="LFXHEG"> F  </i>
   <i type="int" name="NATURALO">     2</i>
   <i type="logical" name="L2ORDER"> F  </i>
   <i type="logical" name="LMP2LT"> F  </i>
   <i type="logical" name="LUSEW"> F  </i>
   <i name="ENCUTGW">     -2.00000000</i>
   <i name="ENCUTGWSOFT">     -2.00000000</i>
   <i name="ENCUTLF">     -1.00000000</i>
   <i type="int" name="LMAXMP2">    -1</i>
   <i name="SCISSOR">      0.00000000</i>
   <i type="int" name="NOMEGA">     0</i>
   <i type="int" name="NOMEGAR">     0</i>
   <i type="int" name="NBANDSGW">    -1</i>
   <i type="int" name="NBANDSO">    -1</i>
   <i type="int" name="NBANDSV">    -1</i>
   <i type="int" name="NELM">   400</i>
   <i type="int" name="NELMHF">     1</i>
   <i type="int" name="DIM">     3</i>
   <i type="int" name="ANTIRES">     0</i>
   <i name="OMEGAMAX">    -30.00000000</i>
   <i name="OMEGAMIN">    -30.00000000</i>
   <i name="OMEGATL">   -200.00000000</i>
   <i type="int" name="OMEGAGRID">   140</i>
   <i name="CSHIFT">     -0.10000000</i>
   <i type="logical" name="SELFENERGY"> F  </i>
   <i type="logical" name="LSPECTRAL"> F  </i>
   <i type="logical" name="LSPECTRALGW"> F  </i>
   <i type="logical" name="LSINGLES"> F  </i>
   <i type="logical" name="LFERMIGW"> F  </i>
   <i type="logical" name="ODDONLYGW"> F  </i>
   <i type="logical" name="EVENONLYGW"> F  </i>
   <i type="int" name="NKREDLFX">     1</i>
   <i type="int" name="NKREDLFY">     1</i>
   <i type="int" name="NKREDLFZ">     1</i>
   <i type="int" name="MAXMEM">  2800</i>
   <i type="int" name="TELESCOPE">     0</i>
   <i type="int" name="TAUPAR">     1</i>
   <i type="int" name="OMEGAPAR">    -1</i>
   <i name="LAMBDA">      1.00000000</i>
  </separator>
  <separator name="External order field" >
   <i name="OFIELD_KAPPA">      0.00000000</i>
   <v name="OFIELD_K">      0.00000000      0.00000000      0.00000000</v>
   <i name="OFIELD_Q6_NEAR">      0.00000000</i>
   <i name="OFIELD_Q6_FAR">      0.00000000</i>
   <i name="OFIELD_A">      0.00000000</i>
  </separator>
 </parameters>
 <atominfo>
  <atoms>     108 </atoms>
  <types>       1 </types>
  <array name="atoms" >
   <dimension dim="1">ion</dimension>
   <field type="string">element</field>
   <field type="int">atomtype</field>
   <set>
    <rc><c>Fe</c><c>   1</c></rc>
    <rc><c>Fe</c><c>   1</c></rc>
    <rc><c>Fe</c><c>   1</c></rc>
    <rc><c>Fe</c><c>   1</c></rc>
    <rc><c>Fe</c><c>   1</c></rc>
    <rc><c>Fe</c><c>   1</c></rc>
    <rc><c>Fe</c><c>   1</c></rc>
    <rc><c>Fe</c><c>   1</c></rc>
    <rc><c>Fe</c><c>   1</c></rc>
    <rc><c>Fe</c><c>   1</c></rc>
    <rc><c>Fe</c><c>   1</c></rc>
    <rc><c>Fe</c><c>   1</c></rc>
    <rc><c>Fe</c><c>   1</c></rc>
    <rc><c>Fe</c><c>   1</c></rc>
    <rc><c>Fe</c><c>   1</c></rc>
    <rc><c>Fe</c><c>   1</c></rc>
    <rc><c>Fe</c><c>   1</c></rc>
    <rc><c>Fe</c><c>   1</c></rc>
    <rc><c>Fe</c><c>   1</c></rc>
    <rc><c>Fe</c><c>   1</c></rc>
    <rc><c>Fe</c><c>   1</c></rc>
    <rc><c>Fe</c><c>   1</c></rc>
    <rc><c>Fe</c><c>   1</c></rc>
    <rc><c>Fe</c><c>   1</c></rc>
    <rc><c>Fe</c><c>   1</c></rc>
    <rc><c>Fe</c><c>   1</c></rc>
    <rc><c>Fe</c><c>   1</c></rc>
    <rc><c>Fe</c><c>   1</c></rc>
    <rc><c>Fe</c><c>   1</c></rc>
    <rc><c>Fe</c><c>   1</c></rc>
    <rc><c>Fe</c><c>   1</c></rc>
    <rc><c>Fe</c><c>   1</c></rc>
    <rc><c>Fe</c><c>   1</c></rc>
    <rc><c>Fe</c><c>   1</c></rc>
    <rc><c>Fe</c><c>   1</c></rc>
    <rc><c>Fe</c><c>   1</c></rc>
    <rc><c>Fe</c><c>   1</c></rc>
    <rc><c>Fe</c><c>   1</c></rc>
    <rc><c>Fe</c><c>   1</c></rc>
    <rc><c>Fe</c><c>   1</c></rc>
    <rc><c>Fe</c><c>   1</c></rc>
    <rc><c>Fe</c><c>   1</c></rc>
    <rc><c>Fe</c><c>   1</c></rc>
    <rc><c>Fe</c><c>   1</c></rc>
    <rc><c>Fe</c><c>   1</c></rc>
    <rc><c>Fe</c><c>   1</c></rc>
    <rc><c>Fe</c><c>   1</c></rc>
    <rc><c>Fe</c><c>   1</c></rc>
    <rc><c>Fe</c><c>   1</c></rc>
    <rc><c>Fe</c><c>   1</c></rc>
    <rc><c>Fe</c><c>   1</c></rc>
    <rc><c>Fe</c><c>   1</c></rc>
    <rc><c>Fe</c><c>   1</c></rc>
    <rc><c>Fe</c><c>   1</c></rc>
    <rc><c>Fe</c><c>   1</c></rc>
    <rc><c>Fe</c><c>   1</c></rc>
    <rc><c>Fe</c><c>   1</c></rc>
    <rc><c>Fe</c><c>   1</c></rc>
    <rc><c>Fe</c><c>   1</c></rc>
    <rc><c>Fe</c><c>   1</c></rc>
    <rc><c>Fe</c><c>   1</c></rc>
    <rc><c>Fe</c><c>   1</c></rc>
    <rc><c>Fe</c><c>   1</c></rc>
    <rc><c>Fe</c><c>   1</c></rc>
    <rc><c>Fe</c><c>   1</c></rc>
    <rc><c>Fe</c><c>   1</c></rc>
    <rc><c>Fe</c><c>   1</c></rc>
    <rc><c>Fe</c><c>   1</c></rc>
    <rc><c>Fe</c><c>   1</c></rc>
    <rc><c>Fe</c><c>   1</c></rc>
    <rc><c>Fe</c><c>   1</c></rc>
    <rc><c>Fe</c><c>   1</c></rc>
    <rc><c>Fe</c><c>   1</c></rc>
    <rc><c>Fe</c><c>   1</c></rc>
    <rc><c>Fe</c><c>   1</c></rc>
    <rc><c>Fe</c><c>   1</c></rc>
    <rc><c>Fe</c><c>   1</c></rc>
    <rc><c>Fe</c><c>   1</c></rc>
    <rc><c>Fe</c><c>   1</c></rc>
    <rc><c>Fe</c><c>   1</c></rc>
    <rc><c>Fe</c><c>   1</c></rc>
    <rc><c>Fe</c><c>   1</c></rc>
    <rc><c>Fe</c><c>   1</c></rc>
    <rc><c>Fe</c><c>   1</c></rc>
    <rc><c>Fe</c><c>   1</c></rc>
    <rc><c>Fe</c><c>   1</c></rc>
    <rc><c>Fe</c><c>   1</c></rc>
    <rc><c>Fe</c><c>   1</c></rc>
    <rc><c>Fe</c><c>   1</c></rc>
    <rc><c>Fe</c><c>   1</c></rc>
    <rc><c>Fe</c><c>   1</c></rc>
    <rc><c>Fe</c><c>   1</c></rc>
    <rc><c>Fe</c><c>   1</c></rc>
    <rc><c>Fe</c><c>   1</c></rc>
    <rc><c>Fe</c><c>   1</c></rc>
    <rc><c>Fe</c><c>   1</c></rc>
    <rc><c>Fe</c><c>   1</c></rc>
    <rc><c>Fe</c><c>   1</c></rc>
    <rc><c>Fe</c><c>   1</c></rc>
    <rc><c>Fe</c><c>   1</c></rc>
    <rc><c>Fe</c><c>   1</c></rc>
    <rc><c>Fe</c><c>   1</c></rc>
    <rc><c>Fe</c><c>   1</c></rc>
    <rc><c>Fe</c><c>   1</c></rc>
    <rc><c>Fe</c><c>   1</c></rc>
    <rc><c>Fe</c><c>   1</c></rc>
    <rc><c>Fe</c><c>   1</c></rc>
    <rc><c>Fe</c><c>   1</c></rc>
   </set>
  </array>
  <array name="atomtypes" >
   <dimension dim="1">type</dimension>
   <field type="int">atomspertype</field>
   <field type="string">element</field>
   <field>mass</field>
   <field>valence</field>
   <field type="string">pseudopotential</field>
   <set>
    <rc><c> 108</c><c>Fe</c><c>     55.84700000</c><c>      8.00000000</c><c> PAW_PBE Fe 06Sep2000                   </c></rc>
   </set>
  </array>
 </atominfo>
 <structure name="initialpos" >
  <crystal>
   <varray name="basis" >
    <v>      10.33484705       0.00000000       0.00000000 </v>
    <v>       0.00000000      10.33484705       0.00000000 </v>
    <v>       0.00000000       0.00000000      10.33484705 </v>
   </varray>
   <i name="volume">   1103.85533447 </i>
   <varray name="rec_basis" >
    <v>       0.09676002       0.00000000       0.00000000 </v>
    <v>       0.00000000       0.09676002       0.00000000 </v>
    <v>       0.00000000       0.00000000       0.09676002 </v>
   </varray>
  </crystal>
  <varray name="positions" >
   <v>       0.00000000       0.00000000       0.00000000 </v>
   <v>       0.00000000       0.16666893       0.16666893 </v>
   <v>       0.16666893       0.00000000       0.16666893 </v>
   <v>       0.16666893       0.16666893       0.00000000 </v>
   <v>       0.33333106       0.00000000       0.00000000 </v>
   <v>       0.33333107       0.16666893       0.16666893 </v>
   <v>       0.50000000       0.00000000       0.16666894 </v>
   <v>       0.50000000       0.16666894       0.00000000 </v>
   <v>       0.66666897       0.00000000       0.00000000 </v>
   <v>       0.66666896       0.16666893       0.16666893 </v>
   <v>       0.83333104       0.00000000       0.16666893 </v>
   <v>       0.83333104       0.16666893       0.00000000 </v>
   <v>       0.00000000       0.33333106       0.00000000 </v>
   <v>       0.00000000       0.50000000       0.16666894 </v>
   <v>       0.16666893       0.33333107       0.16666893 </v>
   <v>       0.16666894       0.50000000       0.00000000 </v>
   <v>       0.33333107       0.33333107       0.00000000 </v>
   <v>       0.33333107       0.50000000       0.16666893 </v>
   <v>       0.50000000       0.33333107       0.16666893 </v>
   <v>       0.50000000       0.50000000       0.00000000 </v>
   <v>       0.66666896       0.33333107       0.00000000 </v>
   <v>       0.66666896       0.50000000       0.16666893 </v>
   <v>       0.83333104       0.33333107       0.16666893 </v>
   <v>       0.83333103       0.50000000       0.00000000 </v>
   <v>       0.00000000       0.66666897       0.00000000 </v>
   <v>       0.00000000       0.83333104       0.16666893 </v>
   <v>       0.16666893       0.66666896       0.16666893 </v>
   <v>       0.16666893       0.83333104       0.00000000 </v>
   <v>       0.33333107       0.66666896       0.00000000 </v>
   <v>       0.33333107       0.83333104       0.16666893 </v>
   <v>       0.50000000       0.66666896       0.16666893 </v>
   <v>       0.50000000       0.83333103       0.00000000 </v>
   <v>       0.66666896       0.66666896       0.00000000 </v>
   <v>       0.66666896       0.83333104       0.16666893 </v>
   <v>       0.83333104       0.66666896       0.16666893 </v>
   <v>       0.83333104       0.83333104       0.00000000 </v>
   <v>       0.00000000       0.00000000       0.33333106 </v>
   <v>       0.00000000       0.16666894       0.50000000 </v>
   <v>       0.16666894       0.00000000       0.50000000 </v>
   <v>       0.16666893       0.16666893       0.33333107 </v>
   <v>       0.33333107       0.00000000       0.33333107 </v>
   <v>       0.33333107       0.16666893       0.50000000 </v>
   <v>       0.50000000       0.00000000       0.50000000 </v>
   <v>       0.50000000       0.16666893       0.33333107 </v>
   <v>       0.66666896       0.00000000       0.33333107 </v>
   <v>       0.66666896       0.16666893       0.50000000 </v>
   <v>       0.83333103       0.00000000       0.50000000 </v>
   <v>       0.83333104       0.16666893       0.33333107 </v>
   <v>       0.00000000       0.33333107       0.33333107 </v>
   <v>       0.00000000       0.50000000       0.50000000 </v>
   <v>       0.16666893       0.33333107       0.50000000 </v>
   <v>       0.16666893       0.50000000       0.33333107 </v>
   <v>       0.33333107       0.33333107       0.33333107 </v>
   <v>       0.33333106       0.50000000       0.50000000 </v>
   <v>       0.50000000       0.33333106       0.50000000 </v>
   <v>       0.50000000       0.50000000       0.33333106 </v>
   <v>       0.66666896       0.33333107       0.33333107 </v>
   <v>       0.66666897       0.50000000       0.50000000 </v>
   <v>       0.83333104       0.33333107       0.50000000 </v>
   <v>       0.83333104       0.50000000       0.33333107 </v>
   <v>       0.00000000       0.66666896       0.33333107 </v>
   <v>       0.00000000       0.83333103       0.50000000 </v>
   <v>       0.16666893       0.66666896       0.50000000 </v>
   <v>       0.16666893       0.83333104       0.33333107 </v>
   <v>       0.33333107       0.66666896       0.33333107 </v>
   <v>       0.33333107       0.83333104       0.50000000 </v>
   <v>       0.50000000       0.66666897       0.50000000 </v>
   <v>       0.50000000       0.83333104       0.33333107 </v>
   <v>       0.66666896       0.66666896       0.33333107 </v>
   <v>       0.66666896       0.83333104       0.50000000 </v>
   <v>       0.83333104       0.66666896       0.50000000 </v>
   <v>       0.83333104       0.83333104       0.33333107 </v>
   <v>       0.00000000       0.00000000       0.66666897 </v>
   <v>       0.00000000       0.16666893       0.83333104 </v>
   <v>       0.16666893       0.00000000       0.83333104 </v>
   <v>       0.16666893       0.16666893       0.66666896 </v>
   <v>       0.33333107       0.00000000       0.66666896 </v>
   <v>       0.33333107       0.16666893       0.83333104 </v>
   <v>       0.50000000       0.00000000       0.83333103 </v>
   <v>       0.50000000       0.16666893       0.66666896 </v>
   <v>       0.66666896       0.00000000       0.66666896 </v>
   <v>       0.66666896       0.16666893       0.83333104 </v>
   <v>       0.83333104       0.00000000       0.83333104 </v>
   <v>       0.83333104       0.16666893       0.66666896 </v>
   <v>       0.00000000       0.33333107       0.66666896 </v>
   <v>       0.00000000       0.50000000       0.83333103 </v>
   <v>       0.16666893       0.33333107       0.83333104 </v>
   <v>       0.16666893       0.50000000       0.66666896 </v>
   <v>       0.33333107       0.33333107       0.66666896 </v>
   <v>       0.33333107       0.50000000       0.83333104 </v>
   <v>       0.50000000       0.33333107       0.83333104 </v>
   <v>       0.50000000       0.50000000       0.66666897 </v>
   <v>       0.66666896       0.33333107       0.66666896 </v>
   <v>       0.66666896       0.50000000       0.83333104 </v>
   <v>       0.83333104       0.33333107       0.83333104 </v>
   <v>       0.83333104       0.50000000       0.66666896 </v>
   <v>       0.00000000       0.66666896       0.66666896 </v>
   <v>       0.00000000       0.83333104       0.83333104 </v>
   <v>       0.16666893       0.66666896       0.83333104 </v>
   <v>       0.16666893       0.83333104       0.66666896 </v>
   <v>       0.33333107       0.66666896       0.66666896 </v>
   <v>       0.33333107       0.83333104       0.83333104 </v>
   <v>       0.50000000       0.66666896       0.83333104 </v>
   <v>       0.50000000       0.83333104       0.66666896 </v>
   <v>       0.66666896       0.66666896       0.66666896 </v>
   <v>       0.66666896       0.83333104       0.83333104 </v>
   <v>       0.83333104       0.66666896       0.83333104 </v>
   <v>       0.83333104       0.83333104       0.66666896 </v>
  </varray>
 </structure>
 <calculation>
  <scstep>
   <time name="dav">   16.27   16.29</time>
   <time name="total">   16.86   16.88</time>
   <energy>
    <i name="alphaZ">   7300.31925852 </i>
    <i name="ewald"> -66232.83996889 </i>
    <i name="hartreedc"> -11197.02572337 </i>
    <i name="XCdc">    446.63038354 </i>
    <i name="pawpsdc">  51723.88885462 </i>
    <i name="pawaedc"> -52548.28121372 </i>
    <i name="eentropy">     -0.00464062 </i>
    <i name="bandstr">  13916.17508959 </i>
    <i name="atom">  64201.67088057 </i>
    <i name="e_fr_energy">   7610.53292025 </i>
    <i name="e_wo_entrp">   7610.53756087 </i>
    <i name="e_0_energy">   7610.53446712 </i>
   </energy>
  </scstep>
  <scstep>
   <time name="dav">   12.24   12.24</time>
   <time name="total">   12.24   12.24</time>
   <energy>
    <i name="e_fr_energy">    -21.85912799 </i>
    <i name="e_wo_entrp">    -21.78955794 </i>
    <i name="e_0_energy">    -21.83593798 </i>
   </energy>
  </scstep>
  <scstep>
   <time name="dav">    9.85    9.86</time>
   <time name="total">    9.86    9.86</time>
   <energy>
    <i name="e_fr_energy">   -852.73149323 </i>
    <i name="e_wo_entrp">   -852.67944156 </i>
    <i name="e_0_energy">   -852.71414267 </i>
   </energy>
  </scstep>
  <scstep>
   <time name="dav">   15.94   15.94</time>
   <time name="total">   15.94   15.94</time>
   <energy>
    <i name="e_fr_energy">  -1030.16860505 </i>
    <i name="e_wo_entrp">  -1030.59038602 </i>
    <i name="e_0_energy">  -1030.30919871 </i>
   </energy>
  </scstep>
  <scstep>
   <time name="dav">   14.15   14.15</time>
   <time name="total">   14.91   14.91</time>
   <energy>
    <i name="e_fr_energy">  -1045.84964268 </i>
    <i name="e_wo_entrp">  -1046.44330256 </i>
    <i name="e_0_energy">  -1046.04752931 </i>
   </energy>
  </scstep>
  <scstep>
   <time name="diag">    1.22    1.22</time>
   <time name="diis">    5.95    5.95</time>
   <time name="orth">    0.26    0.26</time>
   <time name="total">    8.49    8.49</time>
   <energy>
    <i name="e_fr_energy">   -878.50229566 </i>
    <i name="e_wo_entrp">   -878.81297292 </i>
    <i name="e_0_energy">   -878.60585474 </i>
   </energy>
  </scstep>
  <scstep>
   <time name="diag">    1.22    1.22</time>
   <time name="diis">    6.42    6.42</time>
   <time name="orth">    0.26    0.26</time>
   <time name="total">    8.99    8.99</time>
   <energy>
    <i name="e_fr_energy">   -881.67518993 </i>
    <i name="e_wo_entrp">   -882.21355329 </i>
    <i name="e_0_energy">   -881.85464439 </i>
   </energy>
  </scstep>
  <scstep>
   <time name="diag">    1.14    1.14</time>
   <time name="diis">    6.85    6.85</time>
   <time name="orth">    0.25    0.25</time>
   <time name="total">    9.31    9.31</time>
   <energy>
    <i name="e_fr_energy">   -883.74077903 </i>
    <i name="e_wo_entrp">   -884.16329218 </i>
    <i name="e_0_energy">   -883.88161675 </i>
   </energy>
  </scstep>
  <scstep>
   <time name="diag">    1.22    1.22</time>
   <time name="diis">    6.04    6.04</time>
   <time name="orth">    0.26    0.26</time>
   <time name="total">    8.62    8.62</time>
   <energy>
    <i name="e_fr_energy">   -880.75411302 </i>
    <i name="e_wo_entrp">   -881.28819223 </i>
    <i name="e_0_energy">   -880.93213942 </i>
   </energy>
  </scstep>
  <scstep>
   <time name="diag">    1.12    1.12</time>
   <time name="diis">    8.46    8.46</time>
   <time name="orth">    0.23    0.23</time>
   <time name="total">   10.87   10.87</time>
   <energy>
    <i name="e_fr_energy">   -880.73128972 </i>
    <i name="e_wo_entrp">   -881.28342148 </i>
    <i name="e_0_energy">   -880.91533364 </i>
   </energy>
  </scstep>
  <scstep>
   <time name="diag">    1.22    1.22</time>
   <time name="diis">    7.28    7.28</time>
   <time name="orth">    0.25    0.25</time>
   <time name="total">    9.84    9.84</time>
   <energy>
    <i name="e_fr_energy">   -880.72015958 </i>
    <i name="e_wo_entrp">   -881.27826909 </i>
    <i name="e_0_energy">   -880.90619609 </i>
   </energy>
  </scstep>
  <scstep>
   <time name="diag">    1.19    1.19</time>
   <time name="diis">    8.29    8.29</time>
   <time name="orth">    0.23    0.23</time>
   <time name="total">   10.78   10.78</time>
   <energy>
    <i name="e_fr_energy">   -880.72600276 </i>
    <i name="e_wo_entrp">   -881.28615739 </i>
    <i name="e_0_energy">   -880.91272097 </i>
   </energy>
  </scstep>
  <scstep>
   <time name="diag">    1.22    1.22</time>
   <time name="diis">    6.50    6.50</time>
   <time name="orth">    0.26    0.26</time>
   <time name="total">    9.07    9.07</time>
   <energy>
    <i name="e_fr_energy">   -880.72458499 </i>
    <i name="e_wo_entrp">   -881.28410052 </i>
    <i name="e_0_energy">   -880.91109017 </i>
   </energy>
  </scstep>
  <scstep>
   <time name="diag">    1.21    1.21</time>
   <time name="diis">    7.66    7.66</time>
   <time name="orth">    0.26    0.26</time>
   <time name="total">   10.22   10.22</time>
   <energy>
    <i name="e_fr_energy">   -880.72477002 </i>
    <i name="e_wo_entrp">   -881.28453270 </i>
    <i name="e_0_energy">   -880.91135758 </i>
   </energy>
  </scstep>
  <scstep>
   <time name="diag">    1.18    1.18</time>
   <time name="diis">    7.01    7.01</time>
   <time name="orth">    0.26    0.26</time>
   <time name="total">    9.53    9.53</time>
   <energy>
    <i name="e_fr_energy">   -880.72476134 </i>
    <i name="e_wo_entrp">   -881.28478400 </i>
    <i name="e_0_energy">   -880.91143556 </i>
   </energy>
  </scstep>
  <scstep>
   <time name="diag">    1.11    1.11</time>
   <time name="diis">    8.20    8.20</time>
   <time name="orth">    0.26    0.26</time>
   <time name="total">   10.67   10.67</time>
   <energy>
    <i name="e_fr_energy">   -880.72476057 </i>
    <i name="e_wo_entrp">   -881.28489312 </i>
    <i name="e_0_energy">   -880.91147142 </i>
   </energy>
  </scstep>
  <scstep>
   <time name="diag">    1.16    1.16</time>
   <time name="diis">    5.15    5.15</time>
   <time name="orth">    0.26    0.26</time>
   <time name="total">    7.66    7.66</time>
   <energy>
    <i name="e_fr_energy">   -880.72476062 </i>
    <i name="e_wo_entrp">   -881.28496228 </i>
    <i name="e_0_energy">   -880.91149450 </i>
   </energy>
  </scstep>
  <scstep>
   <time name="diag">    1.25    1.25</time>
   <time name="diis">    4.12    4.12</time>
   <time name="orth">    0.25    0.25</time>
   <time name="total">    6.75    6.76</time>
   <energy>
    <i name="e_fr_energy">   -880.72475520 </i>
    <i name="e_wo_entrp">   -881.28498492 </i>
    <i name="e_0_energy">   -880.91149844 </i>
   </energy>
  </scstep>
  <scstep>
   <time name="diag">    1.24    1.24</time>
   <time name="diis">    3.89    3.89</time>
   <time name="orth">    0.25    0.25</time>
   <time name="total">    6.49    6.49</time>
   <energy>
    <i name="e_fr_energy">   -880.72475306 </i>
    <i name="e_wo_entrp">   -881.28502293 </i>
    <i name="e_0_energy">   -880.91150969 </i>
   </energy>
  </scstep>
  <scstep>
   <time name="diag">    1.24    1.24</time>
   <time name="diis">    3.88    3.88</time>
   <time name="orth">    0.25    0.25</time>
   <time name="total">    6.48    6.48</time>
   <energy>
    <i name="e_fr_energy">   -880.72475026 </i>
    <i name="e_wo_entrp">   -881.28504640 </i>
    <i name="e_0_energy">   -880.91151564 </i>
   </energy>
  </scstep>
  <scstep>
   <time name="diag">    1.24    1.24</time>
   <time name="diis">    3.74    3.74</time>
   <time name="orth">    0.23    0.23</time>
   <time name="total">    6.30    6.30</time>
   <energy>
    <i name="e_fr_energy">   -880.72474808 </i>
    <i name="e_wo_entrp">   -881.28507290 </i>
    <i name="e_0_energy">   -880.91152302 </i>
   </energy>
  </scstep>
  <scstep>
   <time name="diag">    1.21    1.21</time>
   <time name="diis">    3.79    3.79</time>
   <time name="orth">    0.25    0.25</time>
   <time name="total">    6.32    6.32</time>
   <energy>
    <i name="e_fr_energy">   -880.72474627 </i>
    <i name="e_wo_entrp">   -881.28509800 </i>
    <i name="e_0_energy">   -880.91153018 </i>
   </energy>
  </scstep>
  <scstep>
   <time name="diag">    1.22    1.22</time>
   <time name="diis">    3.64    3.64</time>
   <time name="orth">    0.26    0.26</time>
   <time name="total">    6.21    6.22</time>
   <energy>
    <i name="e_fr_energy">   -880.72474456 </i>
    <i name="e_wo_entrp">   -881.28512228 </i>
    <i name="e_0_energy">   -880.91153714 </i>
   </energy>
  </scstep>
  <scstep>
   <time name="diag">    1.19    1.19</time>
   <time name="diis">    3.57    3.57</time>
   <time name="orth">    0.26    0.26</time>
   <time name="total">    6.11    6.11</time>
   <energy>
    <i name="e_fr_energy">   -880.72474293 </i>
    <i name="e_wo_entrp">   -881.28514773 </i>
    <i name="e_0_energy">   -880.91154453 </i>
   </energy>
  </scstep>
  <scstep>
   <time name="diag">    1.11    1.11</time>
   <time name="diis">    3.37    3.37</time>
   <time name="orth">    0.26    0.26</time>
   <time name="total">    5.86    5.86</time>
   <energy>
    <i name="e_fr_energy">   -880.72474135 </i>
    <i name="e_wo_entrp">   -881.28517003 </i>
    <i name="e_0_energy">   -880.91155091 </i>
   </energy>
  </scstep>
  <scstep>
   <time name="diag">    1.15    1.15</time>
   <time name="diis">    3.11    3.11</time>
   <time name="orth">    0.25    0.25</time>
   <time name="total">    5.64    5.64</time>
   <energy>
    <i name="e_fr_energy">   -880.72473976 </i>
    <i name="e_wo_entrp">   -881.28519201 </i>
    <i name="e_0_energy">   -880.91155718 </i>
   </energy>
  </scstep>
  <scstep>
   <time name="diag">    1.22    1.22</time>
   <time name="diis">    2.95    2.95</time>
   <time name="orth">    0.25    0.25</time>
   <time name="total">    5.56    5.56</time>
   <energy>
    <i name="e_fr_energy">   -880.72473828 </i>
    <i name="e_wo_entrp">   -881.28521243 </i>
    <i name="e_0_energy">   -880.91156299 </i>
   </energy>
  </scstep>
  <scstep>
   <time name="diag">    1.24    1.24</time>
   <time name="diis">    2.79    2.79</time>
   <time name="orth">    0.25    0.25</time>
   <time name="total">    5.42    5.42</time>
   <energy>
    <i name="e_fr_energy">   -880.72473682 </i>
    <i name="e_wo_entrp">   -881.28523219 </i>
    <i name="e_0_energy">   -880.91156861 </i>
   </energy>
  </scstep>
  <scstep>
   <time name="diag">    1.24    1.24</time>
   <time name="diis">    2.75    2.75</time>
   <time name="orth">    0.25    0.25</time>
   <time name="total">    5.36    5.36</time>
   <energy>
    <i name="e_fr_energy">   -880.72473547 </i>
    <i name="e_wo_entrp">   -881.28525078 </i>
    <i name="e_0_energy">   -880.91157391 </i>
   </energy>
  </scstep>
  <scstep>
   <time name="diag">    1.24    1.24</time>
   <time name="diis">    2.68    2.68</time>
   <time name="orth">    0.25    0.25</time>
   <time name="total">    5.29    5.29</time>
   <energy>
    <i name="e_fr_energy">   -880.72473415 </i>
    <i name="e_wo_entrp">   -881.28526853 </i>
    <i name="e_0_energy">   -880.91157894 </i>
   </energy>
  </scstep>
  <scstep>
   <time name="diag">    1.22    1.22</time>
   <time name="diis">    2.74    2.74</time>
   <time name="orth">    0.24    0.24</time>
   <time name="total">    5.29    5.29</time>
   <energy>
    <i name="e_fr_energy">   -880.72473293 </i>
    <i name="e_wo_entrp">   -881.28528535 </i>
    <i name="e_0_energy">   -880.91158373 </i>
   </energy>
  </scstep>
  <scstep>
   <time name="diag">    1.20    1.20</time>
   <time name="diis">    2.78    2.78</time>
   <time name="orth">    0.24    0.24</time>
   <time name="total">    5.29    5.29</time>
   <energy>
    <i name="e_fr_energy">   -880.72473174 </i>
    <i name="e_wo_entrp">   -881.28530137 </i>
    <i name="e_0_energy">   -880.91158829 </i>
   </energy>
  </scstep>
  <scstep>
   <time name="diag">    1.20    1.20</time>
   <time name="diis">    2.80    2.80</time>
   <time name="orth">    0.25    0.25</time>
   <time name="total">    5.32    5.32</time>
   <energy>
    <i name="e_fr_energy">   -880.72473065 </i>
    <i name="e_wo_entrp">   -881.28531664 </i>
    <i name="e_0_energy">   -880.91159265 </i>
   </energy>
  </scstep>
  <scstep>
   <time name="diag">    1.21    1.21</time>
   <time name="diis">    2.76    2.76</time>
   <time name="orth">    0.26    0.26</time>
   <time name="total">    5.32    5.32</time>
   <energy>
    <i name="e_fr_energy">   -880.72472958 </i>
    <i name="e_wo_entrp">   -881.28533098 </i>
    <i name="e_0_energy">   -880.91159672 </i>
   </energy>
  </scstep>
  <scstep>
   <time name="diag">    1.18    1.18</time>
   <time name="diis">    2.73    2.73</time>
   <time name="orth">    0.26    0.26</time>
   <time name="total">    4.47    4.47</time>
   <energy>
    <i name="alphaZ">   7300.31925852 </i>
    <i name="ewald"> -66232.83996889 </i>
    <i name="hartreedc">  -9345.18720251 </i>
    <i name="XCdc">    360.37412909 </i>
    <i name="pawpsdc">  58010.28722348 </i>
    <i name="pawaedc"> -58946.22794951 </i>
    <i name="eentropy">      0.56061590 </i>
    <i name="bandstr">   3770.31828476 </i>
    <i name="atom">  64201.67088057 </i>
    <i name="e_fr_energy">   -880.72472858 </i>
    <i name="e_wo_entrp">   -881.28534448 </i>
    <i name="e_0_energy">   -880.91160055 </i>
   </energy>
  </scstep>
  <structure>
   <crystal>
    <varray name="basis" >
     <v>      10.33484705       0.00000000       0.00000000 </v>
     <v>       0.00000000      10.33484705       0.00000000 </v>
     <v>       0.00000000       0.00000000      10.33484705 </v>
    </varray>
    <i name="volume">   1103.85533447 </i>
    <varray name="rec_basis" >
     <v>       0.09676002       0.00000000       0.00000000 </v>
     <v>       0.00000000       0.09676002       0.00000000 </v>
     <v>       0.00000000       0.00000000       0.09676002 </v>
    </varray>
   </crystal>
   <varray name="positions" >
    <v>       0.00000000       0.00000000       0.00000000 </v>
    <v>       0.00000000       0.16666893       0.16666893 </v>
    <v>       0.16666893       0.00000000       0.16666893 </v>
    <v>       0.16666893       0.16666893       0.00000000 </v>
    <v>       0.33333106       0.00000000       0.00000000 </v>
    <v>       0.33333107       0.16666893       0.16666893 </v>
    <v>       0.50000000       0.00000000       0.16666894 </v>
    <v>       0.50000000       0.16666894       0.00000000 </v>
    <v>       0.66666897       0.00000000       0.00000000 </v>
    <v>       0.66666896       0.16666893       0.16666893 </v>
    <v>       0.83333104       0.00000000       0.16666893 </v>
    <v>       0.83333104       0.16666893       0.00000000 </v>
    <v>       0.00000000       0.33333106       0.00000000 </v>
    <v>       0.00000000       0.50000000       0.16666894 </v>
    <v>       0.16666893       0.33333107       0.16666893 </v>
    <v>       0.16666894       0.50000000       0.00000000 </v>
    <v>       0.33333107       0.33333107       0.00000000 </v>
    <v>       0.33333107       0.50000000       0.16666893 </v>
    <v>       0.50000000       0.33333107       0.16666893 </v>
    <v>       0.50000000       0.50000000       0.00000000 </v>
    <v>       0.66666896       0.33333107       0.00000000 </v>
    <v>       0.66666896       0.50000000       0.16666893 </v>
    <v>       0.83333104       0.33333107       0.16666893 </v>
    <v>       0.83333103       0.50000000       0.00000000 </v>
    <v>       0.00000000       0.66666897       0.00000000 </v>
    <v>       0.00000000       0.83333104       0.16666893 </v>
    <v>       0.16666893       0.66666896       0.16666893 </v>
    <v>       0.16666893       0.83333104       0.00000000 </v>
    <v>       0.33333107       0.66666896       0.00000000 </v>
    <v>       0.33333107       0.83333104       0.16666893 </v>
    <v>       0.50000000       0.66666896       0.16666893 </v>
    <v>       0.50000000       0.83333103       0.00000000 </v>
    <v>       0.66666896       0.66666896       0.00000000 </v>
    <v>       0.66666896       0.83333104       0.16666893 </v>
    <v>       0.83333104       0.66666896       0.16666893 </v>
    <v>       0.83333104       0.83333104       0.00000000 </v>
    <v>       0.00000000       0.00000000       0.33333106 </v>
    <v>       0.00000000       0.16666894       0.50000000 </v>
    <v>       0.16666894       0.00000000       0.50000000 </v>
    <v>       0.16666893       0.16666893       0.33333107 </v>
    <v>       0.33333107       0.00000000       0.33333107 </v>
    <v>       0.33333107       0.16666893       0.50000000 </v>
    <v>       0.50000000       0.00000000       0.50000000 </v>
    <v>       0.50000000       0.16666893       0.33333107 </v>
    <v>       0.66666896       0.00000000       0.33333107 </v>
    <v>       0.66666896       0.16666893       0.50000000 </v>
    <v>       0.83333103       0.00000000       0.50000000 </v>
    <v>       0.83333104       0.16666893       0.33333107 </v>
    <v>       0.00000000       0.33333107       0.33333107 </v>
    <v>       0.00000000       0.50000000       0.50000000 </v>
    <v>       0.16666893       0.33333107       0.50000000 </v>
    <v>       0.16666893       0.50000000       0.33333107 </v>
    <v>       0.33333107       0.33333107       0.33333107 </v>
    <v>       0.33333106       0.50000000       0.50000000 </v>
    <v>       0.50000000       0.33333106       0.50000000 </v>
    <v>       0.50000000       0.50000000       0.33333106 </v>
    <v>       0.66666896       0.33333107       0.33333107 </v>
    <v>       0.66666897       0.50000000       0.50000000 </v>
    <v>       0.83333104       0.33333107       0.50000000 </v>
    <v>       0.83333104       0.50000000       0.33333107 </v>
    <v>       0.00000000       0.66666896       0.33333107 </v>
    <v>       0.00000000       0.83333103       0.50000000 </v>
    <v>       0.16666893       0.66666896       0.50000000 </v>
    <v>       0.16666893       0.83333104       0.33333107 </v>
    <v>       0.33333107       0.66666896       0.33333107 </v>
    <v>       0.33333107       0.83333104       0.50000000 </v>
    <v>       0.50000000       0.66666897       0.50000000 </v>
    <v>       0.50000000       0.83333104       0.33333107 </v>
    <v>       0.66666896       0.66666896       0.33333107 </v>
    <v>       0.66666896       0.83333104       0.50000000 </v>
    <v>       0.83333104       0.66666896       0.50000000 </v>
    <v>       0.83333104       0.83333104       0.33333107 </v>
    <v>       0.00000000       0.00000000       0.66666897 </v>
    <v>       0.00000000       0.16666893       0.83333104 </v>
    <v>       0.16666893       0.00000000       0.83333104 </v>
    <v>       0.16666893       0.16666893       0.66666896 </v>
    <v>       0.33333107       0.00000000       0.66666896 </v>
    <v>       0.33333107       0.16666893       0.83333104 </v>
    <v>       0.50000000       0.00000000       0.83333103 </v>
    <v>       0.50000000       0.16666893       0.66666896 </v>
    <v>       0.66666896       0.00000000       0.66666896 </v>
    <v>       0.66666896       0.16666893       0.83333104 </v>
    <v>       0.83333104       0.00000000       0.83333104 </v>
    <v>       0.83333104       0.16666893       0.66666896 </v>
    <v>       0.00000000       0.33333107       0.66666896 </v>
    <v>       0.00000000       0.50000000       0.83333103 </v>
    <v>       0.16666893       0.33333107       0.83333104 </v>
    <v>       0.16666893       0.50000000       0.66666896 </v>
    <v>       0.33333107       0.33333107       0.66666896 </v>
    <v>       0.33333107       0.50000000       0.83333104 </v>
    <v>       0.50000000       0.33333107       0.83333104 </v>
    <v>       0.50000000       0.50000000       0.66666897 </v>
    <v>       0.66666896       0.33333107       0.66666896 </v>
    <v>       0.66666896       0.50000000       0.83333104 </v>
    <v>       0.83333104       0.33333107       0.83333104 </v>
    <v>       0.83333104       0.50000000       0.66666896 </v>
    <v>       0.00000000       0.66666896       0.66666896 </v>
    <v>       0.00000000       0.83333104       0.83333104 </v>
    <v>       0.16666893       0.66666896       0.83333104 </v>
    <v>       0.16666893       0.83333104       0.66666896 </v>
    <v>       0.33333107       0.66666896       0.66666896 </v>
    <v>       0.33333107       0.83333104       0.83333104 </v>
    <v>       0.50000000       0.66666896       0.83333104 </v>
    <v>       0.50000000       0.83333104       0.66666896 </v>
    <v>       0.66666896       0.66666896       0.66666896 </v>
    <v>       0.66666896       0.83333104       0.83333104 </v>
    <v>       0.83333104       0.66666896       0.83333104 </v>
    <v>       0.83333104       0.83333104       0.66666896 </v>
   </varray>
  </structure>
  <varray name="forces" >
   <v>       0.00000000      -0.00000000       0.00000000 </v>
   <v>      -0.00000000       0.00000000       0.00000000 </v>
   <v>       0.00000000       0.00000000       0.00000000 </v>
   <v>      -0.00000000      -0.00000000       0.00000000 </v>
   <v>       0.00000000       0.00000000       0.00000000 </v>
   <v>      -0.00000000       0.00000000      -0.00000000 </v>
   <v>      -0.00000000      -0.00000000      -0.00000000 </v>
   <v>      -0.00000000      -0.00000000       0.00000000 </v>
   <v>      -0.00000000       0.00000000       0.00000000 </v>
   <v>      -0.00000000       0.00000000      -0.00000000 </v>
   <v>       0.00000000       0.00000000      -0.00000000 </v>
   <v>       0.00000000       0.00000000      -0.00000000 </v>
   <v>      -0.00000000      -0.00000000       0.00000000 </v>
   <v>      -0.00000000      -0.00000000      -0.00000000 </v>
   <v>      -0.00000000      -0.00000000      -0.00000000 </v>
   <v>       0.00000000      -0.00000000      -0.00000000 </v>
   <v>       0.00000000       0.00000000       0.00000000 </v>
   <v>       0.00000000       0.00000000      -0.00000000 </v>
   <v>       0.00000000      -0.00000000       0.00000000 </v>
   <v>       0.00000000      -0.00000000       0.00000000 </v>
   <v>      -0.00000000       0.00000000       0.00000000 </v>
   <v>      -0.00000000      -0.00000000       0.00000000 </v>
   <v>       0.00000000      -0.00000000      -0.00000000 </v>
   <v>       0.00000000      -0.00000000      -0.00000000 </v>
   <v>       0.00000000       0.00000000       0.00000000 </v>
   <v>       0.00000000       0.00000000      -0.00000000 </v>
   <v>      -0.00000000       0.00000000      -0.00000000 </v>
   <v>      -0.00000000      -0.00000000      -0.00000000 </v>
   <v>      -0.00000000       0.00000000      -0.00000000 </v>
   <v>      -0.00000000      -0.00000000      -0.00000000 </v>
   <v>      -0.00000000       0.00000000      -0.00000000 </v>
   <v>      -0.00000000       0.00000000       0.00000000 </v>
   <v>       0.00000000       0.00000000      -0.00000000 </v>
   <v>      -0.00000000      -0.00000000      -0.00000000 </v>
   <v>      -0.00000000       0.00000000      -0.00000000 </v>
   <v>       0.00000000      -0.00000000      -0.00000000 </v>
   <v>      -0.00000000      -0.00000000       0.00000000 </v>
   <v>      -0.00000000       0.00000000       0.00000000 </v>
   <v>       0.00000000      -0.00000000       0.00000000 </v>
   <v>       0.00000000       0.00000000       0.00000000 </v>
   <v>       0.00000000       0.00000000      -0.00000000 </v>
   <v>       0.00000000       0.00000000      -0.00000000 </v>
   <v>      -0.00000000      -0.00000000      -0.00000000 </v>
   <v>       0.00000000      -0.00000000      -0.00000000 </v>
   <v>      -0.00000000      -0.00000000      -0.00000000 </v>
   <v>       0.00000000       0.00000000       0.00000000 </v>
   <v>       0.00000000      -0.00000000       0.00000000 </v>
   <v>       0.00000000      -0.00000000       0.00000000 </v>
   <v>      -0.00000000      -0.00000000      -0.00000000 </v>
   <v>      -0.00000000       0.00000000       0.00000000 </v>
   <v>      -0.00000000       0.00000000      -0.00000000 </v>
   <v>      -0.00000000       0.00000000      -0.00000000 </v>
   <v>       0.00000000       0.00000000      -0.00000000 </v>
   <v>       0.00000000       0.00000000       0.00000000 </v>
   <v>      -0.00000000      -0.00000000      -0.00000000 </v>
   <v>       0.00000000      -0.00000000      -0.00000000 </v>
   <v>       0.00000000      -0.00000000       0.00000000 </v>
   <v>       0.00000000       0.00000000       0.00000000 </v>
   <v>       0.00000000       0.00000000      -0.00000000 </v>
   <v>       0.00000000      -0.00000000      -0.00000000 </v>
   <v>       0.00000000      -0.00000000       0.00000000 </v>
   <v>       0.00000000       0.00000000      -0.00000000 </v>
   <v>       0.00000000      -0.00000000      -0.00000000 </v>
   <v>      -0.00000000      -0.00000000       0.00000000 </v>
   <v>      -0.00000000       0.00000000      -0.00000000 </v>
   <v>       0.00000000       0.00000000       0.00000000 </v>
   <v>       0.00000000      -0.00000000      -0.00000000 </v>
   <v>       0.00000000       0.00000000      -0.00000000 </v>
   <v>       0.00000000       0.00000000       0.00000000 </v>
   <v>      -0.00000000      -0.00000000      -0.00000000 </v>
   <v>      -0.00000000       0.00000000      -0.00000000 </v>
   <v>       0.00000000      -0.00000000       0.00000000 </v>
   <v>       0.00000000      -0.00000000      -0.00000000 </v>
   <v>      -0.00000000       0.00000000      -0.00000000 </v>
   <v>      -0.00000000       0.00000000      -0.00000000 </v>
   <v>      -0.00000000       0.00000000      -0.00000000 </v>
   <v>       0.00000000      -0.00000000      -0.00000000 </v>
   <v>       0.00000000       0.00000000       0.00000000 </v>
   <v>      -0.00000000      -0.00000000       0.00000000 </v>
   <v>      -0.00000000       0.00000000      -0.00000000 </v>
   <v>       0.00000000       0.00000000       0.00000000 </v>
   <v>       0.00000000       0.00000000      -0.00000000 </v>
   <v>       0.00000000      -0.00000000       0.00000000 </v>
   <v>      -0.00000000       0.00000000      -0.00000000 </v>
   <v>      -0.00000000      -0.00000000       0.00000000 </v>
   <v>       0.00000000      -0.00000000       0.00000000 </v>
   <v>       0.00000000       0.00000000       0.00000000 </v>
   <v>       0.00000000      -0.00000000       0.00000000 </v>
   <v>       0.00000000       0.00000000       0.00000000 </v>
   <v>      -0.00000000       0.00000000       0.00000000 </v>
   <v>       0.00000000      -0.00000000       0.00000000 </v>
   <v>       0.00000000      -0.00000000       0.00000000 </v>
   <v>       0.00000000       0.00000000      -0.00000000 </v>
   <v>       0.00000000       0.00000000      -0.00000000 </v>
   <v>       0.00000000       0.00000000      -0.00000000 </v>
   <v>      -0.00000000      -0.00000000       0.00000000 </v>
   <v>       0.00000000      -0.00000000      -0.00000000 </v>
   <v>      -0.00000000       0.00000000       0.00000000 </v>
   <v>      -0.00000000       0.00000000       0.00000000 </v>
   <v>       0.00000000      -0.00000000      -0.00000000 </v>
   <v>      -0.00000000       0.00000000      -0.00000000 </v>
   <v>       0.00000000       0.00000000      -0.00000000 </v>
   <v>       0.00000000       0.00000000      -0.00000000 </v>
   <v>      -0.00000000       0.00000000       0.00000000 </v>
   <v>      -0.00000000      -0.00000000      -0.00000000 </v>
   <v>      -0.00000000      -0.00000000       0.00000000 </v>
   <v>       0.00000000       0.00000000       0.00000000 </v>
   <v>       0.00000000      -0.00000000       0.00000000 </v>
  </varray>
  <varray name="stress" >
   <v>      -3.87947107      -0.00000000       0.00000000 </v>
   <v>       0.00000000      -3.87947107      -0.00000000 </v>
   <v>       0.00000000      -0.00000000      -3.87947107 </v>
  </varray>
  <energy>
   <i name="e_fr_energy">   -880.72472858 </i>
   <i name="e_wo_entrp">   -880.91160055 </i>
   <i name="e_0_energy">      0.56061590 </i>
  </energy>
  <time name="totalsc">  304.35  304.42</time>
 </calculation>
 <calculation>
  <scstep>
   <time name="dav">   10.39   10.39</time>
   <time name="total">   11.48   11.48</time>
   <energy>
    <i name="alphaZ">   7326.53019324 </i>
    <i name="ewald"> -66312.01235634 </i>
    <i name="hartreedc">  -9356.35788519 </i>
    <i name="XCdc">    363.92567011 </i>
    <i name="pawpsdc">  58010.28707099 </i>
    <i name="pawaedc"> -58946.22770803 </i>
    <i name="eentropy">      0.54030642 </i>
    <i name="bandstr">   3830.82475503 </i>
    <i name="atom">  64201.67088057 </i>
    <i name="e_fr_energy">   -880.81907320 </i>
    <i name="e_wo_entrp">   -881.35937962 </i>
    <i name="e_0_energy">   -880.99917534 </i>
   </energy>
  </scstep>
  <scstep>
   <time name="diag">    1.16    1.16</time>
   <time name="diis">    5.71    5.71</time>
   <time name="orth">    0.25    0.25</time>
   <time name="total">    8.21    8.21</time>
   <energy>
    <i name="e_fr_energy">   -880.72272456 </i>
    <i name="e_wo_entrp">   -881.27686811 </i>
    <i name="e_0_energy">   -880.90743908 </i>
   </energy>
  </scstep>
  <scstep>
   <time name="diag">    1.24    1.24</time>
   <time name="diis">    6.21    6.21</time>
   <time name="orth">    0.25    0.25</time>
   <time name="total">    8.79    8.79</time>
   <energy>
    <i name="e_fr_energy">   -880.72323429 </i>
    <i name="e_wo_entrp">   -881.27686518 </i>
    <i name="e_0_energy">   -880.90777792 </i>
   </energy>
  </scstep>
  <scstep>
   <time name="diag">    1.21    1.21</time>
   <time name="diis">    5.69    5.69</time>
   <time name="orth">    0.25    0.25</time>
   <time name="total">    8.26    8.26</time>
   <energy>
    <i name="e_fr_energy">   -880.72218968 </i>
    <i name="e_wo_entrp">   -881.27314759 </i>
    <i name="e_0_energy">   -880.90584232 </i>
   </energy>
  </scstep>
  <scstep>
   <time name="diag">    1.24    1.24</time>
   <time name="diis">    5.75    5.75</time>
   <time name="orth">    0.25    0.25</time>
   <time name="total">    8.30    8.30</time>
   <energy>
    <i name="e_fr_energy">   -880.72258866 </i>
    <i name="e_wo_entrp">   -881.27379062 </i>
    <i name="e_0_energy">   -880.90632264 </i>
   </energy>
  </scstep>
  <scstep>
   <time name="diag">    1.20    1.20</time>
   <time name="diis">    5.72    5.73</time>
   <time name="orth">    0.25    0.25</time>
   <time name="total">    8.28    8.28</time>
   <energy>
    <i name="e_fr_energy">   -880.72116077 </i>
    <i name="e_wo_entrp">   -881.27371264 </i>
    <i name="e_0_energy">   -880.90534473 </i>
   </energy>
  </scstep>
  <scstep>
   <time name="diag">    1.24    1.24</time>
   <time name="diis">    6.80    6.81</time>
   <time name="orth">    0.25    0.25</time>
   <time name="total">    9.41    9.42</time>
   <energy>
    <i name="e_fr_energy">   -880.72115314 </i>
    <i name="e_wo_entrp">   -881.27361416 </i>
    <i name="e_0_energy">   -880.90530682 </i>
   </energy>
  </scstep>
  <scstep>
   <time name="diag">    1.23    1.23</time>
   <time name="diis">    5.71    5.71</time>
   <time name="orth">    0.26    0.26</time>
   <time name="total">    8.32    8.32</time>
   <energy>
    <i name="e_fr_energy">   -880.72109678 </i>
    <i name="e_wo_entrp">   -881.27343583 </i>
    <i name="e_0_energy">   -880.90520980 </i>
   </energy>
  </scstep>
  <scstep>
   <time name="diag">    1.11    1.11</time>
   <time name="diis">    5.70    5.70</time>
   <time name="orth">    0.25    0.25</time>
   <time name="total">    8.16    8.16</time>
   <energy>
    <i name="e_fr_energy">   -880.72105433 </i>
    <i name="e_wo_entrp">   -881.27323080 </i>
    <i name="e_0_energy">   -880.90511315 </i>
   </energy>
  </scstep>
  <scstep>
   <time name="diag">    1.22    1.22</time>
   <time name="diis">    6.24    6.24</time>
   <time name="orth">    0.25    0.25</time>
   <time name="total">    8.80    8.80</time>
   <energy>
    <i name="e_fr_energy">   -880.72105166 </i>
    <i name="e_wo_entrp">   -881.27317466 </i>
    <i name="e_0_energy">   -880.90509266 </i>
   </energy>
  </scstep>
  <scstep>
   <time name="diag">    1.19    1.19</time>
   <time name="diis">    3.35    3.35</time>
   <time name="orth">    0.24    0.24</time>
   <time name="total">    5.82    5.82</time>
   <energy>
    <i name="e_fr_energy">   -880.72105466 </i>
    <i name="e_wo_entrp">   -881.27319214 </i>
    <i name="e_0_energy">   -880.90510049 </i>
   </energy>
  </scstep>
  <scstep>
   <time name="diag">    1.16    1.16</time>
   <time name="diis">    3.22    3.22</time>
   <time name="orth">    0.24    0.24</time>
   <time name="total">    5.66    5.66</time>
   <energy>
    <i name="e_fr_energy">   -880.72105573 </i>
    <i name="e_wo_entrp">   -881.27320651 </i>
    <i name="e_0_energy">   -880.90510599 </i>
   </energy>
  </scstep>
  <scstep>
   <time name="diag">    1.15    1.15</time>
   <time name="diis">    3.11    3.11</time>
   <time name="orth">    0.23    0.23</time>
   <time name="total">    4.81    4.81</time>
   <energy>
    <i name="alphaZ">   7326.53019324 </i>
    <i name="ewald"> -66312.01235634 </i>
    <i name="hartreedc">  -9317.28632950 </i>
    <i name="XCdc">    361.61165775 </i>
    <i name="pawpsdc">  58106.93917553 </i>
    <i name="pawaedc"> -59044.66061121 </i>
    <i name="eentropy">      0.55215766 </i>
    <i name="bandstr">   3795.93417642 </i>
    <i name="atom">  64201.67088057 </i>
    <i name="e_fr_energy">   -880.72105590 </i>
    <i name="e_wo_entrp">   -881.27321355 </i>
    <i name="e_0_energy">   -880.90510845 </i>
   </energy>
  </scstep>
  <structure>
   <crystal>
    <varray name="basis" >
     <v>      10.32250789      -0.00000000       0.00000000 </v>
     <v>       0.00000000      10.32250789      -0.00000000 </v>
     <v>       0.00000000      -0.00000000      10.32250789 </v>
    </varray>
    <i name="volume">   1099.90625089 </i>
    <varray name="rec_basis" >
     <v>       0.09687568      -0.00000000      -0.00000000 </v>
     <v>       0.00000000       0.09687568       0.00000000 </v>
     <v>      -0.00000000       0.00000000       0.09687568 </v>
    </varray>
   </crystal>
   <varray name="positions" >
    <v>       0.00000000      -0.00000000       0.00000000 </v>
    <v>      -0.00000000       0.16666893       0.16666893 </v>
    <v>       0.16666893       0.00000000       0.16666893 </v>
    <v>       0.16666893       0.16666893       0.00000000 </v>
    <v>       0.33333106       0.00000000       0.00000000 </v>
    <v>       0.33333107       0.16666893       0.16666893 </v>
    <v>       0.50000000      -0.00000000       0.16666894 </v>
    <v>       0.50000000       0.16666894       0.00000000 </v>
    <v>       0.66666897       0.00000000       0.00000000 </v>
    <v>       0.66666896       0.16666893       0.16666893 </v>
    <v>       0.83333104       0.00000000       0.16666893 </v>
    <v>       0.83333104       0.16666893      -0.00000000 </v>
    <v>      -0.00000000       0.33333106       0.00000000 </v>
    <v>      -0.00000000       0.50000000       0.16666894 </v>
    <v>       0.16666893       0.33333107       0.16666893 </v>
    <v>       0.16666894       0.50000000      -0.00000000 </v>
    <v>       0.33333107       0.33333107       0.00000000 </v>
    <v>       0.33333107       0.50000000       0.16666893 </v>
    <v>       0.50000000       0.33333107       0.16666893 </v>
    <v>       0.50000000       0.50000000       0.00000000 </v>
    <v>       0.66666896       0.33333107       0.00000000 </v>
    <v>       0.66666896       0.50000000       0.16666893 </v>
    <v>       0.83333104       0.33333107       0.16666893 </v>
    <v>       0.83333103       0.50000000      -0.00000000 </v>
    <v>       0.00000000       0.66666897       0.00000000 </v>
    <v>       0.00000000       0.83333104       0.16666893 </v>
    <v>       0.16666893       0.66666896       0.16666893 </v>
    <v>       0.16666893       0.83333104      -0.00000000 </v>
    <v>       0.33333107       0.66666896      -0.00000000 </v>
    <v>       0.33333107       0.83333104       0.16666893 </v>
    <v>       0.50000000       0.66666896       0.16666893 </v>
    <v>       0.50000000       0.83333103       0.00000000 </v>
    <v>       0.66666896       0.66666896      -0.00000000 </v>
    <v>       0.66666896       0.83333104       0.16666893 </v>
    <v>       0.83333104       0.66666896       0.16666893 </v>
    <v>       0.83333104       0.83333104      -0.00000000 </v>
    <v>      -0.00000000      -0.00000000       0.33333106 </v>
    <v>      -0.00000000       0.16666894       0.50000000 </v>
    <v>       0.16666894      -0.00000000       0.50000000 </v>
    <v>       0.16666893       0.16666893       0.33333107 </v>
    <v>       0.33333107       0.00000000       0.33333107 </v>
    <v>       0.33333107       0.16666893       0.50000000 </v>
    <v>       0.50000000      -0.00000000       0.50000000 </v>
    <v>       0.50000000       0.16666893       0.33333107 </v>
    <v>       0.66666896      -0.00000000       0.33333107 </v>
    <v>       0.66666896       0.16666893       0.50000000 </v>
    <v>       0.83333103      -0.00000000       0.50000000 </v>
    <v>       0.83333104       0.16666893       0.33333107 </v>
    <v>      -0.00000000       0.33333107       0.33333107 </v>
    <v>      -0.00000000       0.50000000       0.50000000 </v>
    <v>       0.16666893       0.33333107       0.50000000 </v>
    <v>       0.16666893       0.50000000       0.33333107 </v>
    <v>       0.33333107       0.33333107       0.33333107 </v>
    <v>       0.33333106       0.50000000       0.50000000 </v>
    <v>       0.50000000       0.33333106       0.50000000 </v>
    <v>       0.50000000       0.50000000       0.33333106 </v>
    <v>       0.66666896       0.33333107       0.33333107 </v>
    <v>       0.66666897       0.50000000       0.50000000 </v>
    <v>       0.83333104       0.33333107       0.50000000 </v>
    <v>       0.83333104       0.50000000       0.33333107 </v>
    <v>       0.00000000       0.66666896       0.33333107 </v>
    <v>       0.00000000       0.83333103       0.50000000 </v>
    <v>       0.16666893       0.66666896       0.50000000 </v>
    <v>       0.16666893       0.83333104       0.33333107 </v>
    <v>       0.33333107       0.66666896       0.33333107 </v>
    <v>       0.33333107       0.83333104       0.50000000 </v>
    <v>       0.50000000       0.66666897       0.50000000 </v>
    <v>       0.50000000       0.83333104       0.33333107 </v>
    <v>       0.66666896       0.66666896       0.33333107 </v>
    <v>       0.66666896       0.83333104       0.50000000 </v>
    <v>       0.83333104       0.66666896       0.50000000 </v>
    <v>       0.83333104       0.83333104       0.33333107 </v>
    <v>       0.00000000      -0.00000000       0.66666897 </v>
    <v>      -0.00000000       0.16666893       0.83333104 </v>
    <v>       0.16666893       0.00000000       0.83333104 </v>
    <v>       0.16666893       0.16666893       0.66666896 </v>
    <v>       0.33333107      -0.00000000       0.66666896 </v>
    <v>       0.33333107       0.16666893       0.83333104 </v>
    <v>       0.50000000      -0.00000000       0.83333103 </v>
    <v>       0.50000000       0.16666893       0.66666896 </v>
    <v>       0.66666896       0.00000000       0.66666896 </v>
    <v>       0.66666896       0.16666893       0.83333104 </v>
    <v>       0.83333104      -0.00000000       0.83333104 </v>
    <v>       0.83333104       0.16666893       0.66666896 </v>
    <v>      -0.00000000       0.33333107       0.66666896 </v>
    <v>       0.00000000       0.50000000       0.83333103 </v>
    <v>       0.16666893       0.33333107       0.83333104 </v>
    <v>       0.16666893       0.50000000       0.66666896 </v>
    <v>       0.33333107       0.33333107       0.66666896 </v>
    <v>       0.33333107       0.50000000       0.83333104 </v>
    <v>       0.50000000       0.33333107       0.83333104 </v>
    <v>       0.50000000       0.50000000       0.66666897 </v>
    <v>       0.66666896       0.33333107       0.66666896 </v>
    <v>       0.66666896       0.50000000       0.83333104 </v>
    <v>       0.83333104       0.33333107       0.83333104 </v>
    <v>       0.83333104       0.50000000       0.66666896 </v>
    <v>       0.00000000       0.66666896       0.66666896 </v>
    <v>      -0.00000000       0.83333104       0.83333104 </v>
    <v>       0.16666893       0.66666896       0.83333104 </v>
    <v>       0.16666893       0.83333104       0.66666896 </v>
    <v>       0.33333107       0.66666896       0.66666896 </v>
    <v>       0.33333107       0.83333104       0.83333104 </v>
    <v>       0.50000000       0.66666896       0.83333104 </v>
    <v>       0.50000000       0.83333104       0.66666896 </v>
    <v>       0.66666896       0.66666896       0.66666896 </v>
    <v>       0.66666896       0.83333104       0.83333104 </v>
    <v>       0.83333104       0.66666896       0.83333104 </v>
    <v>       0.83333104       0.83333104       0.66666896 </v>
   </varray>
  </structure>
  <varray name="forces" >
   <v>      -0.00000000      -0.00000000       0.00000000 </v>
   <v>       0.00000000       0.00000000      -0.00000000 </v>
   <v>       0.00000000       0.00000000       0.00000000 </v>
   <v>      -0.00000000      -0.00000000      -0.00000000 </v>
   <v>       0.00000000      -0.00000000      -0.00000000 </v>
   <v>       0.00000000      -0.00000000       0.00000000 </v>
   <v>       0.00000000      -0.00000000       0.00000000 </v>
   <v>       0.00000000      -0.00000000      -0.00000000 </v>
   <v>      -0.00000000       0.00000000       0.00000000 </v>
   <v>       0.00000000      -0.00000000       0.00000000 </v>
   <v>      -0.00000000       0.00000000       0.00000000 </v>
   <v>      -0.00000000      -0.00000000      -0.00000000 </v>
   <v>      -0.00000000       0.00000000       0.00000000 </v>
   <v>       0.00000000       0.00000000      -0.00000000 </v>
   <v>      -0.00000000       0.00000000       0.00000000 </v>
   <v>      -0.00000000      -0.00000000       0.00000000 </v>
   <v>       0.00000000       0.00000000      -0.00000000 </v>
   <v>       0.00000000       0.00000000      -0.00000000 </v>
   <v>      -0.00000000      -0.00000000      -0.00000000 </v>
   <v>      -0.00000000      -0.00000000       0.00000000 </v>
   <v>      -0.00000000      -0.00000000       0.00000000 </v>
   <v>      -0.00000000      -0.00000000      -0.00000000 </v>
   <v>      -0.00000000       0.00000000      -0.00000000 </v>
   <v>      -0.00000000       0.00000000       0.00000000 </v>
   <v>       0.00000000      -0.00000000      -0.00000000 </v>
   <v>      -0.00000000      -0.00000000      -0.00000000 </v>
   <v>       0.00000000       0.00000000       0.00000000 </v>
   <v>      -0.00000000       0.00000000      -0.00000000 </v>
   <v>      -0.00000000      -0.00000000      -0.00000000 </v>
   <v>       0.00000000       0.00000000      -0.00000000 </v>
   <v>       0.00000000      -0.00000000      -0.00000000 </v>
   <v>       0.00000000      -0.00000000      -0.00000000 </v>
   <v>       0.00000000       0.00000000      -0.00000000 </v>
   <v>      -0.00000000       0.00000000      -0.00000000 </v>
   <v>       0.00000000      -0.00000000       0.00000000 </v>
   <v>      -0.00000000      -0.00000000       0.00000000 </v>
   <v>       0.00000000      -0.00000000      -0.00000000 </v>
   <v>       0.00000000       0.00000000       0.00000000 </v>
   <v>      -0.00000000       0.00000000       0.00000000 </v>
   <v>       0.00000000       0.00000000       0.00000000 </v>
   <v>       0.00000000      -0.00000000       0.00000000 </v>
   <v>       0.00000000      -0.00000000       0.00000000 </v>
   <v>      -0.00000000      -0.00000000      -0.00000000 </v>
   <v>      -0.00000000       0.00000000      -0.00000000 </v>
   <v>      -0.00000000       0.00000000       0.00000000 </v>
   <v>      -0.00000000      -0.00000000       0.00000000 </v>
   <v>      -0.00000000       0.00000000       0.00000000 </v>
   <v>      -0.00000000       0.00000000       0.00000000 </v>
   <v>      -0.00000000      -0.00000000      -0.00000000 </v>
   <v>       0.00000000       0.00000000      -0.00000000 </v>
   <v>       0.00000000       0.00000000       0.00000000 </v>
   <v>      -0.00000000      -0.00000000      -0.00000000 </v>
   <v>      -0.00000000      -0.00000000      -0.00000000 </v>
   <v>       0.00000000       0.00000000       0.00000000 </v>
   <v>      -0.00000000       0.00000000      -0.00000000 </v>
   <v>      -0.00000000      -0.00000000      -0.00000000 </v>
   <v>      -0.00000000       0.00000000       0.00000000 </v>
   <v>       0.00000000      -0.00000000      -0.00000000 </v>
   <v>       0.00000000       0.00000000      -0.00000000 </v>
   <v>      -0.00000000      -0.00000000      -0.00000000 </v>
   <v>       0.00000000      -0.00000000      -0.00000000 </v>
   <v>       0.00000000      -0.00000000       0.00000000 </v>
   <v>      -0.00000000      -0.00000000       0.00000000 </v>
   <v>      -0.00000000       0.00000000       0.00000000 </v>
   <v>      -0.00000000       0.00000000      -0.00000000 </v>
   <v>      -0.00000000      -0.00000000      -0.00000000 </v>
   <v>       0.00000000       0.00000000      -0.00000000 </v>
   <v>      -0.00000000      -0.00000000      -0.00000000 </v>
   <v>       0.00000000       0.00000000       0.00000000 </v>
   <v>       0.00000000       0.00000000       0.00000000 </v>
   <v>       0.00000000      -0.00000000      -0.00000000 </v>
   <v>      -0.00000000      -0.00000000       0.00000000 </v>
   <v>       0.00000000      -0.00000000       0.00000000 </v>
   <v>      -0.00000000       0.00000000      -0.00000000 </v>
   <v>      -0.00000000       0.00000000      -0.00000000 </v>
   <v>       0.00000000       0.00000000      -0.00000000 </v>
   <v>      -0.00000000      -0.00000000       0.00000000 </v>
   <v>       0.00000000      -0.00000000      -0.00000000 </v>
   <v>      -0.00000000      -0.00000000      -0.00000000 </v>
   <v>      -0.00000000      -0.00000000      -0.00000000 </v>
   <v>       0.00000000       0.00000000       0.00000000 </v>
   <v>       0.00000000      -0.00000000       0.00000000 </v>
   <v>       0.00000000      -0.00000000      -0.00000000 </v>
   <v>      -0.00000000      -0.00000000      -0.00000000 </v>
   <v>      -0.00000000      -0.00000000       0.00000000 </v>
   <v>       0.00000000       0.00000000       0.00000000 </v>
   <v>      -0.00000000       0.00000000      -0.00000000 </v>
   <v>      -0.00000000      -0.00000000       0.00000000 </v>
   <v>      -0.00000000       0.00000000      -0.00000000 </v>
   <v>      -0.00000000       0.00000000       0.00000000 </v>
   <v>      -0.00000000      -0.00000000       0.00000000 </v>
   <v>      -0.00000000      -0.00000000       0.00000000 </v>
   <v>       0.00000000       0.00000000      -0.00000000 </v>
   <v>       0.00000000       0.00000000       0.00000000 </v>
   <v>      -0.00000000       0.00000000       0.00000000 </v>
   <v>       0.00000000       0.00000000       0.00000000 </v>
   <v>       0.00000000      -0.00000000      -0.00000000 </v>
   <v>      -0.00000000      -0.00000000       0.00000000 </v>
   <v>       0.00000000       0.00000000      -0.00000000 </v>
   <v>       0.00000000       0.00000000      -0.00000000 </v>
   <v>      -0.00000000      -0.00000000       0.00000000 </v>
   <v>      -0.00000000      -0.00000000      -0.00000000 </v>
   <v>      -0.00000000      -0.00000000       0.00000000 </v>
   <v>       0.00000000      -0.00000000      -0.00000000 </v>
   <v>       0.00000000       0.00000000      -0.00000000 </v>
   <v>       0.00000000       0.00000000      -0.00000000 </v>
   <v>      -0.00000000      -0.00000000      -0.00000000 </v>
   <v>       0.00000000      -0.00000000       0.00000000 </v>
  </varray>
  <varray name="stress" >
   <v>       6.78884038      -0.00000000      -0.00000000 </v>
   <v>      -0.00000000       6.78884038      -0.00000000 </v>
   <v>      -0.00000000       0.00000000       6.78884038 </v>
  </varray>
  <energy>
   <i name="e_fr_energy">   -880.72105590 </i>
   <i name="e_wo_entrp">   -880.90510845 </i>
   <i name="e_0_energy">      0.55215766 </i>
  </energy>
  <time name="totalsc">  120.74  120.76</time>
 </calculation>
 <calculation>
  <scstep>
   <time name="dav">    9.83    9.83</time>
   <time name="total">   10.90   10.90</time>
   <energy>
    <i name="alphaZ">   7309.70269922 </i>
    <i name="ewald"> -66261.20520501 </i>
    <i name="hartreedc">  -9310.14692952 </i>
    <i name="XCdc">    359.33606441 </i>
    <i name="pawpsdc">  58106.93879113 </i>
    <i name="pawaedc"> -59044.66008717 </i>
    <i name="eentropy">      0.56433938 </i>
    <i name="bandstr">   3757.03208592 </i>
    <i name="atom">  64201.67088057 </i>
    <i name="e_fr_energy">   -880.76736106 </i>
    <i name="e_wo_entrp">   -881.33170045 </i>
    <i name="e_0_energy">   -880.95547419 </i>
   </energy>
  </scstep>
  <scstep>
   <time name="diag">    1.11    1.11</time>
   <time name="diis">    5.25    5.25</time>
   <time name="orth">    0.23    0.23</time>
   <time name="total">    7.65    7.65</time>
   <energy>
    <i name="e_fr_energy">   -880.72723145 </i>
    <i name="e_wo_entrp">   -881.28370571 </i>
    <i name="e_0_energy">   -880.91272287 </i>
   </energy>
  </scstep>
  <scstep>
   <time name="diag">    1.11    1.11</time>
   <time name="diis">    5.84    5.84</time>
   <time name="orth">    0.24    0.24</time>
   <time name="total">    8.24    8.24</time>
   <energy>
    <i name="e_fr_energy">   -880.72730757 </i>
    <i name="e_wo_entrp">   -881.28406901 </i>
    <i name="e_0_energy">   -880.91289472 </i>
   </energy>
  </scstep>
  <scstep>
   <time name="diag">    1.14    1.14</time>
   <time name="diis">    5.33    5.33</time>
   <time name="orth">    0.24    0.24</time>
   <time name="total">    7.78    7.78</time>
   <energy>
    <i name="e_fr_energy">   -880.72740960 </i>
    <i name="e_wo_entrp">   -881.28479556 </i>
    <i name="e_0_energy">   -880.91320492 </i>
   </energy>
  </scstep>
  <scstep>
   <time name="diag">    1.16    1.16</time>
   <time name="diis">    5.29    5.29</time>
   <time name="orth">    0.24    0.24</time>
   <time name="total">    7.78    7.78</time>
   <energy>
    <i name="e_fr_energy">   -880.72685781 </i>
    <i name="e_wo_entrp">   -881.28538891 </i>
    <i name="e_0_energy">   -880.91303484 </i>
   </energy>
  </scstep>
  <scstep>
   <time name="diag">    1.15    1.15</time>
   <time name="diis">    5.27    5.27</time>
   <time name="orth">    0.24    0.24</time>
   <time name="total">    7.72    7.72</time>
   <energy>
[...]
       <r>    -1.6100     6.9918     1.6737 </r>
       <r>    -1.5656     4.9471     1.8936 </r>
       <r>    -1.5211     2.7790     2.0171 </r>
       <r>    -1.4767     1.0302     2.0628 </r>
       <r>    -1.4323    -0.0903     2.0588 </r>
       <r>    -1.3878    -0.6924     2.0281 </r>
       <r>    -1.3434    -1.0370     1.9820 </r>
       <r>    -1.2990    -1.3263     1.9230 </r>
       <r>    -1.2545    -1.5269     1.8552 </r>
       <r>    -1.2101    -1.2692     1.7988 </r>
       <r>    -1.1657     0.1077     1.8036 </r>
       <r>    -1.1212     3.2824     1.9494 </r>
       <r>    -1.0768     8.4663     2.3256 </r>
       <r>    -1.0324    14.9473     2.9898 </r>
       <r>    -0.9879    21.0520     3.9253 </r>
       <r>    -0.9435    24.7499     5.0251 </r>
       <r>    -0.8990    24.6585     6.1208 </r>
       <r>    -0.8546    20.8102     7.0456 </r>
       <r>    -0.8102    14.6296     7.6956 </r>
       <r>    -0.7657     8.1368     8.0572 </r>
       <r>    -0.7213     2.9443     8.1880 </r>
       <r>    -0.6769    -0.3165     8.1740 </r>
       <r>    -0.6324    -1.9041     8.0894 </r>
       <r>    -0.5880    -2.4390     7.9810 </r>
       <r>    -0.5436    -2.3387     7.8771 </r>
       <r>    -0.4991    -1.5092     7.8100 </r>
       <r>    -0.4547     0.5885     7.8362 </r>
       <r>    -0.4102     4.5204     8.0370 </r>
       <r>    -0.3658    10.2847     8.4940 </r>
       <r>    -0.3214    16.8903     9.2446 </r>
       <r>    -0.2769    22.4870    10.2438 </r>
       <r>    -0.2325    25.1375    11.3608 </r>
       <r>    -0.1881    23.8273    12.4196 </r>
       <r>    -0.1436    19.0319    13.2653 </r>
       <r>    -0.0992    12.4310    13.8177 </r>
       <r>    -0.0548     5.9861    14.0837 </r>
       <r>    -0.0103     1.0516    14.1305 </r>
       <r>     0.0341    -1.9202    14.0451 </r>
       <r>     0.0786    -3.0274    13.9106 </r>
       <r>     0.1230    -2.3300    13.8071 </r>
       <r>     0.1674     0.4579    13.8274 </r>
       <r>     0.2119     5.7236    14.0817 </r>
       <r>     0.2563    13.3026    14.6729 </r>
       <r>     0.3007    21.9171    15.6468 </r>
       <r>     0.3452    29.2591    16.9469 </r>
       <r>     0.3896    32.8828    18.4081 </r>
       <r>     0.4340    31.4368    19.8051 </r>
       <r>     0.4785    25.4059    20.9340 </r>
       <r>     0.5229    16.8226    21.6815 </r>
       <r>     0.5674     8.1746    22.0448 </r>
       <r>     0.6118     1.3165    22.1033 </r>
       <r>     0.6562    -2.8987    21.9745 </r>
       <r>     0.7007    -4.1943    21.7881 </r>
       <r>     0.7451    -2.2147    21.6897 </r>
       <r>     0.7895     3.6360    21.8513 </r>
       <r>     0.8340    13.5601    22.4538 </r>
       <r>     0.8784    26.3624    23.6253 </r>
       <r>     0.9228    39.0087    25.3587 </r>
       <r>     0.9673    47.4846    27.4687 </r>
       <r>     1.0117    48.7527    29.6351 </r>
       <r>     1.0562    42.5989    31.5280 </r>
       <r>     1.1006    32.0074    32.9503 </r>
       <r>     1.1450    21.6596    33.9128 </r>
       <r>     1.1895    15.4696    34.6002 </r>
       <r>     1.2339    14.6858    35.2528 </r>
       <r>     1.2783    17.6094    36.0353 </r>
       <r>     1.3228    20.9119    36.9645 </r>
       <r>     1.3672    21.6361    37.9259 </r>
       <r>     1.4116    18.7258    38.7580 </r>
       <r>     1.4561    13.3511    39.3513 </r>
       <r>     1.5005     8.0543    39.7092 </r>
       <r>     1.5449     5.3644    39.9476 </r>
       <r>     1.5894     6.6885    40.2448 </r>
       <r>     1.6338    11.9794    40.7771 </r>
       <r>     1.6783    20.1725    41.6735 </r>
       <r>     1.7227    29.9563    43.0046 </r>
       <r>     1.7671    40.3199    44.7963 </r>
       <r>     1.8116    50.5865    47.0442 </r>
       <r>     1.8560    60.1554    49.7173 </r>
       <r>     1.9004    68.4622    52.7595 </r>
       <r>     1.9449    75.3663    56.1085 </r>
       <r>     1.9893    81.5207    59.7309 </r>
       <r>     2.0337    88.0402    63.6431 </r>
       <r>     2.0782    95.4189    67.8832 </r>
       <r>     2.1226   102.6217    72.4433 </r>
       <r>     2.1671   107.4818    77.2194 </r>
       <r>     2.2115   108.4676    82.0392 </r>
       <r>     2.2559   106.4242    86.7683 </r>
       <r>     2.3004   104.5468    91.4140 </r>
       <r>     2.3448   106.2253    96.1343 </r>
       <r>     2.3892   112.3698   101.1275 </r>
       <r>     2.4337   120.4837   106.4814 </r>
       <r>     2.4781   126.3362   112.0953 </r>
       <r>     2.5225   126.8903   117.7338 </r>
       <r>     2.5670   122.2138   123.1645 </r>
       <r>     2.6114   115.1587   128.2817 </r>
       <r>     2.6559   109.4355   133.1446 </r>
       <r>     2.7003   107.6771   137.9294 </r>
       <r>     2.7447   110.6942   142.8482 </r>
       <r>     2.7892   118.0521   148.0940 </r>
       <r>     2.8336   129.1314   153.8321 </r>
       <r>     2.8780   143.4804   160.2079 </r>
       <r>     2.9225   159.8898   167.3128 </r>
       <r>     2.9669   175.0994   175.0935 </r>
       <r>     3.0113   184.1065   183.2745 </r>
       <r>     3.0558   183.0632   191.4092 </r>
       <r>     3.1002   172.9602   199.0948 </r>
       <r>     3.1447   160.4664   206.2254 </r>
       <r>     3.1891   154.0280   213.0698 </r>
       <r>     3.2335   157.6522   220.0753 </r>
       <r>     3.2780   167.5159   227.5190 </r>
       <r>     3.3224   174.5754   235.2765 </r>
       <r>     3.3668   171.2803   242.8875 </r>
       <r>     3.4113   157.0528   249.8664 </r>
       <r>     3.4557   138.4837   256.0201 </r>
       <r>     3.5001   124.7246   261.5624 </r>
       <r>     3.5446   122.0332   266.9851 </r>
       <r>     3.5890   131.0928   272.8103 </r>
       <r>     3.6335   147.7433   279.3755 </r>
       <r>     3.6779   165.3788   286.7243 </r>
       <r>     3.7223   177.2970   294.6027 </r>
       <r>     3.7668   178.5747   302.5379 </r>
       <r>     3.8112   167.5800   309.9845 </r>
       <r>     3.8556   146.7340   316.5048 </r>
       <r>     3.9001   121.8898   321.9211 </r>
       <r>     3.9445   100.3846   326.3818 </r>
       <r>     3.9889    88.5983   330.3188 </r>
       <r>     4.0334    89.8551   334.3116 </r>
       <r>     4.0778   103.1188   338.8938 </r>
       <r>     4.1223   122.9431   344.3570 </r>
       <r>     4.1667   141.2592   350.6340 </r>
       <r>     4.2111   150.9027   357.3395 </r>
       <r>     4.2556   149.3640   363.9767 </r>
       <r>     4.3000   140.4467   370.2176 </r>
       <r>     4.3444   132.4657   376.1039 </r>
       <r>     4.3889   133.8171   382.0502 </r>
       <r>     4.4333   148.4905   388.6486 </r>
       <r>     4.4777   174.0801   396.3840 </r>
       <r>     4.5222   203.1689   405.4121 </r>
       <r>     4.5666   226.8806   415.4938 </r>
       <r>     4.6110   238.3763   426.0864 </r>
       <r>     4.6555   234.7307   436.5169 </r>
       <r>     4.6999   217.2011   446.1685 </r>
       <r>     4.7444   190.8219   454.6479 </r>
       <r>     4.7888   163.6536   461.9200 </r>
       <r>     4.8332   144.9386   468.3606 </r>
       <r>     4.8777   141.6913   474.6568 </r>
       <r>     4.9221   155.1300   481.5502 </r>
       <r>     4.9665   179.7014   489.5354 </r>
       <r>     5.0110   206.1187   498.6946 </r>
       <r>     5.0554   226.5742   508.7627 </r>
       <r>     5.0998   238.3272   519.3530 </r>
       <r>     5.1443   243.3466   530.1664 </r>
       <r>     5.1887   245.1616   541.0605 </r>
       <r>     5.2332   246.1050   551.9964 </r>
       <r>     5.2776   246.9983   562.9721 </r>
       <r>     5.3220   248.5736   574.0178 </r>
       <r>     5.3665   252.3691   585.2321 </r>
       <r>     5.4109   259.6881   596.7717 </r>
       <r>     5.4553   269.3493   608.7405 </r>
       <r>     5.4998   276.3857   621.0221 </r>
       <r>     5.5442   273.4332   633.1724 </r>
       <r>     5.5886   254.6362   644.4875 </r>
       <r>     5.6331   219.8588   654.2572 </r>
       <r>     5.6775   176.3167   662.0920 </r>
       <r>     5.7220   136.1310   668.1412 </r>
       <r>     5.7664   110.9754   673.0725 </r>
       <r>     5.8108   106.9903   677.8267 </r>
       <r>     5.8553   122.8021   683.2836 </r>
       <r>     5.8997   151.0874   689.9973 </r>
       <r>     5.9441   181.8489   698.0780 </r>
       <r>     5.9886   205.3361   707.2024 </r>
       <r>     6.0330   214.0556   716.7142 </r>
       <r>     6.0774   204.5360   725.8030 </r>
       <r>     6.1219   179.0766   733.7605 </r>
       <r>     6.1663   146.3594   740.2642 </r>
       <r>     6.2108   119.3988   745.5698 </r>
       <r>     6.2552   110.7175   750.4897 </r>
       <r>     6.2996   126.8202   756.1251 </r>
       <r>     6.3441   165.0030   763.4572 </r>
       <r>     6.3885   214.3149   772.9805 </r>
       <r>     6.4329   259.9938   784.5337 </r>
       <r>     6.4774   288.9171   797.3720 </r>
       <r>     6.5218   293.6645   810.4214 </r>
       <r>     6.5662   274.0964   822.6012 </r>
       <r>     6.6107   236.5783   833.1138 </r>
       <r>     6.6551   191.5196   841.6242 </r>
       <r>     6.6996   150.0457   848.2917 </r>
       <r>     6.7440   120.7492   853.6573 </r>
       <r>     6.7884   107.4817   858.4334 </r>
       <r>     6.8329   108.9235   863.2736 </r>
       <r>     6.8773   120.1822   868.6140 </r>
       <r>     6.9217   135.9013   874.6529 </r>
       <r>     6.9662   153.3652   881.4679 </r>
       <r>     7.0106   173.5269   889.1788 </r>
       <r>     7.0550   198.7159   898.0090 </r>
       <r>     7.0995   228.2052   908.1496 </r>
       <r>     7.1439   255.1622   919.4880 </r>
       <r>     7.1883   268.3625   931.4130 </r>
       <r>     7.2328   258.6507   942.9065 </r>
       <r>     7.2772   226.0051   952.9493 </r>
       <r>     7.3217   181.9308   961.0336 </r>
       <r>     7.3661   144.9473   967.4745 </r>
       <r>     7.4105   131.5416   973.3197 </r>
       <r>     7.4550   147.6004   979.8785 </r>
       <r>     7.4994   184.8353   988.0919 </r>
       <r>     7.5438   224.1386   998.0518 </r>
       <r>     7.5883   244.4945  1008.9162 </r>
       <r>     7.6327   233.0558  1019.2723 </r>
       <r>     7.6771   190.9034  1027.7553 </r>
       <r>     7.7216   131.2871  1033.5892 </r>
       <r>     7.7660    71.8753  1036.7831 </r>
       <r>     7.8105    26.2125  1037.9479 </r>
       <r>     7.8549    -0.7145  1037.9161 </r>
       <r>     7.8993   -11.5207  1037.4042 </r>
       <r>     7.9438   -12.3757  1036.8543 </r>
       <r>     7.9882    -9.1305  1036.4485 </r>
       <r>     8.0326    -5.4354  1036.2070 </r>
       <r>     8.0771    -2.7498  1036.0848 </r>
       <r>     8.1215    -1.2103  1036.0310 </r>
       <r>     8.1659    -0.4694  1036.0102 </r>
       <r>     8.2104    -0.1616  1036.0030 </r>
       <r>     8.2548    -0.0497  1036.0008 </r>
       <r>     8.2993    -0.0137  1036.0002 </r>
       <r>     8.3437    -0.0034  1036.0000 </r>
       <r>     8.3881    -0.0008  1036.0000 </r>
       <r>     8.4326    -0.0002  1036.0000 </r>
       <r>     8.4770    -0.0000  1036.0000 </r>
       <r>     8.5214    -0.0000  1036.0000 </r>
       <r>     8.5659    -0.0000  1036.0000 </r>
       <r>     8.6103    -0.0000  1036.0000 </r>
       <r>     8.6547    -0.0000  1036.0000 </r>
       <r>     8.6992    -0.0000  1036.0000 </r>
       <r>     8.7436    -0.0000  1036.0000 </r>
       <r>     8.7881    -0.0000  1036.0000 </r>
       <r>     8.8325    -0.0000  1036.0000 </r>
       <r>     8.8769    -0.0000  1036.0000 </r>
       <r>     8.9214     0.0000  1036.0000 </r>
       <r>     8.9658     0.0000  1036.0000 </r>
       <r>     9.0102     0.0000  1036.0000 </r>
       <r>     9.0547     0.0000  1036.0000 </r>
       <r>     9.0991     0.0000  1036.0000 </r>
       <r>     9.1435     0.0000  1036.0000 </r>
       <r>     9.1880     0.0000  1036.0000 </r>
       <r>     9.2324     0.0000  1036.0000 </r>
       <r>     9.2769     0.0000  1036.0000 </r>
       <r>     9.3213     0.0000  1036.0000 </r>
       <r>     9.3657     0.0000  1036.0000 </r>
       <r>     9.4102     0.0000  1036.0000 </r>
       <r>     9.4546     0.0000  1036.0000 </r>
       <r>     9.4990     0.0000  1036.0000 </r>
       <r>     9.5435     0.0000  1036.0000 </r>
       <r>     9.5879     0.0000  1036.0000 </r>
       <r>     9.6323     0.0000  1036.0000 </r>
      </set>
     </set>
    </array>
   </total>
  </dos>
 </calculation>
 <structure name="finalpos" >
  <crystal>
   <varray name="basis" >
    <v>      10.33042288      -0.00000000       0.00000000 </v>
    <v>       0.00000000      10.33042288      -0.00000000 </v>
    <v>       0.00000000      -0.00000000      10.33042288 </v>
   </varray>
   <i name="volume">   1102.43831910 </i>
   <varray name="rec_basis" >
    <v>       0.09680146      -0.00000000      -0.00000000 </v>
    <v>       0.00000000       0.09680146       0.00000000 </v>
    <v>      -0.00000000       0.00000000       0.09680146 </v>
   </varray>
  </crystal>
  <varray name="positions" >
   <v>       0.00000000      -0.00000000       0.00000000 </v>
   <v>      -0.00000000       0.16666893       0.16666893 </v>
   <v>       0.16666893       0.00000000       0.16666893 </v>
   <v>       0.16666893       0.16666893       0.00000000 </v>
   <v>       0.33333106       0.00000000       0.00000000 </v>
   <v>       0.33333107       0.16666893       0.16666893 </v>
   <v>       0.50000000      -0.00000000       0.16666894 </v>
   <v>       0.50000000       0.16666894       0.00000000 </v>
   <v>       0.66666897       0.00000000       0.00000000 </v>
   <v>       0.66666896       0.16666893       0.16666893 </v>
   <v>       0.83333104       0.00000000       0.16666893 </v>
   <v>       0.83333104       0.16666893      -0.00000000 </v>
   <v>      -0.00000000       0.33333106       0.00000000 </v>
   <v>      -0.00000000       0.50000000       0.16666894 </v>
   <v>       0.16666893       0.33333107       0.16666893 </v>
   <v>       0.16666894       0.50000000      -0.00000000 </v>
   <v>       0.33333107       0.33333107       0.00000000 </v>
   <v>       0.33333107       0.50000000       0.16666893 </v>
   <v>       0.50000000       0.33333107       0.16666893 </v>
   <v>       0.50000000       0.50000000       0.00000000 </v>
   <v>       0.66666896       0.33333107       0.00000000 </v>
   <v>       0.66666896       0.50000000       0.16666893 </v>
   <v>       0.83333104       0.33333107       0.16666893 </v>
   <v>       0.83333103       0.50000000      -0.00000000 </v>
   <v>       0.00000000       0.66666897       0.00000000 </v>
   <v>       0.00000000       0.83333104       0.16666893 </v>
   <v>       0.16666893       0.66666896       0.16666893 </v>
   <v>       0.16666893       0.83333104      -0.00000000 </v>
   <v>       0.33333107       0.66666896      -0.00000000 </v>
   <v>       0.33333107       0.83333104       0.16666893 </v>
   <v>       0.50000000       0.66666896       0.16666893 </v>
   <v>       0.50000000       0.83333103       0.00000000 </v>
   <v>       0.66666896       0.66666896      -0.00000000 </v>
   <v>       0.66666896       0.83333104       0.16666893 </v>
   <v>       0.83333104       0.66666896       0.16666893 </v>
   <v>       0.83333104       0.83333104      -0.00000000 </v>
   <v>      -0.00000000      -0.00000000       0.33333106 </v>
   <v>      -0.00000000       0.16666894       0.50000000 </v>
   <v>       0.16666894      -0.00000000       0.50000000 </v>
   <v>       0.16666893       0.16666893       0.33333107 </v>
   <v>       0.33333107       0.00000000       0.33333107 </v>
   <v>       0.33333107       0.16666893       0.50000000 </v>
   <v>       0.50000000      -0.00000000       0.50000000 </v>
   <v>       0.50000000       0.16666893       0.33333107 </v>
   <v>       0.66666896      -0.00000000       0.33333107 </v>
   <v>       0.66666896       0.16666893       0.50000000 </v>
   <v>       0.83333103      -0.00000000       0.50000000 </v>
   <v>       0.83333104       0.16666893       0.33333107 </v>
   <v>      -0.00000000       0.33333107       0.33333107 </v>
   <v>      -0.00000000       0.50000000       0.50000000 </v>
   <v>       0.16666893       0.33333107       0.50000000 </v>
   <v>       0.16666893       0.50000000       0.33333107 </v>
   <v>       0.33333107       0.33333107       0.33333107 </v>
   <v>       0.33333106       0.50000000       0.50000000 </v>
   <v>       0.50000000       0.33333106       0.50000000 </v>
   <v>       0.50000000       0.50000000       0.33333106 </v>
   <v>       0.66666896       0.33333107       0.33333107 </v>
   <v>       0.66666897       0.50000000       0.50000000 </v>
   <v>       0.83333104       0.33333107       0.50000000 </v>
   <v>       0.83333104       0.50000000       0.33333107 </v>
   <v>       0.00000000       0.66666896       0.33333107 </v>
   <v>       0.00000000       0.83333103       0.50000000 </v>
   <v>       0.16666893       0.66666896       0.50000000 </v>
   <v>       0.16666893       0.83333104       0.33333107 </v>
   <v>       0.33333107       0.66666896       0.33333107 </v>
   <v>       0.33333107       0.83333104       0.50000000 </v>
   <v>       0.50000000       0.66666897       0.50000000 </v>
   <v>       0.50000000       0.83333104       0.33333107 </v>
   <v>       0.66666896       0.66666896       0.33333107 </v>
   <v>       0.66666896       0.83333104       0.50000000 </v>
   <v>       0.83333104       0.66666896       0.50000000 </v>
   <v>       0.83333104       0.83333104       0.33333107 </v>
   <v>       0.00000000      -0.00000000       0.66666897 </v>
   <v>      -0.00000000       0.16666893       0.83333104 </v>
   <v>       0.16666893       0.00000000       0.83333104 </v>
   <v>       0.16666893       0.16666893       0.66666896 </v>
   <v>       0.33333107      -0.00000000       0.66666896 </v>
   <v>       0.33333107       0.16666893       0.83333104 </v>
   <v>       0.50000000      -0.00000000       0.83333103 </v>
   <v>       0.50000000       0.16666893       0.66666896 </v>
   <v>       0.66666896       0.00000000       0.66666896 </v>
   <v>       0.66666896       0.16666893       0.83333104 </v>
   <v>       0.83333104      -0.00000000       0.83333104 </v>
   <v>       0.83333104       0.16666893       0.66666896 </v>
   <v>      -0.00000000       0.33333107       0.66666896 </v>
   <v>       0.00000000       0.50000000       0.83333103 </v>
   <v>       0.16666893       0.33333107       0.83333104 </v>
   <v>       0.16666893       0.50000000       0.66666896 </v>
   <v>       0.33333107       0.33333107       0.66666896 </v>
   <v>       0.33333107       0.50000000       0.83333104 </v>
   <v>       0.50000000       0.33333107       0.83333104 </v>
   <v>       0.50000000       0.50000000       0.66666897 </v>
   <v>       0.66666896       0.33333107       0.66666896 </v>
   <v>       0.66666896       0.50000000       0.83333104 </v>
   <v>       0.83333104       0.33333107       0.83333104 </v>
   <v>       0.83333104       0.50000000       0.66666896 </v>
   <v>       0.00000000       0.66666896       0.66666896 </v>
   <v>      -0.00000000       0.83333104       0.83333104 </v>
   <v>       0.16666893       0.66666896       0.83333104 </v>
   <v>       0.16666893       0.83333104       0.66666896 </v>
   <v>       0.33333107       0.66666896       0.66666896 </v>
   <v>       0.33333107       0.83333104       0.83333104 </v>
   <v>       0.50000000       0.66666896       0.83333104 </v>
   <v>       0.50000000       0.83333104       0.66666896 </v>
   <v>       0.66666896       0.66666896       0.66666896 </v>
   <v>       0.66666896       0.83333104       0.83333104 </v>
   <v>       0.83333104       0.66666896       0.83333104 </v>
   <v>       0.83333104       0.83333104       0.66666896 </v>
  </varray>
 </structure>
</modeling>
