 108 108   0   0
  0.1022088E+02  0.1033485E-08  0.1033485E-08  0.1033485E-08  0.5000000E-15
  1.000000000000000E-004
  CAR 
 Opt                                     
      9.68392790     -3.93768079  301      6.77678254      1.00000000
     -3.938  0.0000E+00  0.0000E+00
     -3.892  0.0000E+00  0.0000E+00
     -3.847  0.0000E+00  0.0000E+00
     -3.801  0.0000E+00  0.0000E+00
     -3.756  0.0000E+00  0.0000E+00
     -3.711  0.0000E+00  0.0000E+00
     -3.665  0.0000E+00  0.0000E+00
     -3.620  0.0000E+00  0.0000E+00
     -3.574 -0.1041E-29 -0.4728E-31
     -3.529 -0.3847E-28 -0.1794E-29
     -3.484 -0.1312E-26 -0.6137E-28
     -3.438 -0.4031E-25 -0.1892E-26
     -3.393 -0.1116E-23 -0.5256E-25
     -3.347 -0.2782E-22 -0.1316E-23
     -3.302 -0.6248E-21 -0.2968E-22
     -3.257 -0.1264E-19 -0.6034E-21
     -3.211 -0.2301E-18 -0.1105E-19
     -3.166 -0.3773E-17 -0.1824E-18
     -3.120 -0.5262E-16 -0.2572E-17
     -3.075 -0.7181E-15 -0.3518E-16
     -3.030 -0.8544E-14 -0.4231E-15
     -2.984 -0.9156E-13 -0.4580E-14
     -2.939 -0.8820E-12 -0.4463E-13
     -2.893 -0.7633E-11 -0.3912E-12
     -2.848 -0.5932E-10 -0.3085E-11
     -2.803 -0.4138E-09 -0.2187E-10
     -2.757 -0.2588E-08 -0.1394E-09
     -2.712 -0.1451E-07 -0.7980E-09
     -2.666 -0.7277E-07 -0.4102E-08
     -2.621 -0.3263E-06 -0.1892E-07
     -2.576 -0.1306E-05 -0.7820E-07
     -2.530 -0.4652E-05 -0.2894E-06
     -2.485 -0.1472E-04 -0.9576E-06
     -2.439 -0.4117E-04 -0.2827E-05
     -2.394 -0.1013E-03 -0.7427E-05
     -2.348 -0.2174E-03 -0.1730E-04
     -2.303 -0.4013E-03 -0.3552E-04
     -2.258 -0.6211E-03 -0.6372E-04
     -2.212 -0.7599E-03 -0.9823E-04
     -2.167 -0.6008E-03 -0.1255E-03
     -2.121  0.1252E-03 -0.1198E-03
     -2.076  0.1634E-02 -0.4563E-04
     -2.031  0.4006E-02  0.1363E-03
     -1.985  0.7218E-02  0.4640E-03
     -1.940  0.1126E-01  0.9752E-03
     -1.894  0.1616E-01  0.1709E-02
     -1.849  0.2182E-01  0.2700E-02
     -1.804  0.2770E-01  0.3958E-02
     -1.758  0.3292E-01  0.5452E-02
     -1.713  0.3664E-01  0.7116E-02
     -1.667  0.3862E-01  0.8870E-02
     -1.622  0.3934E-01  0.1066E-01
     -1.577  0.3964E-01  0.1246E-01
     -1.531  0.4032E-01  0.1429E-01
     -1.486  0.4190E-01  0.1619E-01
     -1.440  0.4467E-01  0.1822E-01
     -1.395  0.4874E-01  0.2043E-01
     -1.350  0.5409E-01  0.2289E-01
     -1.304  0.6037E-01  0.2563E-01
     -1.259  0.6675E-01  0.2866E-01
     -1.213  0.7166E-01  0.3191E-01
     -1.168  0.7328E-01  0.3524E-01
     -1.123  0.7053E-01  0.3844E-01
     -1.077  0.6408E-01  0.4135E-01
     -1.032  0.5651E-01  0.4392E-01
     -0.986  0.5119E-01  0.4624E-01
     -0.941  0.5077E-01  0.4855E-01
     -0.896  0.5618E-01  0.5110E-01
     -0.850  0.6661E-01  0.5412E-01
     -0.805  0.8013E-01  0.5776E-01
     -0.759  0.9431E-01  0.6204E-01
     -0.714  0.1064E+00  0.6687E-01
     -0.668  0.1134E+00  0.7202E-01
     -0.623  0.1129E+00  0.7715E-01
     -0.578  0.1040E+00  0.8187E-01
     -0.532  0.8950E-01  0.8594E-01
     -0.487  0.7448E-01  0.8932E-01
     -0.441  0.6476E-01  0.9226E-01
     -0.396  0.6402E-01  0.9517E-01
     -0.351  0.7241E-01  0.9845E-01
     -0.305  0.8694E-01  0.1024E+00
     -0.260  0.1032E+00  0.1071E+00
     -0.214  0.1168E+00  0.1124E+00
     -0.169  0.1250E+00  0.1181E+00
     -0.124  0.1266E+00  0.1238E+00
     -0.078  0.1229E+00  0.1294E+00
     -0.033  0.1170E+00  0.1347E+00
      0.013  0.1125E+00  0.1398E+00
      0.058  0.1121E+00  0.1449E+00
      0.103  0.1162E+00  0.1502E+00
      0.149  0.1232E+00  0.1558E+00
      0.194  0.1306E+00  0.1617E+00
      0.240  0.1365E+00  0.1679E+00
      0.285  0.1402E+00  0.1743E+00
      0.330  0.1416E+00  0.1807E+00
      0.376  0.1407E+00  0.1871E+00
      0.421  0.1375E+00  0.1933E+00
      0.467  0.1323E+00  0.1993E+00
      0.512  0.1260E+00  0.2051E+00
      0.557  0.1210E+00  0.2106E+00
      0.603  0.1209E+00  0.2160E+00
      0.648  0.1290E+00  0.2219E+00
      0.694  0.1466E+00  0.2286E+00
      0.739  0.1708E+00  0.2363E+00
      0.784  0.1950E+00  0.2452E+00
      0.830  0.2116E+00  0.2548E+00
      0.875  0.2166E+00  0.2646E+00
      0.921  0.2116E+00  0.2742E+00
      0.966  0.2021E+00  0.2834E+00
      1.012  0.1933E+00  0.2922E+00
      1.057  0.1864E+00  0.3006E+00
      1.102  0.1794E+00  0.3088E+00
      1.148  0.1707E+00  0.3165E+00
      1.193  0.1628E+00  0.3239E+00
      1.239  0.1626E+00  0.3313E+00
      1.284  0.1773E+00  0.3394E+00
      1.329  0.2093E+00  0.3489E+00
      1.375  0.2531E+00  0.3603E+00
      1.420  0.2969E+00  0.3738E+00
      1.466  0.3277E+00  0.3887E+00
      1.511  0.3363E+00  0.4040E+00
      1.556  0.3218E+00  0.4186E+00
      1.602  0.2927E+00  0.4319E+00
      1.647  0.2644E+00  0.4439E+00
      1.693  0.2548E+00  0.4555E+00
      1.738  0.2784E+00  0.4681E+00
      1.783  0.3414E+00  0.4836E+00
      1.829  0.4401E+00  0.5036E+00
      1.874  0.5620E+00  0.5291E+00
      1.920  0.6907E+00  0.5605E+00
      1.965  0.8112E+00  0.5973E+00
      2.010  0.9130E+00  0.6387E+00
      2.056  0.9900E+00  0.6837E+00
      2.101  0.1038E+01  0.7308E+00
      2.147  0.1057E+01  0.7788E+00
      2.192  0.1050E+01  0.8265E+00
      2.237  0.1030E+01  0.8732E+00
      2.283  0.1013E+01  0.9192E+00
      2.328  0.1013E+01  0.9652E+00
      2.374  0.1035E+01  0.1012E+01
      2.419  0.1073E+01  0.1061E+01
      2.464  0.1113E+01  0.1111E+01
      2.510  0.1145E+01  0.1163E+01
      2.555  0.1168E+01  0.1216E+01
      2.601  0.1192E+01  0.1271E+01
      2.646  0.1229E+01  0.1326E+01
      2.692  0.1284E+01  0.1385E+01
      2.737  0.1350E+01  0.1446E+01
      2.782  0.1413E+01  0.1510E+01
      2.828  0.1467E+01  0.1577E+01
      2.873  0.1513E+01  0.1645E+01
      2.919  0.1561E+01  0.1716E+01
      2.964  0.1615E+01  0.1790E+01
      3.009  0.1668E+01  0.1865E+01
      3.055  0.1705E+01  0.1943E+01
      3.100  0.1714E+01  0.2021E+01
      3.146  0.1694E+01  0.2097E+01
      3.191  0.1655E+01  0.2173E+01
      3.236  0.1612E+01  0.2246E+01
      3.282  0.1572E+01  0.2317E+01
      3.327  0.1538E+01  0.2387E+01
      3.373  0.1511E+01  0.2456E+01
      3.418  0.1495E+01  0.2524E+01
      3.463  0.1493E+01  0.2591E+01
      3.509  0.1503E+01  0.2660E+01
      3.554  0.1514E+01  0.2728E+01
      3.600  0.1511E+01  0.2797E+01
      3.645  0.1485E+01  0.2864E+01
      3.690  0.1440E+01  0.2930E+01
      3.736  0.1388E+01  0.2993E+01
      3.781  0.1347E+01  0.3054E+01
      3.827  0.1328E+01  0.3114E+01
      3.872  0.1328E+01  0.3175E+01
      3.917  0.1335E+01  0.3235E+01
      3.963  0.1329E+01  0.3295E+01
      4.008  0.1304E+01  0.3355E+01
      4.054  0.1270E+01  0.3412E+01
      4.099  0.1250E+01  0.3469E+01
      4.144  0.1263E+01  0.3527E+01
      4.190  0.1312E+01  0.3586E+01
      4.235  0.1384E+01  0.3649E+01
      4.281  0.1465E+01  0.3715E+01
      4.326  0.1547E+01  0.3786E+01
      4.372  0.1635E+01  0.3860E+01
      4.417  0.1730E+01  0.3938E+01
      4.462  0.1819E+01  0.4021E+01
      4.508  0.1878E+01  0.4106E+01
      4.553  0.1889E+01  0.4192E+01
      4.599  0.1849E+01  0.4276E+01
      4.644  0.1779E+01  0.4357E+01
      4.689  0.1717E+01  0.4435E+01
      4.735  0.1699E+01  0.4512E+01
      4.780  0.1749E+01  0.4591E+01
      4.826  0.1866E+01  0.4676E+01
      4.871  0.2022E+01  0.4768E+01
      4.916  0.2175E+01  0.4867E+01
      4.962  0.2287E+01  0.4970E+01
      5.007  0.2338E+01  0.5077E+01
      5.053  0.2333E+01  0.5183E+01
      5.098  0.2296E+01  0.5287E+01
      5.143  0.2254E+01  0.5389E+01
      5.189  0.2230E+01  0.5490E+01
      5.234  0.2242E+01  0.5592E+01
      5.280  0.2300E+01  0.5697E+01
      5.325  0.2401E+01  0.5806E+01
      5.370  0.2528E+01  0.5920E+01
      5.416  0.2641E+01  0.6040E+01
      5.461  0.2694E+01  0.6163E+01
      5.507  0.2649E+01  0.6283E+01
      5.552  0.2504E+01  0.6397E+01
      5.597  0.2293E+01  0.6501E+01
      5.643  0.2070E+01  0.6595E+01
      5.688  0.1882E+01  0.6680E+01
      5.734  0.1748E+01  0.6759E+01
      5.779  0.1655E+01  0.6835E+01
      5.824  0.1581E+01  0.6906E+01
      5.870  0.1508E+01  0.6975E+01
      5.915  0.1443E+01  0.7040E+01
      5.961  0.1402E+01  0.7104E+01
      6.006  0.1404E+01  0.7168E+01
      6.051  0.1453E+01  0.7234E+01
      6.097  0.1537E+01  0.7304E+01
      6.142  0.1635E+01  0.7378E+01
      6.188  0.1726E+01  0.7456E+01
      6.233  0.1799E+01  0.7538E+01
      6.279  0.1859E+01  0.7622E+01
      6.324  0.1917E+01  0.7709E+01
      6.369  0.1984E+01  0.7799E+01
      6.415  0.2055E+01  0.7893E+01
      6.460  0.2110E+01  0.7989E+01
      6.506  0.2132E+01  0.8085E+01
      6.551  0.2117E+01  0.8182E+01
      6.596  0.2082E+01  0.8276E+01
      6.642  0.2050E+01  0.8369E+01
      6.687  0.2032E+01  0.8461E+01
      6.733  0.2014E+01  0.8553E+01
      6.778  0.1972E+01  0.8642E+01
      6.823  0.1892E+01  0.8728E+01
      6.869  0.1788E+01  0.8809E+01
      6.914  0.1696E+01  0.8886E+01
      6.960  0.1650E+01  0.8961E+01
      7.005  0.1662E+01  0.9037E+01
      7.050  0.1715E+01  0.9115E+01
      7.096  0.1775E+01  0.9195E+01
      7.141  0.1820E+01  0.9278E+01
      7.187  0.1844E+01  0.9362E+01
      7.232  0.1856E+01  0.9446E+01
      7.277  0.1873E+01  0.9531E+01
      7.323  0.1909E+01  0.9618E+01
      7.368  0.1968E+01  0.9707E+01
      7.414  0.2044E+01  0.9800E+01
      7.459  0.2116E+01  0.9896E+01
      7.504  0.2146E+01  0.9993E+01
      7.550  0.2091E+01  0.1009E+02
      7.595  0.1918E+01  0.1018E+02
      7.641  0.1622E+01  0.1025E+02
      7.686  0.1237E+01  0.1031E+02
      7.731  0.8249E+00  0.1034E+02
      7.777  0.4557E+00  0.1036E+02
      7.822  0.1796E+00  0.1037E+02
      7.868  0.1254E-01  0.1037E+02
      7.913 -0.6115E-01  0.1037E+02
      7.959 -0.7404E-01  0.1037E+02
      8.004 -0.5857E-01  0.1036E+02
      8.049 -0.3699E-01  0.1036E+02
      8.095 -0.1977E-01  0.1036E+02
      8.140 -0.9172E-02  0.1036E+02
      8.186 -0.3739E-02  0.1036E+02
      8.231 -0.1349E-02  0.1036E+02
      8.276 -0.4332E-03  0.1036E+02
      8.322 -0.1241E-03  0.1036E+02
      8.367 -0.3182E-04  0.1036E+02
      8.413 -0.7307E-05  0.1036E+02
      8.458 -0.1505E-05  0.1036E+02
      8.503 -0.2784E-06  0.1036E+02
      8.549 -0.4628E-07  0.1036E+02
      8.594 -0.6918E-08  0.1036E+02
      8.640 -0.9304E-09  0.1036E+02
      8.685 -0.1126E-09  0.1036E+02
      8.730 -0.1227E-10  0.1036E+02
      8.776 -0.1205E-11  0.1036E+02
      8.821 -0.1064E-12  0.1036E+02
      8.867 -0.8644E-14  0.1036E+02
      8.912 -0.5379E-15  0.1036E+02
      8.957  0.0000E+00  0.1036E+02
      9.003  0.0000E+00  0.1036E+02
      9.048  0.0000E+00  0.1036E+02
      9.094  0.0000E+00  0.1036E+02
      9.139  0.0000E+00  0.1036E+02
      9.184  0.0000E+00  0.1036E+02
      9.230  0.0000E+00  0.1036E+02
      9.275  0.0000E+00  0.1036E+02
      9.321  0.0000E+00  0.1036E+02
      9.366  0.0000E+00  0.1036E+02
      9.411  0.0000E+00  0.1036E+02
      9.457  0.0000E+00  0.1036E+02
      9.502  0.0000E+00  0.1036E+02
      9.548  0.0000E+00  0.1036E+02
      9.593  0.0000E+00  0.1036E+02
      9.639  0.0000E+00  0.1036E+02
      9.684  0.0000E+00  0.1036E+02
