 running on    8 total cores
 distrk:  each k-point on    8 cores,    1 groups
 distr:  one band on    4 cores,    2 groups
 using from now: INCAR     
 vasp.5.4.4.18Apr17-6-g9f103f2a35 (build Aug 17 2017 06:00:38) complex          
  
 POSCAR found type information on POSCAR  Fe
 POSCAR found :  1 types and     108 ions
 scaLAPACK will be used
 LDA part: xc-table for Pade appr. of Perdew
 POSCAR, INCAR and KPOINTS ok, starting setup
 FFT: planning ...
 WAVECAR not read
 entering main loop
       N       E                     dE             d eps       ncg     rms          rms(c)
DAV:   1     0.915811412413E+04    0.91581E+04   -0.37742E+05  4144   0.249E+03
DAV:   2     0.264320571503E+03   -0.88938E+04   -0.87406E+04  4144   0.533E+02
DAV:   3    -0.819797478530E+03   -0.10841E+04   -0.92667E+03  4144   0.238E+02
DAV:   4    -0.102673684710E+04   -0.20694E+03   -0.19444E+03  7496   0.661E+01
DAV:   5    -0.104517515880E+04   -0.18438E+02   -0.17467E+02  6696   0.252E+01    0.935E+01
RMM:   6    -0.877168588171E+03    0.16801E+03   -0.13528E+03  4144   0.112E+02    0.884E+00
RMM:   7    -0.880283779873E+03   -0.31152E+01   -0.11183E+02  4552   0.240E+01    0.344E+00
RMM:   8    -0.879364672500E+03    0.91911E+00   -0.13178E+01  4406   0.105E+01    0.417E+00
RMM:   9    -0.879745135321E+03   -0.38046E+00   -0.48800E+00  5779   0.198E+00    0.387E+00
RMM:  10    -0.879551618675E+03    0.19352E+00   -0.10903E+00  4979   0.168E+00    0.932E-01
RMM:  11    -0.879555889574E+03   -0.42709E-02   -0.20601E-01  5092   0.732E-01    0.464E-01
RMM:  12    -0.879555626154E+03    0.26342E-03   -0.54252E-02  5071   0.371E-01    0.844E-02
RMM:  13    -0.879556357402E+03   -0.73125E-03   -0.11608E-02  6071   0.759E-02    0.289E-02
RMM:  14    -0.879556376577E+03   -0.19175E-04   -0.23256E-04  5830   0.268E-02    0.257E-02
RMM:  15    -0.879556314358E+03    0.62219E-04    0.32130E-04  4969   0.152E-02    0.815E-03
RMM:  16    -0.879556248000E+03    0.66359E-04    0.46630E-04  5457   0.720E-03    0.428E-03
RMM:  17    -0.879556208944E+03    0.39055E-04    0.35741E-04  3393   0.522E-03    0.127E-03
RMM:  18    -0.879556186246E+03    0.22699E-04    0.18817E-04  2765   0.237E-03    0.962E-04
RMM:  19    -0.879556171235E+03    0.15011E-04    0.13880E-04  2693   0.235E-03    0.640E-04
RMM:  20    -0.879556155816E+03    0.15419E-04    0.14305E-04  2619   0.194E-03    0.634E-04
RMM:  21    -0.879556136966E+03    0.18849E-04    0.17270E-04  2559   0.126E-03    0.180E-04
RMM:  22    -0.879556126635E+03    0.10331E-04    0.94420E-05  2482   0.122E-03    0.467E-04
RMM:  23    -0.879556118901E+03    0.77337E-05    0.73451E-05  2445   0.105E-03    0.170E-04
RMM:  24    -0.879556112184E+03    0.67175E-05    0.64453E-05  2135   0.805E-04    0.258E-04
RMM:  25    -0.879556106159E+03    0.60249E-05    0.58166E-05  1991   0.708E-04    0.424E-05
RMM:  26    -0.879556100626E+03    0.55328E-05    0.53697E-05  1670   0.617E-04    0.207E-04
RMM:  27    -0.879556095541E+03    0.50857E-05    0.49403E-05  1707   0.535E-04    0.884E-05
RMM:  28    -0.879556090817E+03    0.47237E-05    0.45949E-05  1422   0.501E-04    0.241E-04
RMM:  29    -0.879556086458E+03    0.43591E-05    0.42443E-05  1241   0.430E-04    0.132E-04
RMM:  30    -0.879556082413E+03    0.40448E-05    0.39469E-05  1189   0.422E-04    0.243E-04
RMM:  31    -0.879556078683E+03    0.37299E-05    0.36426E-05  1095   0.369E-04    0.185E-04
RMM:  32    -0.879556075231E+03    0.34525E-05    0.33800E-05  1025   0.366E-04    0.249E-04
RMM:  33    -0.879556072056E+03    0.31742E-05    0.31132E-05   968   0.355E-04    0.190E-04
RMM:  34    -0.879556069124E+03    0.29327E-05    0.28790E-05   885   0.342E-04    0.239E-04
RMM:  35    -0.879556066428E+03    0.26962E-05    0.26464E-05   833   0.331E-04    0.208E-04
RMM:  36    -0.879556063946E+03    0.24815E-05    0.24392E-05   852   0.334E-04    0.218E-04
RMM:  37    -0.879556061680E+03    0.22657E-05    0.22375E-05   767   0.316E-04    0.215E-04
RMM:  38    -0.879556059580E+03    0.21003E-05    0.20562E-05  1251   0.354E-04    0.123E-04
RMM:  39    -0.879556057670E+03    0.19102E-05    0.18826E-05  1029   0.303E-04    0.685E-05
RMM:  40    -0.879556055921E+03    0.17494E-05    0.17272E-05   672   0.266E-04    0.812E-05
RMM:  41    -0.879556054336E+03    0.15849E-05    0.15788E-05   691   0.298E-04    0.964E-05
RMM:  42    -0.879556052888E+03    0.14475E-05    0.14458E-05   662   0.303E-04    0.109E-04
RMM:  43    -0.879556051567E+03    0.13212E-05    0.13201E-05   629   0.300E-04    0.109E-04
RMM:  44    -0.879556050362E+03    0.12047E-05    0.12074E-05   607   0.298E-04    0.117E-04
RMM:  45    -0.879556049256E+03    0.11061E-05    0.11013E-05   845   0.319E-04    0.163E-04
RMM:  46    -0.879556048250E+03    0.10063E-05    0.10060E-05  1232   0.307E-04    0.257E-04
RMM:  47    -0.879556047333E+03    0.91705E-06    0.91816E-06   631   0.225E-04
   1 F= -.87955605E+03 E0= -.87953217E+03  d E =-.879556E+03
 curvature:   0.00 expect dE= 0.000E+00 dE for cont linesearch  0.000E+00
 trial: gam= 0.00000 g(F)=  0.290E-37 g(S)=  0.407E-01 ort = 0.000E+00 (trialstep = 0.100E+01)
 search vector abs. value=  0.407E-01
 bond charge predicted
       N       E                     dE             d eps       ncg     rms          rms(c)
DAV:   1    -0.879973313107E+03   -0.41726E+00   -0.11344E+01  4728   0.107E+01    0.504E+00
RMM:   2    -0.879544644734E+03    0.42867E+00   -0.37465E+00  4152   0.532E+00    0.620E-01
RMM:   3    -0.879542224504E+03    0.24202E-02   -0.29999E-01  4605   0.992E-01    0.499E-01
RMM:   4    -0.879536061146E+03    0.61634E-02   -0.12414E-01  4144   0.116E+00    0.531E-01
RMM:   5    -0.879539414796E+03   -0.33537E-02   -0.19582E-02  4234   0.331E-01    0.107E+00
RMM:   6    -0.879532571093E+03    0.68437E-02   -0.24790E-02  4159   0.437E-01    0.827E-02
RMM:   7    -0.879532706714E+03   -0.13562E-03   -0.33754E-03  5321   0.652E-02    0.102E-01
RMM:   8    -0.879532615670E+03    0.91044E-04   -0.32193E-04  4197   0.501E-02    0.583E-02
RMM:   9    -0.879532616314E+03   -0.64319E-06   -0.35078E-04  4189   0.456E-02    0.105E-02
RMM:  10    -0.879532623871E+03   -0.75579E-05   -0.72786E-05  5141   0.826E-03    0.650E-03
RMM:  11    -0.879532620759E+03    0.31129E-05   -0.95497E-07  2361   0.316E-03    0.306E-03
RMM:  12    -0.879532620082E+03    0.67671E-06   -0.18690E-06  2362   0.382E-03
   2 F= -.87953262E+03 E0= -.87951042E+03  d E =0.234273E-01
 trial-energy change:    0.023427  1 .order    0.022129   -0.040662    0.084919
 step:   0.3105(harm=  0.3238)  dis= 0.00000  next Energy=  -879.562321 (dE=-0.627E-02)
 bond charge predicted
       N       E                     dE             d eps       ncg     rms          rms(c)
DAV:   1    -0.879770471851E+03   -0.23785E+00   -0.53447E+00  4600   0.730E+00    0.344E+00
RMM:   2    -0.879568260219E+03    0.20221E+00   -0.17361E+00  4153   0.364E+00    0.428E-01
RMM:   3    -0.879568360331E+03   -0.10011E-03   -0.14411E-01  4613   0.674E-01    0.341E-01
RMM:   4    -0.879566135522E+03    0.22248E-02   -0.53419E-02  4144   0.756E-01    0.543E-01
RMM:   5    -0.879565999249E+03    0.13627E-03   -0.71421E-03  4285   0.197E-01    0.460E-01
RMM:   6    -0.879563889558E+03    0.21097E-02   -0.15345E-02  4166   0.337E-01    0.544E-02
RMM:   7    -0.879563994453E+03   -0.10489E-03   -0.18390E-03  4831   0.458E-02    0.833E-02
RMM:   8    -0.879563851328E+03    0.14312E-03   -0.42644E-04  4151   0.635E-02    0.314E-02
RMM:   9    -0.879563809008E+03    0.42320E-04   -0.16806E-04  4296   0.268E-02    0.208E-03
RMM:  10    -0.879563814323E+03   -0.53151E-05   -0.17902E-05  3646   0.382E-03    0.453E-03
RMM:  11    -0.879563815139E+03   -0.81613E-06   -0.57060E-07  2233   0.231E-03
   3 F= -.87956382E+03 E0= -.87954050E+03  d E =-.776781E-02
 curvature:  -0.16 expect dE=-0.220E-03 dE for cont linesearch -0.220E-03
 trial: gam=-0.14946 g(F)=  0.229E-37 g(S)=  0.136E-02 ort = 0.744E-02 (trialstep = 0.862E+00)
 search vector abs. value=  0.455E-04
 reached required accuracy - stopping structural energy minimisation
