 vasp.5.4.4.18Apr17-6-g9f103f2a35 (build Aug 17 2017 06:00:38) complex          
  
 executed on             LinuxIFC date 2019.07.12  14:47:01
 running on    8 total cores
 distrk:  each k-point on    8 cores,    1 groups
 distr:  one band on NCORES_PER_BAND=   4 cores,    2 groups


--------------------------------------------------------------------------------------------------------


 INCAR:
 POTCAR:   PAW_PBE Fe 06Sep2000                   
 POTCAR:   PAW_PBE Fe 06Sep2000                   
   VRHFIN =Fe:  d7 s1                                                           
   LEXCH  = PE                                                                  
   EATOM  =   594.4687 eV,   43.6922 Ry                                         
                                                                                
   TITEL  = PAW_PBE Fe 06Sep2000                                                
   LULTRA =        F    use ultrasoft PP ?                                      
   IUNSCR =        1    unscreen: 0-lin 1-nonlin 2-no                           
   RPACOR =    2.000    partial core radius                                     
   POMASS =   55.847; ZVAL   =    8.000    mass and valenz                      
   RCORE  =    2.300    outmost cutoff radius                                   
   RWIGS  =    2.460; RWIGS  =    1.302    wigner-seitz radius (au A)           
   ENMAX  =  267.883; ENMIN  =  200.912 eV                                      
   RCLOC  =    1.701    cutoff for local pot                                    
   LCOR   =        T    correct aug charges                                     
   LPAW   =        T    paw PP                                                  
   EAUG   =  511.368                                                            
   DEXC   =    -.022                                                            
   RMAX   =    2.817    core radius for proj-oper                               
   RAUG   =    1.300    factor for augmentation sphere                          
   RDEP   =    2.442    radius for radial grids                                 
   QCUT   =   -4.437; QGAM   =    8.874    optimization parameters              
                                                                                
   Description                                                                  
     l     E      TYP  RCUT    TYP  RCUT                                        
     2   .000     23  2.300                                                     
     2   .000     23  2.300                                                     
     0   .000     23  2.300                                                     
     0   .000     23  2.300                                                     
     1  -.200     23  2.300                                                     
     1   .000     23  2.300                                                     
     3   .000      7   .000                                                     
  local pseudopotential read in
  partial core-charges read in
  atomic valenz-charges read in
  non local Contribution for L=           2  read in
    real space projection operators read in
  non local Contribution for L=           2  read in
    real space projection operators read in
  non local Contribution for L=           0  read in
    real space projection operators read in
  non local Contribution for L=           0  read in
    real space projection operators read in
  non local Contribution for L=           1  read in
    real space projection operators read in
  non local Contribution for L=           1  read in
    real space projection operators read in
    PAW grid and wavefunctions read in
 
   number of l-projection  operators is LMAX  =           6
   number of lm-projection operators is LMMAX =          18
 
 Optimization of the real space projectors (new method)

 maximal supplied QI-value         = 16.25
 optimisation between [QCUT,QGAM] = [ 12.51, 25.03] = [ 43.85,175.40] Ry 
 Optimized for a Real-space Cutoff    1.35 Angstroem

   l    n(q)    QCUT    max X(q) W(low)/X(q) W(high)/X(q)  e(spline) 
   2      9    12.514     4.378    0.44E-04    0.12E-04    0.60E-07
   2      9    12.514    23.237    0.12E-03    0.34E-03    0.59E-06
   0     10    12.514    17.641    0.16E-04    0.50E-05    0.11E-07
   0     10    12.514    50.908    0.15E-03    0.74E-04    0.88E-07
   1     10    12.514     6.148    0.17E-04    0.29E-04    0.49E-07
   1     10    12.514     8.345    0.97E-04    0.61E-04    0.20E-06
 PAW_PBE Fe 06Sep2000                   :
 energy of atom  1       EATOM= -594.4687
 kinetic energy error for atom=    0.0017 (will be added to EATOM!!)
 
 
 POSCAR: fcc_Fe_CON_333                          
  positions in direct lattice
  velocities in cartesian coordinates
 exchange correlation table for  LEXCH =        8
   RHO(1)=    0.500       N(1)  =     2000
   RHO(2)=  100.500       N(2)  =     4000
 


--------------------------------------------------------------------------------------------------------


 ion  position               nearest neighbor table
   1  0.000  0.000  0.000-   2 2.44   3 2.44   4 2.44  11 2.44  12 2.44  26 2.44  28 2.44  74 2.44
                            75 2.44  36 2.44  83 2.44  98 2.44
   2  0.000  0.167  0.167-  49 2.44  37 2.44  13 2.44  40 2.44  15 2.44  48 2.44  23 2.44   3 2.44
                             4 2.44   1 2.44  12 2.44  11 2.44
   3  0.167  0.000  0.167-  41 2.44  37 2.44   5 2.44  40 2.44   6 2.44  30 2.44  64 2.44   2 2.44
                             4 2.44   1 2.44  28 2.44  26 2.44
   4  0.167  0.167  0.000-  17 2.44  13 2.44   5 2.44  15 2.44   6 2.44  78 2.44  87 2.44   2 2.44
                             3 2.44   1 2.44  74 2.44  75 2.44
   5  0.333  0.000  0.000-   3 2.44   4 2.44  28 2.44  75 2.44   6 2.44   7 2.44   8 2.44  30 2.44
                            78 2.44  32 2.44  79 2.44 102 2.44
   6  0.333  0.167  0.167-  15 2.44  40 2.44  53 2.44  17 2.44  19 2.44   4 2.44  41 2.44  44 2.44
                             3 2.44   7 2.44   8 2.44   5 2.44
   7  0.500  0.000  0.167-  41 2.44  44 2.44  45 2.44  68 2.44   6 2.44   5 2.44   8 2.44  10 2.44
                            30 2.44   9 2.44  32 2.44  34 2.44
   8  0.500  0.167  0.000-  17 2.44  19 2.44  21 2.44  91 2.44   6 2.44   5 2.44   7 2.44  78 2.44
                            10 2.44  79 2.44   9 2.44  82 2.44
   9  0.667  0.000  0.000-  11 2.44  12 2.44  36 2.44  83 2.44  10 2.44  82 2.44  34 2.44   8 2.44
                             7 2.44 106 2.44  79 2.44  32 2.44
  10  0.667  0.167  0.167-  23 2.44  48 2.44  57 2.44  12 2.44  11 2.44  21 2.44  45 2.44  44 2.44
                            19 2.44   9 2.44   7 2.44   8 2.44
  11  0.833  0.000  0.167-  45 2.44   9 2.44  10 2.44  34 2.44  48 2.44  37 2.44  72 2.44  12 2.44
                             2 2.44  36 2.44   1 2.44  26 2.44
  12  0.833  0.167  0.000-  21 2.44   9 2.44  10 2.44  82 2.44  23 2.44  13 2.44  95 2.44  11 2.44
                             1 2.44  83 2.44   2 2.44  74 2.44
  13  0.000  0.333  0.000-   2 2.44   4 2.44  12 2.44  74 2.44  15 2.44  16 2.44  14 2.44  23 2.44
                            87 2.44  86 2.44  24 2.44  95 2.44
  14  0.000  0.500  0.167-  49 2.44  52 2.44  60 2.44  61 2.44  15 2.44  13 2.44  16 2.44  23 2.44
                            27 2.44  25 2.44  24 2.44  35 2.44
  15  0.167  0.333  0.167-   6 2.44  40 2.44  53 2.44  17 2.44  18 2.44   4 2.44  49 2.44  52 2.44
                             2 2.44  13 2.44  14 2.44  16 2.44
  16  0.167  0.500  0.000-  17 2.44  18 2.44  29 2.44  90 2.44  15 2.44  14 2.44  13 2.44  87 2.44
                            27 2.44  25 2.44  86 2.44  99 2.44
  17  0.333  0.333  0.000-   4 2.44   8 2.44  16 2.44  15 2.44   6 2.44  78 2.44  87 2.44  20 2.44
                            18 2.44  19 2.44  90 2.44  91 2.44
  18  0.333  0.500  0.167-  52 2.44  16 2.44  56 2.44  53 2.44  15 2.44  27 2.44  65 2.44  20 2.44
                            17 2.44  19 2.44  29 2.44  31 2.44
  19  0.500  0.333  0.167-  44 2.44   8 2.44  56 2.44  53 2.44   6 2.44  10 2.44  57 2.44  18 2.44
                            20 2.44  17 2.44  21 2.44  22 2.44
  20  0.500  0.500  0.000-  17 2.44  18 2.44  19 2.44  21 2.44  22 2.44  29 2.44  31 2.44  90 2.44
                            91 2.44  33 2.44  94 2.44 103 2.44
  21  0.667  0.333  0.000-  12 2.44  24 2.44  23 2.44  95 2.44  10 2.44   8 2.44  82 2.44  22 2.44
                            20 2.44  94 2.44  19 2.44  91 2.44
  22  0.667  0.500  0.167-  60 2.44  24 2.44  23 2.44  35 2.44  57 2.44  56 2.44  69 2.44  21 2.44
                            33 2.44  20 2.44  19 2.44  31 2.44
  23  0.833  0.333  0.167-  10 2.44  57 2.44  48 2.44  21 2.44  22 2.44  12 2.44  60 2.44   2 2.44
                            49 2.44  24 2.44  14 2.44  13 2.44
  24  0.833  0.500  0.000-  21 2.44  22 2.44  33 2.44  94 2.44  23 2.44  35 2.44  95 2.44  14 2.44
                            13 2.44 107 2.44  86 2.44  25 2.44
  25  0.000  0.667  0.000-  26 2.44  28 2.44  36 2.44  98 2.44  27 2.44  35 2.44  99 2.44  16 2.44
                            14 2.44 107 2.44  86 2.44  24 2.44
  26  0.000  0.833  0.167-  61 2.44  25 2.44  27 2.44  35 2.44  64 2.44  37 2.44  72 2.44  28 2.44
                             3 2.44  36 2.44   1 2.44  11 2.44
  27  0.167  0.667  0.167-  30 2.44  64 2.44  65 2.44  28 2.44  26 2.44  29 2.44  61 2.44  52 2.44
                            18 2.44  25 2.44  14 2.44  16 2.44
  28  0.167  0.833  0.000-  29 2.44  25 2.44  27 2.44  99 2.44  30 2.44   5 2.44 102 2.44  26 2.44
                            98 2.44   1 2.44   3 2.44  75 2.44
  29  0.333  0.667  0.000-  28 2.44  32 2.44  30 2.44 102 2.44  27 2.44  16 2.44  99 2.44  31 2.44
                            20 2.44  18 2.44 103 2.44  90 2.44
  30  0.333  0.833  0.167-  27 2.44  65 2.44  64 2.44  29 2.44  31 2.44  28 2.44  68 2.44  41 2.44
                             3 2.44  32 2.44   7 2.44   5 2.44
  31  0.500  0.667  0.167-  68 2.44  32 2.44  30 2.44  34 2.44  65 2.44  56 2.44  69 2.44  29 2.44
                            33 2.44  20 2.44  18 2.44  22 2.44
  32  0.500  0.833  0.000-  29 2.44  31 2.44  33 2.44 103 2.44  30 2.44 102 2.44  34 2.44   7 2.44
                             5 2.44 106 2.44  79 2.44   9 2.44
  33  0.667  0.667  0.000-  36 2.44  35 2.44  34 2.44  32 2.44  24 2.44 106 2.44 107 2.44  22 2.44
                            31 2.44 103 2.44  20 2.44  94 2.44
  34  0.667  0.833  0.167-  35 2.44  69 2.44  72 2.44  33 2.44  36 2.44  31 2.44  11 2.44  45 2.44
                            68 2.44  32 2.44   9 2.44   7 2.44
  35  0.833  0.667  0.167-  34 2.44  69 2.44  72 2.44  33 2.44  36 2.44  26 2.44  22 2.44  60 2.44
                            61 2.44  24 2.44  25 2.44  14 2.44
  36  0.833  0.833  0.000-  33 2.44  34 2.44  35 2.44  25 2.44   9 2.44 106 2.44 107 2.44  26 2.44
                            11 2.44  98 2.44   1 2.44  83 2.44
  37  0.000  0.000  0.333-   2 2.44   3 2.44  11 2.44  26 2.44  40 2.44  39 2.44  38 2.44  48 2.44
                            64 2.44  62 2.44  47 2.44  72 2.44
  38  0.000  0.167  0.500-  49 2.44  51 2.44  59 2.44  85 2.44  40 2.44  39 2.44  37 2.44  76 2.44
                            48 2.44  47 2.44  73 2.44  84 2.44
  39  0.167  0.000  0.500-  41 2.44  42 2.44  66 2.44  77 2.44  40 2.44  38 2.44  37 2.44  76 2.44
                            64 2.44  62 2.44  73 2.44 100 2.44
  40  0.167  0.167  0.333-   6 2.44  15 2.44  53 2.44   3 2.44  41 2.44  42 2.44  49 2.44  51 2.44
                             2 2.44  39 2.44  37 2.44  38 2.44
  41  0.333  0.000  0.333-   3 2.44   7 2.44  39 2.44   6 2.44  40 2.44  30 2.44  64 2.44  43 2.44
                            44 2.44  42 2.44  66 2.44  68 2.44
  42  0.333  0.167  0.500-  51 2.44  39 2.44  55 2.44  53 2.44  40 2.44  76 2.44  89 2.44  44 2.44
                            41 2.44  43 2.44  80 2.44  77 2.44
  43  0.500  0.000  0.500-  41 2.44  42 2.44  44 2.44  45 2.44  46 2.44  66 2.44  68 2.44  77 2.44
                            80 2.44  70 2.44  81 2.44 104 2.44
  44  0.500  0.167  0.333-  19 2.44   7 2.44  55 2.44  53 2.44   6 2.44  10 2.44  57 2.44  41 2.44
                            42 2.44  43 2.44  46 2.44  45 2.44
  45  0.667  0.000  0.333-  11 2.44  47 2.44  48 2.44  72 2.44  10 2.44   7 2.44  34 2.44  46 2.44
                            43 2.44  70 2.44  44 2.44  68 2.44
  46  0.667  0.167  0.500-  59 2.44  47 2.44  48 2.44  84 2.44  57 2.44  55 2.44  93 2.44  45 2.44
                            81 2.44  43 2.44  44 2.44  80 2.44
  47  0.833  0.000  0.500-  45 2.44  46 2.44  70 2.44  81 2.44  48 2.44  72 2.44  84 2.44  38 2.44
                            37 2.44 108 2.44  73 2.44  62 2.44
  48  0.833  0.167  0.333-  10 2.44  57 2.44  23 2.44  46 2.44  45 2.44  11 2.44  59 2.44   2 2.44
                            49 2.44  47 2.44  37 2.44  38 2.44
  49  0.000  0.333  0.333-   2 2.44  14 2.44  38 2.44  15 2.44  40 2.44  23 2.44  48 2.44  50 2.44
                            51 2.44  52 2.44  59 2.44  60 2.44
  50  0.000  0.500  0.500-  49 2.44  51 2.44  52 2.44  59 2.44  60 2.44  61 2.44  63 2.44  85 2.44
                            88 2.44  71 2.44  96 2.44  97 2.44
  51  0.167  0.333  0.500-  42 2.44  38 2.44  54 2.44  53 2.44  40 2.44  76 2.44  89 2.44  50 2.44
                            52 2.44  49 2.44  88 2.44  85 2.44
  52  0.167  0.500  0.333-  18 2.44  14 2.44  54 2.44  53 2.44  15 2.44  27 2.44  65 2.44  49 2.44
                            50 2.44  51 2.44  63 2.44  61 2.44
  53  0.333  0.333  0.333-   6 2.44  15 2.44  40 2.44  19 2.44  18 2.44  42 2.44  44 2.44  51 2.44
                            52 2.44  54 2.44  55 2.44  56 2.44
  54  0.333  0.500  0.500-  51 2.44  52 2.44  63 2.44  88 2.44  53 2.44  55 2.44  56 2.44  65 2.44
                            89 2.44  67 2.44  92 2.44 101 2.44
  55  0.500  0.333  0.500-  42 2.44  44 2.44  46 2.44  80 2.44  53 2.44  56 2.44  54 2.44  57 2.44
                            89 2.44  58 2.44  92 2.44  93 2.44
  56  0.500  0.500  0.333-  18 2.44  19 2.44  22 2.44  31 2.44  53 2.44  54 2.44  55 2.44  57 2.44
                            65 2.44  58 2.44  67 2.44  69 2.44
  57  0.667  0.333  0.333-  23 2.44  48 2.44  10 2.44  59 2.44  60 2.44  46 2.44  22 2.44  19 2.44
                            44 2.44  58 2.44  56 2.44  55 2.44
  58  0.667  0.500  0.500-  59 2.44  60 2.44  71 2.44  96 2.44  57 2.44  93 2.44  69 2.44  56 2.44
                            55 2.44 105 2.44  92 2.44  67 2.44
  59  0.833  0.333  0.500-  46 2.44  58 2.44  57 2.44  93 2.44  48 2.44  38 2.44  84 2.44  60 2.44
                            50 2.44  49 2.44  96 2.44  85 2.44
  60  0.833  0.500  0.333-  22 2.44  58 2.44  57 2.44  69 2.44  23 2.44  14 2.44  35 2.44  59 2.44
                            49 2.44  50 2.44  71 2.44  61 2.44
  61  0.000  0.667  0.333-  26 2.44  62 2.44  64 2.44  72 2.44  27 2.44  14 2.44  35 2.44  63 2.44
                            50 2.44  71 2.44  52 2.44  60 2.44
  62  0.000  0.833  0.500-  61 2.44  63 2.44  71 2.44  97 2.44  64 2.44  72 2.44 100 2.44  39 2.44
                            37 2.44 108 2.44  73 2.44  47 2.44
  63  0.167  0.667  0.500-  66 2.44  62 2.44  64 2.44 100 2.44  65 2.44  54 2.44 101 2.44  61 2.44
                            97 2.44  50 2.44  52 2.44  88 2.44
  64  0.167  0.833  0.333-  27 2.44  65 2.44  30 2.44  63 2.44  61 2.44  26 2.44  66 2.44   3 2.44
                            41 2.44  62 2.44  37 2.44  39 2.44
  65  0.333  0.667  0.333-  30 2.44  64 2.44  27 2.44  66 2.44  68 2.44  63 2.44  31 2.44  18 2.44
                            52 2.44  67 2.44  56 2.44  54 2.44
  66  0.333  0.833  0.500-  63 2.44  67 2.44  65 2.44 101 2.44  64 2.44  39 2.44 100 2.44  68 2.44
                            43 2.44  41 2.44 104 2.44  77 2.44
  67  0.500  0.667  0.500-  66 2.44  68 2.44  70 2.44 104 2.44  65 2.44 101 2.44  69 2.44  56 2.44
                            54 2.44 105 2.44  92 2.44  58 2.44
  68  0.500  0.833  0.333-  31 2.44  67 2.44  65 2.44  69 2.44  30 2.44   7 2.44  34 2.44  66 2.44
                            41 2.44  43 2.44  70 2.44  45 2.44
  69  0.667  0.667  0.333-  72 2.44  35 2.44  34 2.44  71 2.44  70 2.44  68 2.44  60 2.44  31 2.44
                            22 2.44  58 2.44  67 2.44  56 2.44
  70  0.667  0.833  0.500-  71 2.44  69 2.44  72 2.44  67 2.44  47 2.44 105 2.44 108 2.44  68 2.44
                            45 2.44 104 2.44  43 2.44  81 2.44
  71  0.833  0.667  0.500-  70 2.44  69 2.44  72 2.44  62 2.44  58 2.44 105 2.44 108 2.44  60 2.44
                            61 2.44  97 2.44  50 2.44  96 2.44
  72  0.833  0.833  0.333-  69 2.44  35 2.44  34 2.44  70 2.44  71 2.44  61 2.44  45 2.44  26 2.44
                            11 2.44  62 2.44  47 2.44  37 2.44
  73  0.000  0.000  0.667-  74 2.44  75 2.44  83 2.44  98 2.44  76 2.44  84 2.44 100 2.44  39 2.44
                            38 2.44 108 2.44  47 2.44  62 2.44
  74  0.000  0.167  0.833-  85 2.44  73 2.44  76 2.44  84 2.44  87 2.44  13 2.44  95 2.44  75 2.44
                             4 2.44  83 2.44   1 2.44  12 2.44
  75  0.167  0.000  0.833-  77 2.44  73 2.44  76 2.44 100 2.44  78 2.44   5 2.44 102 2.44  74 2.44
                            98 2.44   1 2.44   4 2.44  28 2.44
  76  0.167  0.167  0.667-  78 2.44  87 2.44  89 2.44  75 2.44  74 2.44  77 2.44  85 2.44  51 2.44
                            42 2.44  73 2.44  38 2.44  39 2.44
  77  0.333  0.000  0.667-  75 2.44  79 2.44  78 2.44 102 2.44  76 2.44  39 2.44 100 2.44  80 2.44
                            43 2.44  42 2.44 104 2.44  66 2.44
  78  0.333  0.167  0.833-  76 2.44  89 2.44  87 2.44  77 2.44  80 2.44  75 2.44  91 2.44  17 2.44
                             4 2.44  79 2.44   8 2.44   5 2.44
  79  0.500  0.000  0.833-  77 2.44  80 2.44  81 2.44 104 2.44  78 2.44 102 2.44  82 2.44   8 2.44
                             5 2.44 106 2.44   9 2.44  32 2.44
  80  0.500  0.167  0.667-  91 2.44  79 2.44  78 2.44  82 2.44  89 2.44  55 2.44  93 2.44  77 2.44
                            43 2.44  81 2.44  42 2.44  46 2.44
  81  0.667  0.000  0.667-  83 2.44  82 2.44  84 2.44  79 2.44  47 2.44 106 2.44 108 2.44  80 2.44
                            46 2.44 104 2.44  70 2.44  43 2.44
  82  0.667  0.167  0.833-  84 2.44  93 2.44  95 2.44  83 2.44  81 2.44  80 2.44  12 2.44  21 2.44
                            91 2.44  79 2.44   9 2.44   8 2.44
  83  0.833  0.000  0.833-  81 2.44  82 2.44  84 2.44  73 2.44   9 2.44 106 2.44 108 2.44  74 2.44
                            12 2.44  98 2.44  36 2.44   1 2.44
  84  0.833  0.167  0.667-  82 2.44  93 2.44  95 2.44  81 2.44  83 2.44  74 2.44  46 2.44  59 2.44
                            85 2.44  73 2.44  47 2.44  38 2.44
  85  0.000  0.333  0.667-  74 2.44  86 2.44  87 2.44  95 2.44  76 2.44  38 2.44  84 2.44  88 2.44
                            51 2.44  50 2.44  96 2.44  59 2.44
  86  0.000  0.500  0.833-  85 2.44  88 2.44  96 2.44  97 2.44  87 2.44  95 2.44  99 2.44  16 2.44
                            13 2.44 107 2.44  24 2.44  25 2.44
  87  0.167  0.333  0.833-  76 2.44  89 2.44  78 2.44  88 2.44  85 2.44  74 2.44  90 2.44  17 2.44
                             4 2.44  86 2.44  16 2.44  13 2.44
  88  0.167  0.500  0.667-  90 2.44  86 2.44  87 2.44  99 2.44  89 2.44  54 2.44 101 2.44  85 2.44
                            97 2.44  50 2.44  51 2.44  63 2.44
  89  0.333  0.333  0.667-  78 2.44  87 2.44  76 2.44  90 2.44  91 2.44  80 2.44  88 2.44  51 2.44
                            42 2.44  92 2.44  54 2.44  55 2.44
  90  0.333  0.500  0.833-  88 2.44  92 2.44  89 2.44 101 2.44  87 2.44  16 2.44  99 2.44  91 2.44
                            20 2.44  17 2.44 103 2.44  29 2.44
  91  0.500  0.333  0.833-  80 2.44  92 2.44  89 2.44  93 2.44  78 2.44   8 2.44  82 2.44  90 2.44
                            20 2.44  17 2.44  94 2.44  21 2.44
  92  0.500  0.500  0.667-  90 2.44  91 2.44  94 2.44 103 2.44  89 2.44 101 2.44  93 2.44  55 2.44
                            54 2.44 105 2.44  58 2.44  67 2.44
  93  0.667  0.333  0.667-  95 2.44  84 2.44  82 2.44  94 2.44  96 2.44  91 2.44  59 2.44  46 2.44
                            80 2.44  92 2.44  58 2.44  55 2.44
  94  0.667  0.500  0.833-  96 2.44  95 2.44  93 2.44  92 2.44  24 2.44 105 2.44 107 2.44  21 2.44
                            91 2.44 103 2.44  33 2.44  20 2.44
  95  0.833  0.333  0.833-  93 2.44  84 2.44  82 2.44  94 2.44  96 2.44  85 2.44  21 2.44  12 2.44
                            74 2.44  86 2.44  24 2.44  13 2.44
  96  0.833  0.500  0.667-  94 2.44  93 2.44  95 2.44  86 2.44  58 2.44 105 2.44 107 2.44  59 2.44
                            85 2.44  97 2.44  71 2.44  50 2.44
  97  0.000  0.667  0.667-  98 2.44  99 2.44 100 2.44  86 2.44  62 2.44 107 2.44 108 2.44  88 2.44
                            63 2.44  96 2.44  50 2.44  71 2.44
  98  0.000  0.833  0.833-  97 2.44  99 2.44 100 2.44  73 2.44  25 2.44 107 2.44 108 2.44  75 2.44
                            28 2.44  83 2.44   1 2.44  36 2.44
  99  0.167  0.667  0.833- 100 2.44 101 2.44 102 2.44  98 2.44  97 2.44  88 2.44  28 2.44  90 2.44
                            29 2.44  86 2.44  25 2.44  16 2.44
 100  0.167  0.833  0.667-  99 2.44 101 2.44 102 2.44  98 2.44  97 2.44  75 2.44  63 2.44  77 2.44
                            66 2.44  73 2.44  62 2.44  39 2.44
 101  0.333  0.667  0.667- 102 2.44 100 2.44  99 2.44 103 2.44 104 2.44  90 2.44  66 2.44  63 2.44
                            88 2.44  92 2.44  67 2.44  54 2.44
 102  0.333  0.833  0.833- 101 2.44 100 2.44  99 2.44 103 2.44 104 2.44  77 2.44  29 2.44  28 2.44
                            75 2.44  79 2.44  32 2.44   5 2.44
 103  0.500  0.667  0.833- 104 2.44 102 2.44 101 2.44  92 2.44  32 2.44 105 2.44 106 2.44  29 2.44
                            90 2.44  94 2.44  20 2.44  33 2.44
 104  0.500  0.833  0.667- 103 2.44 102 2.44 101 2.44  79 2.44  67 2.44 105 2.44 106 2.44  66 2.44
                            77 2.44  81 2.44  43 2.44  70 2.44
 105  0.667  0.667  0.667- 106 2.44 107 2.44 108 2.44  96 2.44 103 2.44 104 2.44  70 2.44  71 2.44
                            94 2.44  67 2.44  92 2.44  58 2.44
 106  0.667  0.833  0.833- 105 2.44 107 2.44 108 2.44  83 2.44 103 2.44 104 2.44  33 2.44  36 2.44
                            81 2.44  32 2.44  79 2.44   9 2.44
 107  0.833  0.667  0.833- 105 2.44 106 2.44 108 2.44  96 2.44  97 2.44  98 2.44  33 2.44  36 2.44
                            94 2.44  25 2.44  86 2.44  24 2.44
 108  0.833  0.833  0.667- 105 2.44 106 2.44 107 2.44  83 2.44  97 2.44  98 2.44  70 2.44  71 2.44
                            81 2.44  62 2.44  73 2.44  47 2.44
 
  LATTYP: Found a simple cubic cell.
 ALAT       =    10.3348470474
  
  Lattice vectors:
  
 A1 = (  10.3348470474,   0.0000000000,   0.0000000000)
 A2 = (   0.0000000000,  10.3348470474,   0.0000000000)
 A3 = (   0.0000000000,   0.0000000000,  10.3348470474)


Analysis of symmetry for initial positions (statically):
=====================================================================
 Subroutine PRICEL returns following result:
 
  LATTYP: Found a simple cubic cell.
 ALAT       =     3.4449252899
  
  Lattice vectors:
  
 A1 = (   3.4449252899,   0.0000000000,   0.0000000000)
 A2 = (   0.0000000000,   3.4449252899,   0.0000000000)
 A3 = (   0.0000000000,   0.0000000000,   3.4449252443)
 
  27 primitive cells build up your supercell.
 

 Routine SETGRP: Setting up the symmetry group for a 
 simple cubic supercell.


 Subroutine GETGRP returns: Found 48 space group operations
 (whereof 48 operations were pure point group operations)
 out of a pool of 48 trial point group operations.


The static configuration has the point symmetry O_h .


Analysis of symmetry for dynamics (positions and initial velocities):
=====================================================================
 Subroutine PRICEL returns following result:
 
  LATTYP: Found a simple cubic cell.
 ALAT       =     3.4449252899
  
  Lattice vectors:
  
 A1 = (   3.4449252899,   0.0000000000,   0.0000000000)
 A2 = (   0.0000000000,   3.4449252899,   0.0000000000)
 A3 = (   0.0000000000,   0.0000000000,   3.4449252443)
 
  27 primitive cells build up your supercell.
 

 Routine SETGRP: Setting up the symmetry group for a 
 simple cubic supercell.


 Subroutine GETGRP returns: Found 48 space group operations
 (whereof 48 operations were pure point group operations)
 out of a pool of 48 trial point group operations.


The dynamic configuration has the point symmetry O_h .


 Subroutine INISYM returns: Found 48 space group operations
 (whereof 48 operations are pure point group operations),
 and found    27 'primitive' translations

 
 
 KPOINTS: pymatgen generated KPOINTS with grid den

Automatic generation of k-mesh.
Space group operators:
 irot       det(A)        alpha          n_x          n_y          n_z        tau_x        tau_y        tau_z
    1     1.000000     0.000000     1.000000     0.000000     0.000000     0.000000     0.000000     0.000000
    2    -1.000000     0.000000     1.000000     0.000000     0.000000     0.000000     0.000000     0.000000
    3     1.000000   120.000000    -0.577350    -0.577350    -0.577350     0.000000     0.000000     0.000000
    4    -1.000000   120.000000    -0.577350    -0.577350    -0.577350     0.000000     0.000000     0.000000
    5     1.000000   120.000000     0.577350     0.577350     0.577350     0.000000     0.000000     0.000000
    6    -1.000000   120.000000     0.577350     0.577350     0.577350     0.000000     0.000000     0.000000
    7     1.000000    90.000000     0.000000     0.000000    -1.000000     0.000000     0.000000     0.000000
    8    -1.000000    90.000000     0.000000     0.000000    -1.000000     0.000000     0.000000     0.000000
    9     1.000000   180.000000     0.000000     0.707107     0.707107     0.000000     0.000000     0.000000
   10    -1.000000   180.000000     0.000000     0.707107     0.707107     0.000000     0.000000     0.000000
   11     1.000000    90.000000     0.000000     1.000000     0.000000     0.000000     0.000000     0.000000
   12    -1.000000    90.000000     0.000000     1.000000     0.000000     0.000000     0.000000     0.000000
   13     1.000000   180.000000     0.000000     0.000000     1.000000     0.000000     0.000000     0.000000
   14    -1.000000   180.000000     0.000000     0.000000     1.000000     0.000000     0.000000     0.000000
   15     1.000000   120.000000    -0.577350     0.577350     0.577350     0.000000     0.000000     0.000000
   16    -1.000000   120.000000    -0.577350     0.577350     0.577350     0.000000     0.000000     0.000000
   17     1.000000   120.000000    -0.577350     0.577350    -0.577350     0.000000     0.000000     0.000000
   18    -1.000000   120.000000    -0.577350     0.577350    -0.577350     0.000000     0.000000     0.000000
   19     1.000000    90.000000     0.000000     0.000000     1.000000     0.000000     0.000000     0.000000
   20    -1.000000    90.000000     0.000000     0.000000     1.000000     0.000000     0.000000     0.000000
   21     1.000000    90.000000    -1.000000     0.000000     0.000000     0.000000     0.000000     0.000000
   22    -1.000000    90.000000    -1.000000     0.000000     0.000000     0.000000     0.000000     0.000000
   23     1.000000   180.000000     0.707107     0.000000     0.707107     0.000000     0.000000     0.000000
   24    -1.000000   180.000000     0.707107     0.000000     0.707107     0.000000     0.000000     0.000000
   25     1.000000   120.000000     0.577350    -0.577350     0.577350     0.000000     0.000000     0.000000
   26    -1.000000   120.000000     0.577350    -0.577350     0.577350     0.000000     0.000000     0.000000
   27     1.000000   120.000000    -0.577350    -0.577350     0.577350     0.000000     0.000000     0.000000
   28    -1.000000   120.000000    -0.577350    -0.577350     0.577350     0.000000     0.000000     0.000000
   29     1.000000   180.000000     1.000000     0.000000     0.000000     0.000000     0.000000     0.000000
   30    -1.000000   180.000000     1.000000     0.000000     0.000000     0.000000     0.000000     0.000000
   31     1.000000    90.000000     0.000000    -1.000000     0.000000     0.000000     0.000000     0.000000
   32    -1.000000    90.000000     0.000000    -1.000000     0.000000     0.000000     0.000000     0.000000
   33     1.000000   180.000000     0.707107     0.707107     0.000000     0.000000     0.000000     0.000000
   34    -1.000000   180.000000     0.707107     0.707107     0.000000     0.000000     0.000000     0.000000
   35     1.000000    90.000000     1.000000     0.000000     0.000000     0.000000     0.000000     0.000000
   36    -1.000000    90.000000     1.000000     0.000000     0.000000     0.000000     0.000000     0.000000
   37     1.000000   120.000000     0.577350    -0.577350    -0.577350     0.000000     0.000000     0.000000
   38    -1.000000   120.000000     0.577350    -0.577350    -0.577350     0.000000     0.000000     0.000000
   39     1.000000   180.000000     0.000000     1.000000     0.000000     0.000000     0.000000     0.000000
   40    -1.000000   180.000000     0.000000     1.000000     0.000000     0.000000     0.000000     0.000000
   41     1.000000   120.000000     0.577350     0.577350    -0.577350     0.000000     0.000000     0.000000
   42    -1.000000   120.000000     0.577350     0.577350    -0.577350     0.000000     0.000000     0.000000
   43     1.000000   180.000000     0.000000    -0.707107     0.707107     0.000000     0.000000     0.000000
   44    -1.000000   180.000000     0.000000    -0.707107     0.707107     0.000000     0.000000     0.000000
   45     1.000000   180.000000     0.707107    -0.707107     0.000000     0.000000     0.000000     0.000000
   46    -1.000000   180.000000     0.707107    -0.707107     0.000000     0.000000     0.000000     0.000000
   47     1.000000   180.000000     0.707107     0.000000    -0.707107     0.000000     0.000000     0.000000
   48    -1.000000   180.000000     0.707107     0.000000    -0.707107     0.000000     0.000000     0.000000
 
 Subroutine IBZKPT returns following result:
 ===========================================
 
 Found      4 irreducible k-points:
 
 Following reciprocal coordinates:
            Coordinates               Weight
  0.125000  0.125000  0.125000      8.000000
  0.375000  0.125000  0.125000     24.000000
  0.375000  0.375000  0.125000     24.000000
  0.375000  0.375000  0.375000      8.000000
 
 Following cartesian coordinates:
            Coordinates               Weight
  0.012095  0.012095  0.012095      8.000000
  0.036285  0.012095  0.012095     24.000000
  0.036285  0.036285  0.012095     24.000000
  0.036285  0.036285  0.036285      8.000000
 


--------------------------------------------------------------------------------------------------------




 Dimension of arrays:
   k-points           NKPTS =      4   k-points in BZ     NKDIM =      4   number of bands    NBANDS=    518
   number of dos      NEDOS =    301   number of ions     NIONS =    108
   non local maximal  LDIM  =      6   non local SUM 2l+1 LMDIM =     18
   total plane-waves  NPLWV = 373248
   max r-space proj   IRMAX =   3503   max aug-charges    IRDMAX=  12243
   dimension x,y,z NGX =    72 NGY =   72 NGZ =   72
   dimension x,y,z NGXF=   144 NGYF=  144 NGZF=  144
   support grid    NGXF=   144 NGYF=  144 NGZF=  144
   ions per type =             108
   NGX,Y,Z   is equivalent  to a cutoff of  11.58, 11.58, 11.58 a.u.
   NGXF,Y,Z  is equivalent  to a cutoff of  23.16, 23.16, 23.16 a.u.

 Based on PREC, I would recommend the following setting:
   dimension x,y,z NGX =    64 NGY =   64 NGZ =   64

 SYSTEM =  Opt                                     
 POSCAR =  fcc_Fe_CON_333                          

 Startparameter for this run:
   NWRITE =      2    write-flag & timer
   PREC   = normal    normal or accurate (medium, high low for compatibility)
   ISTART =      0    job   : 0-new  1-cont  2-samecut
   ICHARG =      2    charge: 1-file 2-atom 10-const
   ISPIN  =      1    spin polarized calculation?
   LNONCOLLINEAR =      F non collinear calculations
   LSORBIT =      F    spin-orbit coupling
   INIWAV =      1    electr: 0-lowe 1-rand  2-diag
   LASPH  =      F    aspherical Exc in radial PAW
   METAGGA=      F    non-selfconsistent MetaGGA calc.

 Electronic Relaxation 1
   ENCUT  =  600.0 eV  44.10 Ry    6.64 a.u.  20.64 20.64 20.64*2*pi/ulx,y,z
   ENINI  =  600.0     initial cutoff
   ENAUG  =  511.4 eV  augmentation charge cutoff
   NELM   =    400;   NELMIN=  2; NELMDL= -5     # of ELM steps 
   EDIFF  = 0.1E-05   stopping-criterion for ELM
   LREAL  =      T    real-space projection
   NLSPLINE    = F    spline interpolate recip. space projectors
   LCOMPAT=      F    compatible to vasp.4.4
   GGA_COMPAT  = T    GGA compatible to vasp.4.4-vasp.4.6
   LMAXPAW     = -100 max onsite density
   LMAXMIX     =    2 max onsite mixed and CHGCAR
   VOSKOWN=      0    Vosko Wilk Nusair interpolation
   ROPT   =   -0.00050
 Ionic relaxation
   EDIFFG = -.1E-01   stopping-criterion for IOM
   NSW    =    100    number of steps for IOM
   NBLOCK =      1;   KBLOCK =    100    inner block; outer block 
   IBRION =      2    ionic relax: 0-MD 1-quasi-New 2-CG
   NFREE  =      1    steps in history (QN), initial steepest desc. (CG)
   ISIF   =      3    stress and relaxation
   IWAVPR =     11    prediction:  0-non 1-charg 2-wave 3-comb
   ISYM   =      2    0-nonsym 1-usesym 2-fastsym
   LCORR  =      T    Harris-Foulkes like correction to forces

   POTIM  = 0.5000    time-step for ionic-motion
   TEIN   =    0.0    initial temperature
   TEBEG  =    0.0;   TEEND  =   0.0 temperature during run
   SMASS  =  -3.00    Nose mass-parameter (am)
   estimated Nose-frequenzy (Omega)   =  0.10E-29 period in steps =****** mass=  -0.244E-26a.u.
   SCALEE = 1.0000    scale energy and forces
   NPACO  =    256;   APACO  = 16.0  distance and # of slots for P.C.
   PSTRESS=    0.0 pullay stress

  Mass of Ions in am
   POMASS =  55.85
  Ionic Valenz
   ZVAL   =   8.00
  Atomic Wigner-Seitz radii
   RWIGS  =  -1.00
  virtual crystal weights 
   VCA    =   1.00
   NELECT =     864.0000    total number of electrons
   NUPDOWN=      -1.0000    fix difference up-down

 DOS related values:
   EMIN   =  10.00;   EMAX   =-10.00  energy-range for DOS
   EFERMI =   0.00
   ISMEAR =     1;   SIGMA  =   0.20  broadening in eV -4-tet -1-fermi 0-gaus

 Electronic relaxation 2 (details)
   IALGO  =     68    algorithm
   LDIAG  =      T    sub-space diagonalisation (order eigenvalues)
   LSUBROT=      F    optimize rotation matrix (better conditioning)
   TURBO    =      0    0=normal 1=particle mesh
   IRESTART =      0    0=no restart 2=restart with 2 vectors
   NREBOOT  =      0    no. of reboots
   NMIN     =      0    reboot dimension
   EREF     =   0.00    reference energy to select bands
   IMIX   =      4    mixing-type and parameters
     AMIX     =   0.40;   BMIX     =  1.00
     AMIX_MAG =   1.60;   BMIX_MAG =  1.00
     AMIN     =   0.10
     WC   =   100.;   INIMIX=   1;  MIXPRE=   1;  MAXMIX= -45

 Intra band minimization:
   WEIMIN = 0.0010     energy-eigenvalue tresh-hold
   EBREAK =  0.48E-09  absolut break condition
   DEPER  =   0.30     relativ break condition  

   TIME   =   0.40     timestep for ELM

  volume/ion in A,a.u.               =      10.22        68.97
  Fermi-wavevector in a.u.,A,eV,Ry     =   1.508720  2.851068 30.970078  2.276236
  Thomas-Fermi vector in A             =   2.619137
 
 Write flags
   LWAVE        =      F    write WAVECAR
   LDOWNSAMPLE  =      F    k-point downsampling of WAVECAR
   LCHARG       =      F    write CHGCAR
   LVTOT        =      F    write LOCPOT, total local potential
   LVHAR        =      F    write LOCPOT, Hartree potential only
   LELF         =      F    write electronic localiz. function (ELF)
   LORBIT       =      0    0 simple, 1 ext, 2 COOP (PROOUT), +10 PAW based schemes


 Dipole corrections
   LMONO  =      F    monopole corrections only (constant potential shift)
   LDIPOL =      F    correct potential (dipole corrections)
   IDIPOL =      0    1-x, 2-y, 3-z, 4-all directions 
   EPSILON=  1.0000000 bulk dielectric constant

 Exchange correlation treatment:
   GGA     =    --    GGA type
   LEXCH   =     8    internal setting for exchange type
   VOSKOWN=      0    Vosko Wilk Nusair interpolation
   LHFCALC =     F    Hartree Fock is set to
   LHFONE  =     F    Hartree Fock one center treatment
   AEXX    =    0.0000 exact exchange contribution

 Linear response parameters
   LEPSILON=     F    determine dielectric tensor
   LRPA    =     F    only Hartree local field effects (RPA)
   LNABLA  =     F    use nabla operator in PAW spheres
   LVEL    =     F    velocity operator in full k-point grid
   LINTERFAST=   F  fast interpolation
   KINTER  =     0    interpolate to denser k-point grid
   CSHIFT  =0.1000    complex shift for real part using Kramers Kronig
   OMEGAMAX=  -1.0    maximum frequency
   DEG_THRESHOLD= 0.2000000E-02 threshold for treating states as degnerate
   RTIME   =   -0.100 relaxation time in fs
  (WPLASMAI=    0.000 imaginary part of plasma frequency in eV, 0.658/RTIME)
   DFIELD  = 0.0000000 0.0000000 0.0000000 field for delta impulse in time
 
 Orbital magnetization related:
   ORBITALMAG=     F  switch on orbital magnetization
   LCHIMAG   =     F  perturbation theory with respect to B field
   DQ        =  0.001000  dq finite difference perturbation B field
   LLRAUG    =     F  two centre corrections for induced B field



--------------------------------------------------------------------------------------------------------


 conjugate gradient relaxation of ions
 charge density and potential will be updated during run
 non-spin polarized calculation
 RMM-DIIS sequential band-by-band and
  variant of blocked Davidson during initial phase
 perform sub-space diagonalisation
    before iterative eigenvector-optimisation
 modified Broyden-mixing scheme, WC =      100.0
 initial mixing is a Kerker type mixing with AMIX =  0.4000 and BMIX =      1.0000
 Hartree-type preconditioning will be used
 using additional bands           86
 real space projection scheme for non local part
 use partial core corrections
 calculate Harris-corrections to forces 
   (improved forces if not selfconsistent)
 use gradient corrections 
 use of overlap-Matrix (Vanderbilt PP)
 Methfessel and Paxton  Order N= 1 SIGMA  =   0.20


--------------------------------------------------------------------------------------------------------


  energy-cutoff  :      600.00
  volume of cell :     1103.86
      direct lattice vectors                 reciprocal lattice vectors
    10.334847047  0.000000000  0.000000000     0.096760019  0.000000000  0.000000000
     0.000000000 10.334847047  0.000000000     0.000000000  0.096760019  0.000000000
     0.000000000  0.000000000 10.334847047     0.000000000  0.000000000  0.096760019

  length of vectors
    10.334847047 10.334847047 10.334847047     0.096760019  0.096760019  0.096760019


 
 k-points in units of 2pi/SCALE and weight: pymatgen generated KPOINTS with grid den
   0.01209500  0.01209500  0.01209500       0.125
   0.03628501  0.01209500  0.01209500       0.375
   0.03628501  0.03628501  0.01209500       0.375
   0.03628501  0.03628501  0.03628501       0.125
 
 k-points in reciprocal lattice and weights: pymatgen generated KPOINTS with grid den
   0.12500000  0.12500000  0.12500000       0.125
   0.37500000  0.12500000  0.12500000       0.375
   0.37500000  0.37500000  0.12500000       0.375
   0.37500000  0.37500000  0.37500000       0.125
 
 position of ions in fractional coordinates (direct lattice) 
   0.00000000  0.00000000  0.00000000
   0.00000000  0.16666893  0.16666893
   0.16666893  0.00000000  0.16666893
   0.16666893  0.16666893  0.00000000
   0.33333106  0.00000000  0.00000000
   0.33333107  0.16666893  0.16666893
   0.50000000  0.00000000  0.16666894
   0.50000000  0.16666894  0.00000000
   0.66666897  0.00000000  0.00000000
   0.66666896  0.16666893  0.16666893
   0.83333104  0.00000000  0.16666893
   0.83333104  0.16666893  0.00000000
   0.00000000  0.33333106  0.00000000
   0.00000000  0.50000000  0.16666894
   0.16666893  0.33333107  0.16666893
   0.16666894  0.50000000  0.00000000
   0.33333107  0.33333107  0.00000000
   0.33333107  0.50000000  0.16666893
   0.50000000  0.33333107  0.16666893
   0.50000000  0.50000000  0.00000000
   0.66666896  0.33333107  0.00000000
   0.66666896  0.50000000  0.16666893
   0.83333104  0.33333107  0.16666893
   0.83333103  0.50000000  0.00000000
   0.00000000  0.66666897  0.00000000
   0.00000000  0.83333104  0.16666893
   0.16666893  0.66666896  0.16666893
   0.16666893  0.83333104  0.00000000
   0.33333107  0.66666896  0.00000000
   0.33333107  0.83333104  0.16666893
   0.50000000  0.66666896  0.16666893
   0.50000000  0.83333103  0.00000000
   0.66666896  0.66666896  0.00000000
   0.66666896  0.83333104  0.16666893
   0.83333104  0.66666896  0.16666893
   0.83333104  0.83333104  0.00000000
   0.00000000  0.00000000  0.33333106
   0.00000000  0.16666894  0.50000000
   0.16666894  0.00000000  0.50000000
   0.16666893  0.16666893  0.33333107
   0.33333107  0.00000000  0.33333107
   0.33333107  0.16666893  0.50000000
   0.50000000  0.00000000  0.50000000
   0.50000000  0.16666893  0.33333107
   0.66666896  0.00000000  0.33333107
   0.66666896  0.16666893  0.50000000
   0.83333103  0.00000000  0.50000000
   0.83333104  0.16666893  0.33333107
   0.00000000  0.33333107  0.33333107
   0.00000000  0.50000000  0.50000000
   0.16666893  0.33333107  0.50000000
   0.16666893  0.50000000  0.33333107
   0.33333107  0.33333107  0.33333107
   0.33333106  0.50000000  0.50000000
   0.50000000  0.33333106  0.50000000
   0.50000000  0.50000000  0.33333106
   0.66666896  0.33333107  0.33333107
   0.66666897  0.50000000  0.50000000
   0.83333104  0.33333107  0.50000000
   0.83333104  0.50000000  0.33333107
   0.00000000  0.66666896  0.33333107
   0.00000000  0.83333103  0.50000000
   0.16666893  0.66666896  0.50000000
   0.16666893  0.83333104  0.33333107
   0.33333107  0.66666896  0.33333107
   0.33333107  0.83333104  0.50000000
   0.50000000  0.66666897  0.50000000
   0.50000000  0.83333104  0.33333107
   0.66666896  0.66666896  0.33333107
   0.66666896  0.83333104  0.50000000
   0.83333104  0.66666896  0.50000000
   0.83333104  0.83333104  0.33333107
   0.00000000  0.00000000  0.66666897
   0.00000000  0.16666893  0.83333104
   0.16666893  0.00000000  0.83333104
   0.16666893  0.16666893  0.66666896
   0.33333107  0.00000000  0.66666896
   0.33333107  0.16666893  0.83333104
   0.50000000  0.00000000  0.83333103
   0.50000000  0.16666893  0.66666896
   0.66666896  0.00000000  0.66666896
   0.66666896  0.16666893  0.83333104
   0.83333104  0.00000000  0.83333104
   0.83333104  0.16666893  0.66666896
   0.00000000  0.33333107  0.66666896
   0.00000000  0.50000000  0.83333103
   0.16666893  0.33333107  0.83333104
   0.16666893  0.50000000  0.66666896
   0.33333107  0.33333107  0.66666896
   0.33333107  0.50000000  0.83333104
   0.50000000  0.33333107  0.83333104
   0.50000000  0.50000000  0.66666897
   0.66666896  0.33333107  0.66666896
   0.66666896  0.50000000  0.83333104
   0.83333104  0.33333107  0.83333104
   0.83333104  0.50000000  0.66666896
   0.00000000  0.66666896  0.66666896
   0.00000000  0.83333104  0.83333104
   0.16666893  0.66666896  0.83333104
   0.16666893  0.83333104  0.66666896
   0.33333107  0.66666896  0.66666896
   0.33333107  0.83333104  0.83333104
   0.50000000  0.66666896  0.83333104
   0.50000000  0.83333104  0.66666896
   0.66666896  0.66666896  0.66666896
   0.66666896  0.83333104  0.83333104
   0.83333104  0.66666896  0.83333104
   0.83333104  0.83333104  0.66666896
 
 position of ions in cartesian coordinates  (Angst):
   0.00000000  0.00000000  0.00000000
   0.00000000  1.72249793  1.72249793
   1.72249793  0.00000000  1.72249793
   1.72249793  1.72249793  0.00000000
   3.44492554  0.00000000  0.00000000
   3.44492559  1.72249794  1.72249794
   5.16742352  0.00000000  1.72249798
   5.16742352  1.72249798  0.00000000
   6.88992180  0.00000000  0.00000000
   6.88992176  1.72249794  1.72249794
   8.61234881  0.00000000  1.72249793
   8.61234881  1.72249793  0.00000000
   0.00000000  3.44492554  0.00000000
   0.00000000  5.16742352  1.72249798
   1.72249794  3.44492559  1.72249794
   1.72249798  5.16742352  0.00000000
   3.44492559  3.44492559  0.00000000
   3.44492559  5.16742352  1.72249793
   5.16742352  3.44492559  1.72249793
   5.16742352  5.16742352  0.00000000
   6.88992176  3.44492559  0.00000000
   6.88992176  5.16742352  1.72249793
   8.61234881  3.44492559  1.72249794
   8.61234877  5.16742352  0.00000000
   0.00000000  6.88992180  0.00000000
   0.00000000  8.61234881  1.72249793
   1.72249794  6.88992176  1.72249794
   1.72249793  8.61234881  0.00000000
   3.44492559  6.88992176  0.00000000
   3.44492559  8.61234881  1.72249794
   5.16742352  6.88992176  1.72249793
   5.16742352  8.61234877  0.00000000
   6.88992176  6.88992176  0.00000000
   6.88992176  8.61234881  1.72249794
   8.61234881  6.88992176  1.72249794
   8.61234881  8.61234881  0.00000000
   0.00000000  0.00000000  3.44492554
   0.00000000  1.72249798  5.16742352
   1.72249798  0.00000000  5.16742352
   1.72249794  1.72249794  3.44492559
   3.44492559  0.00000000  3.44492559
   3.44492559  1.72249793  5.16742352
   5.16742352  0.00000000  5.16742352
   5.16742352  1.72249793  3.44492559
   6.88992176  0.00000000  3.44492559
   6.88992176  1.72249793  5.16742352
   8.61234877  0.00000000  5.16742352
   8.61234881  1.72249794  3.44492559
   0.00000000  3.44492559  3.44492559
   0.00000000  5.16742352  5.16742352
   1.72249793  3.44492559  5.16742352
   1.72249793  5.16742352  3.44492559
   3.44492559  3.44492559  3.44492559
   3.44492554  5.16742352  5.16742352
   5.16742352  3.44492554  5.16742352
   5.16742352  5.16742352  3.44492554
   6.88992176  3.44492559  3.44492559
   6.88992180  5.16742352  5.16742352
   8.61234881  3.44492559  5.16742352
   8.61234881  5.16742352  3.44492559
   0.00000000  6.88992176  3.44492559
   0.00000000  8.61234877  5.16742352
   1.72249793  6.88992176  5.16742352
   1.72249794  8.61234881  3.44492559
   3.44492559  6.88992176  3.44492559
   3.44492559  8.61234881  5.16742352
   5.16742352  6.88992180  5.16742352
   5.16742352  8.61234881  3.44492559
   6.88992176  6.88992176  3.44492559
   6.88992176  8.61234881  5.16742352
   8.61234881  6.88992176  5.16742352
   8.61234881  8.61234881  3.44492559
   0.00000000  0.00000000  6.88992180
   0.00000000  1.72249793  8.61234881
   1.72249793  0.00000000  8.61234881
   1.72249794  1.72249794  6.88992176
   3.44492559  0.00000000  6.88992176
   3.44492559  1.72249794  8.61234881
   5.16742352  0.00000000  8.61234877
   5.16742352  1.72249793  6.88992176
   6.88992176  0.00000000  6.88992176
   6.88992176  1.72249794  8.61234881
   8.61234881  0.00000000  8.61234881
   8.61234881  1.72249794  6.88992176
   0.00000000  3.44492559  6.88992176
   0.00000000  5.16742352  8.61234877
   1.72249794  3.44492559  8.61234881
   1.72249793  5.16742352  6.88992176
   3.44492559  3.44492559  6.88992176
   3.44492559  5.16742352  8.61234881
   5.16742352  3.44492559  8.61234881
   5.16742352  5.16742352  6.88992180
   6.88992176  3.44492559  6.88992176
   6.88992176  5.16742352  8.61234881
   8.61234881  3.44492559  8.61234881
   8.61234881  5.16742352  6.88992176
   0.00000000  6.88992176  6.88992176
   0.00000000  8.61234881  8.61234881
   1.72249794  6.88992176  8.61234881
   1.72249794  8.61234881  6.88992176
   3.44492559  6.88992176  6.88992176
   3.44492559  8.61234881  8.61234881
   5.16742352  6.88992176  8.61234881
   5.16742352  8.61234881  6.88992176
   6.88992176  6.88992176  6.88992176
   6.88992176  8.61234881  8.61234881
   8.61234881  6.88992176  8.61234881
   8.61234881  8.61234881  6.88992176
 


--------------------------------------------------------------------------------------------------------


 k-point  1 :   0.1250 0.1250 0.1250  plane waves:   36849
 k-point  2 :   0.3750 0.1250 0.1250  plane waves:   36839
 k-point  3 :   0.3750 0.3750 0.1250  plane waves:   36827
 k-point  4 :   0.3750 0.3750 0.3750  plane waves:   36786

 maximum and minimum number of plane-waves per node :      9236     9183

 maximum number of plane-waves:     36849
 maximum index in each direction: 
   IXMAX=   20   IYMAX=   20   IZMAX=   20
   IXMIN=  -21   IYMIN=  -21   IZMIN=  -21


 real space projection operators:
  total allocation   :      51743.81 KBytes
  max/ min on nodes  :      13015.69      12818.25


 parallel 3D FFT for wavefunctions:
    minimum data exchange during FFTs selected (reduces bandwidth)
 parallel 3D FFT for charge:
    minimum data exchange during FFTs selected (reduces bandwidth)


 total amount of memory used by VASP MPI-rank0   251368. kBytes
=======================================================================

   base      :      30000. kBytes
   nonlr-proj:      22467. kBytes
   fftplans  :      15496. kBytes
   grid      :      21835. kBytes
   one-center:        419. kBytes
   wavefun   :     161151. kBytes
 
     INWAV:  cpu time    0.0000: real time    0.0001
 Broyden mixing: mesh for mixing (old mesh)
   NGX = 41   NGY = 41   NGZ = 41
  (NGX  =144   NGY  =144   NGZ  =144)
  gives a total of  68921 points

 initial charge density was supplied:
 charge density of overlapping atoms calculated
 number of electron     864.0000000 magnetization 
 keeping initial charge density in first step


--------------------------------------------------------------------------------------------------------


 Maximum index for non-local projection operator          857
 Maximum index for augmentation-charges         1463 (set IRDMAX)


--------------------------------------------------------------------------------------------------------


 First call to EWALD:  gamma=   0.172
 Maximum number of real-space cells 3x 3x 3
 Maximum number of reciprocal cells 3x 3x 3

    FEWALD:  cpu time    0.0120: real time    0.0120


--------------------------------------- Iteration      1(   1)  ---------------------------------------


    POTLOK:  cpu time    0.3041: real time    0.3047
    SETDIJ:  cpu time    0.0532: real time    0.0532
     EDDAV:  cpu time   48.7857: real time   48.8198
       DOS:  cpu time    0.0037: real time    0.0037
    --------------------------------------------
      LOOP:  cpu time   49.1467: real time   49.1814

 eigenvalue-minimisations  :  4144
 total energy-change (2. order) : 0.9158114E+04  (-0.3774190E+05)
 number of electron     864.0000000 magnetization 
 augmentation part      864.0000000 magnetization 

 Free energy of the ion-electron system (eV)
  ---------------------------------------------------
  alpha Z        PSCENC =      7300.31925852
  Ewald energy   TEWEN  =    -66232.83996889
  -Hartree energ DENC   =    -11197.02572337
  -exchange      EXHF   =         0.00000000
  -V(xc)+E(xc)   XCENC  =       446.63038354
  PAW double counting   =     51723.88885462   -52548.28121372
  entropy T*S    EENTRO =         0.03620553
  eigenvalues    EBANDS =     15462.94731526
  atomic energy  EATOM  =     64202.43901263
  Solvation  Ediel_sol  =         0.00000000
  ---------------------------------------------------
  free energy    TOTEN  =      9158.11412413 eV

  energy without entropy =     9158.07791860  energy(sigma->0) =     9158.10205562


--------------------------------------------------------------------------------------------------------




--------------------------------------- Iteration      1(   2)  ---------------------------------------


     EDDAV:  cpu time   48.7904: real time   48.8125
       DOS:  cpu time    0.0060: real time    0.0060
    --------------------------------------------
      LOOP:  cpu time   48.7964: real time   48.8185

 eigenvalue-minimisations  :  4144
 total energy-change (2. order) :-0.8893794E+04  (-0.8740612E+04)
 number of electron     864.0000000 magnetization 
 augmentation part      864.0000000 magnetization 

 Free energy of the ion-electron system (eV)
  ---------------------------------------------------
  alpha Z        PSCENC =      7300.31925852
  Ewald energy   TEWEN  =    -66232.83996889
  -Hartree energ DENC   =    -11197.02572337
  -exchange      EXHF   =         0.00000000
  -V(xc)+E(xc)   XCENC  =       446.63038354
  PAW double counting   =     51723.88885462   -52548.28121372
  entropy T*S    EENTRO =         0.03869602
  eigenvalues    EBANDS =      6569.15127215
  atomic energy  EATOM  =     64202.43901263
  Solvation  Ediel_sol  =         0.00000000
  ---------------------------------------------------
  free energy    TOTEN  =       264.32057150 eV

  energy without entropy =      264.28187549  energy(sigma->0) =      264.30767283


--------------------------------------------------------------------------------------------------------




--------------------------------------- Iteration      1(   3)  ---------------------------------------


     EDDAV:  cpu time   48.7628: real time   48.7654
       DOS:  cpu time    0.0070: real time    0.0070
    --------------------------------------------
      LOOP:  cpu time   48.7698: real time   48.7724

 eigenvalue-minimisations  :  4144
 total energy-change (2. order) :-0.1084118E+04  (-0.9266675E+03)
 number of electron     864.0000000 magnetization 
 augmentation part      864.0000000 magnetization 

 Free energy of the ion-electron system (eV)
  ---------------------------------------------------
  alpha Z        PSCENC =      7300.31925852
  Ewald energy   TEWEN  =    -66232.83996889
  -Hartree energ DENC   =    -11197.02572337
  -exchange      EXHF   =         0.00000000
  -V(xc)+E(xc)   XCENC  =       446.63038354
  PAW double counting   =     51723.88885462   -52548.28121372
  entropy T*S    EENTRO =         0.00217452
  eigenvalues    EBANDS =      5485.06974361
  atomic energy  EATOM  =     64202.43901263
  Solvation  Ediel_sol  =         0.00000000
  ---------------------------------------------------
  free energy    TOTEN  =      -819.79747853 eV

  energy without entropy =     -819.79965305  energy(sigma->0) =     -819.79820337


--------------------------------------------------------------------------------------------------------




--------------------------------------- Iteration      1(   4)  ---------------------------------------


     EDDAV:  cpu time   79.4153: real time   79.4347
       DOS:  cpu time    0.0069: real time    0.0069
    --------------------------------------------
      LOOP:  cpu time   79.4223: real time   79.4416

 eigenvalue-minimisations  :  7496
 total energy-change (2. order) :-0.2069394E+03  (-0.1944447E+03)
 number of electron     864.0000000 magnetization 
 augmentation part      864.0000000 magnetization 

 Free energy of the ion-electron system (eV)
  ---------------------------------------------------
  alpha Z        PSCENC =      7300.31925852
  Ewald energy   TEWEN  =    -66232.83996889
  -Hartree energ DENC   =    -11197.02572337
  -exchange      EXHF   =         0.00000000
  -V(xc)+E(xc)   XCENC  =       446.63038354
  PAW double counting   =     51723.88885462   -52548.28121372
  entropy T*S    EENTRO =        -0.05918466
  eigenvalues    EBANDS =      5278.19173422
  atomic energy  EATOM  =     64202.43901263
  Solvation  Ediel_sol  =         0.00000000
  ---------------------------------------------------
  free energy    TOTEN  =     -1026.73684710 eV

  energy without entropy =    -1026.67766244  energy(sigma->0) =    -1026.71711888


--------------------------------------------------------------------------------------------------------




--------------------------------------- Iteration      1(   5)  ---------------------------------------


     EDDAV:  cpu time   72.8851: real time   72.8863
       DOS:  cpu time    0.0074: real time    0.0074
    CHARGE:  cpu time    2.5935: real time    2.5937
    MIXING:  cpu time    0.0082: real time    0.0082
    --------------------------------------------
      LOOP:  cpu time   75.4942: real time   75.4956

 eigenvalue-minimisations  :  6696
 total energy-change (2. order) :-0.1843831E+02  (-0.1746669E+02)
 number of electron     864.0000691 magnetization 
 augmentation part      382.8028722 magnetization 

 Broyden mixing:
  rms(total) = 0.93450E+01    rms(broyden)= 0.93450E+01
  rms(prec ) = 0.11651E+02
  weight for this iteration     100.00

 Free energy of the ion-electron system (eV)
  ---------------------------------------------------
  alpha Z        PSCENC =      7300.31925852
  Ewald energy   TEWEN  =    -66232.83996889
  -Hartree energ DENC   =    -11197.02572337
  -exchange      EXHF   =         0.00000000
  -V(xc)+E(xc)   XCENC  =       446.63038354
  PAW double counting   =     51723.88885462   -52548.28121372
  entropy T*S    EENTRO =        -0.10404854
  eigenvalues    EBANDS =      5259.79828640
  atomic energy  EATOM  =     64202.43901263
  Solvation  Ediel_sol  =         0.00000000
  ---------------------------------------------------
  free energy    TOTEN  =     -1045.17515880 eV

  energy without entropy =    -1045.07111026  energy(sigma->0) =    -1045.14047595


--------------------------------------------------------------------------------------------------------




--------------------------------------- Iteration      1(   6)  ---------------------------------------


    POTLOK:  cpu time    0.2917: real time    0.2924
    SETDIJ:  cpu time    0.0581: real time    0.0581
    EDDIAG:  cpu time    6.8450: real time    6.8447
  RMM-DIIS:  cpu time   25.0661: real time   25.0650
    ORTHCH:  cpu time    1.8028: real time    1.8028
       DOS:  cpu time    0.0084: real time    0.0084
    CHARGE:  cpu time    2.5859: real time    2.5858
    MIXING:  cpu time    0.0077: real time    0.0077
    --------------------------------------------
      LOOP:  cpu time   36.6657: real time   36.6648

 eigenvalue-minimisations  :  4144
 total energy-change (2. order) : 0.1680066E+03  (-0.1352828E+03)
 number of electron     864.0000778 magnetization 
 augmentation part      447.6182464 magnetization 

 Broyden mixing:
  rms(total) = 0.88419E+00    rms(broyden)= 0.88369E+00
  rms(prec ) = 0.95521E+00
  weight for this iteration     100.00

 eigenvalues of (default mixing * dielectric matrix)
  average eigenvalue GAMMA=   0.9506
  0.9506

 Free energy of the ion-electron system (eV)
  ---------------------------------------------------
  alpha Z        PSCENC =      7300.31925852
  Ewald energy   TEWEN  =    -66232.83996889
  -Hartree energ DENC   =     -9342.74961163
  -exchange      EXHF   =         0.00000000
  -V(xc)+E(xc)   XCENC  =       355.82886385
  PAW double counting   =     52455.93999870   -53036.25671867
  entropy T*S    EENTRO =        -0.06058267
  eigenvalues    EBANDS =      3420.21115997
  atomic energy  EATOM  =     64202.43901263
  Solvation  Ediel_sol  =         0.00000000
  ---------------------------------------------------
  free energy    TOTEN  =      -877.16858817 eV

  energy without entropy =     -877.10800550  energy(sigma->0) =     -877.14839395


--------------------------------------------------------------------------------------------------------




--------------------------------------- Iteration      1(   7)  ---------------------------------------


    POTLOK:  cpu time    0.3092: real time    0.3103
    SETDIJ:  cpu time    0.0602: real time    0.0602
    EDDIAG:  cpu time    6.7897: real time    6.7896
  RMM-DIIS:  cpu time   27.4250: real time   27.4480
    ORTHCH:  cpu time    1.8056: real time    1.8055
       DOS:  cpu time    0.0083: real time    0.0083
    CHARGE:  cpu time    2.5345: real time    2.5344
    MIXING:  cpu time    0.0087: real time    0.0087
    --------------------------------------------
      LOOP:  cpu time   38.9412: real time   38.9648

 eigenvalue-minimisations  :  4552
 total energy-change (2. order) :-0.3115192E+01  (-0.1118283E+02)
 number of electron     864.0000753 magnetization 
 augmentation part      447.0859838 magnetization 

 Broyden mixing:
  rms(total) = 0.34404E+00    rms(broyden)= 0.34392E+00
  rms(prec ) = 0.38444E+00
  weight for this iteration     100.00

 eigenvalues of (default mixing * dielectric matrix)
  average eigenvalue GAMMA=   1.0974
  1.0974  1.0974

 Free energy of the ion-electron system (eV)
  ---------------------------------------------------
  alpha Z        PSCENC =      7300.31925852
  Ewald energy   TEWEN  =    -66232.83996889
  -Hartree energ DENC   =     -9380.13037583
  -exchange      EXHF   =         0.00000000
  -V(xc)+E(xc)   XCENC  =       360.07277285
  PAW double counting   =     54336.54159019   -55112.99540985
  entropy T*S    EENTRO =        -0.15029547
  eigenvalues    EBANDS =      3646.45963597
  atomic energy  EATOM  =     64202.43901263
  Solvation  Ediel_sol  =         0.00000000
  ---------------------------------------------------
  free energy    TOTEN  =      -880.28377987 eV

  energy without entropy =     -880.13348441  energy(sigma->0) =     -880.23368138


--------------------------------------------------------------------------------------------------------




--------------------------------------- Iteration      1(   8)  ---------------------------------------


    POTLOK:  cpu time    0.2909: real time    0.2916
    SETDIJ:  cpu time    0.0571: real time    0.0571
    EDDIAG:  cpu time    6.8077: real time    6.8089
  RMM-DIIS:  cpu time   26.6856: real time   26.7068
    ORTHCH:  cpu time    1.8036: real time    1.8035
       DOS:  cpu time    0.0083: real time    0.0083
    CHARGE:  cpu time    2.6035: real time    2.6034
    MIXING:  cpu time    0.0096: real time    0.0096
    --------------------------------------------
      LOOP:  cpu time   38.2664: real time   38.2892

 eigenvalue-minimisations  :  4406
 total energy-change (2. order) : 0.9191074E+00  (-0.1317798E+01)
 number of electron     864.0000748 magnetization 
 augmentation part      442.9909311 magnetization 

 Broyden mixing:
  rms(total) = 0.41672E+00    rms(broyden)= 0.41669E+00
  rms(prec ) = 0.54634E+00
  weight for this iteration     100.00

 eigenvalues of (default mixing * dielectric matrix)
  average eigenvalue GAMMA=   0.8507
  1.0071  1.2208  0.3242

 Free energy of the ion-electron system (eV)
  ---------------------------------------------------
  alpha Z        PSCENC =      7300.31925852
  Ewald energy   TEWEN  =    -66232.83996889
  -Hartree energ DENC   =     -9419.14889075
  -exchange      EXHF   =         0.00000000
  -V(xc)+E(xc)   XCENC  =       363.05132092
  PAW double counting   =     56144.50904863   -57029.94913768
  entropy T*S    EENTRO =        -0.06996395
  eigenvalues    EBANDS =      3792.32464807
  atomic energy  EATOM  =     64202.43901263
  Solvation  Ediel_sol  =         0.00000000
  ---------------------------------------------------
  free energy    TOTEN  =      -879.36467250 eV

  energy without entropy =     -879.29470855  energy(sigma->0) =     -879.34135118


--------------------------------------------------------------------------------------------------------




--------------------------------------- Iteration      1(   9)  ---------------------------------------


    POTLOK:  cpu time    0.3083: real time    0.3093
    SETDIJ:  cpu time    0.0575: real time    0.0575
    EDDIAG:  cpu time    7.0194: real time    7.0206
  RMM-DIIS:  cpu time   34.3310: real time   34.3416
    ORTHCH:  cpu time    1.8035: real time    1.8037
       DOS:  cpu time    0.0083: real time    0.0083
    CHARGE:  cpu time    2.5366: real time    2.5365
    MIXING:  cpu time    0.0103: real time    0.0103
    --------------------------------------------
      LOOP:  cpu time   46.0748: real time   46.0878

 eigenvalue-minimisations  :  5779
 total energy-change (2. order) :-0.3804628E+00  (-0.4880044E+00)
 number of electron     864.0000751 magnetization 
 augmentation part      443.7712118 magnetization 

 Broyden mixing:
  rms(total) = 0.38669E+00    rms(broyden)= 0.38665E+00
  rms(prec ) = 0.51886E+00
  weight for this iteration     100.00

 eigenvalues of (default mixing * dielectric matrix)
  average eigenvalue GAMMA=   1.1532
  2.4576  1.0234  1.0234  0.1084

 Free energy of the ion-electron system (eV)
  ---------------------------------------------------
  alpha Z        PSCENC =      7300.31925852
  Ewald energy   TEWEN  =    -66232.83996889
  -Hartree energ DENC   =     -9407.45396760
  -exchange      EXHF   =         0.00000000
  -V(xc)+E(xc)   XCENC  =       362.57563730
  PAW double counting   =     56351.96762110   -57244.89045140
  entropy T*S    EENTRO =        -0.07434917
  eigenvalues    EBANDS =      3788.21207218
  atomic energy  EATOM  =     64202.43901263
  Solvation  Ediel_sol  =         0.00000000
  ---------------------------------------------------
  free energy    TOTEN  =      -879.74513532 eV

  energy without entropy =     -879.67078615  energy(sigma->0) =     -879.72035226


--------------------------------------------------------------------------------------------------------




--------------------------------------- Iteration      1(  10)  ---------------------------------------


    POTLOK:  cpu time    0.2984: real time    0.2992
    SETDIJ:  cpu time    0.0578: real time    0.0578
    EDDIAG:  cpu time    6.8191: real time    6.8208
  RMM-DIIS:  cpu time   30.1809: real time   30.1802
    ORTHCH:  cpu time    1.8046: real time    1.8045
       DOS:  cpu time    0.0083: real time    0.0083
    CHARGE:  cpu time    2.4758: real time    2.4757
    MIXING:  cpu time    0.0099: real time    0.0099
    --------------------------------------------
      LOOP:  cpu time   41.6547: real time   41.6563

 eigenvalue-minimisations  :  4979
 total energy-change (2. order) : 0.1935166E+00  (-0.1090297E+00)
 number of electron     864.0000752 magnetization 
 augmentation part      445.0552891 magnetization 

 Broyden mixing:
  rms(total) = 0.93222E-01    rms(broyden)= 0.93183E-01
  rms(prec ) = 0.11687E+00
  weight for this iteration     100.00

 eigenvalues of (default mixing * dielectric matrix)
  average eigenvalue GAMMA=   1.2701
  2.7026  1.6352  0.9523  0.9523  0.1081

 Free energy of the ion-electron system (eV)
  ---------------------------------------------------
  alpha Z        PSCENC =      7300.31925852
  Ewald energy   TEWEN  =    -66232.83996889
  -Hartree energ DENC   =     -9323.37550703
  -exchange      EXHF   =         0.00000000
  -V(xc)+E(xc)   XCENC  =       359.17101449
  PAW double counting   =     57865.11474087   -58806.78127639
  entropy T*S    EENTRO =        -0.08465052
  eigenvalues    EBANDS =      3756.48575764
  atomic energy  EATOM  =     64202.43901263
  Solvation  Ediel_sol  =         0.00000000
  ---------------------------------------------------
  free energy    TOTEN  =      -879.55161868 eV

  energy without entropy =     -879.46696816  energy(sigma->0) =     -879.52340184


--------------------------------------------------------------------------------------------------------




--------------------------------------- Iteration      1(  11)  ---------------------------------------


    POTLOK:  cpu time    0.2948: real time    0.2955
    SETDIJ:  cpu time    0.0556: real time    0.0556
    EDDIAG:  cpu time    6.8463: real time    6.8460
  RMM-DIIS:  cpu time   30.7234: real time   30.7221
    ORTHCH:  cpu time    1.8014: real time    1.8013
       DOS:  cpu time    0.0084: real time    0.0084
    CHARGE:  cpu time    2.4668: real time    2.4666
    MIXING:  cpu time    0.0103: real time    0.0103
    --------------------------------------------
      LOOP:  cpu time   42.2069: real time   42.2059

 eigenvalue-minimisations  :  5092
 total energy-change (2. order) :-0.4270899E-02  (-0.2060061E-01)
 number of electron     864.0000752 magnetization 
 augmentation part      444.8407241 magnetization 

 Broyden mixing:
  rms(total) = 0.46390E-01    rms(broyden)= 0.46390E-01
  rms(prec ) = 0.58800E-01
  weight for this iteration     100.00

 eigenvalues of (default mixing * dielectric matrix)
  average eigenvalue GAMMA=   1.2694
  2.7208  2.0806  0.9596  0.9596  0.7877  0.1081

 Free energy of the ion-electron system (eV)
  ---------------------------------------------------
  alpha Z        PSCENC =      7300.31925852
  Ewald energy   TEWEN  =    -66232.83996889
  -Hartree energ DENC   =     -9336.46392923
  -exchange      EXHF   =         0.00000000
  -V(xc)+E(xc)   XCENC  =       359.78977522
  PAW double counting   =     58047.77329804   -58988.68402359
  entropy T*S    EENTRO =        -0.08006445
  eigenvalues    EBANDS =      3768.19075217
  atomic energy  EATOM  =     64202.43901263
  Solvation  Ediel_sol  =         0.00000000
  ---------------------------------------------------
  free energy    TOTEN  =      -879.55588957 eV

  energy without entropy =     -879.47582512  energy(sigma->0) =     -879.52920142


--------------------------------------------------------------------------------------------------------




--------------------------------------- Iteration      1(  12)  ---------------------------------------


    POTLOK:  cpu time    0.2926: real time    0.2938
    SETDIJ:  cpu time    0.0554: real time    0.0554
    EDDIAG:  cpu time    6.8298: real time    6.8298
  RMM-DIIS:  cpu time   30.7326: real time   30.7314
    ORTHCH:  cpu time    1.8055: real time    1.8054
       DOS:  cpu time    0.0083: real time    0.0083
    CHARGE:  cpu time    2.6205: real time    2.6205
    MIXING:  cpu time    0.0121: real time    0.0121
    --------------------------------------------
      LOOP:  cpu time   42.3570: real time   42.3567

 eigenvalue-minimisations  :  5071
 total energy-change (2. order) : 0.2634205E-03  (-0.5425234E-02)
 number of electron     864.0000752 magnetization 
 augmentation part      444.6395619 magnetization 

 Broyden mixing:
  rms(total) = 0.84365E-02    rms(broyden)= 0.84353E-02
  rms(prec ) = 0.10829E-01
  weight for this iteration     100.00

 eigenvalues of (default mixing * dielectric matrix)
  average eigenvalue GAMMA=   1.2891
  2.5713  2.3720  0.9722  0.9722  1.0622  0.9654  0.1081

 Free energy of the ion-electron system (eV)
  ---------------------------------------------------
  alpha Z        PSCENC =      7300.31925852
  Ewald energy   TEWEN  =    -66232.83996889
  -Hartree energ DENC   =     -9346.61086802
  -exchange      EXHF   =         0.00000000
  -V(xc)+E(xc)   XCENC  =       360.23190333
  PAW double counting   =     58051.22534512   -58988.48067805
  entropy T*S    EENTRO =        -0.07716206
  eigenvalues    EBANDS =      3774.23753125
  atomic energy  EATOM  =     64202.43901263
  Solvation  Ediel_sol  =         0.00000000
  ---------------------------------------------------
  free energy    TOTEN  =      -879.55562615 eV

  energy without entropy =     -879.47846410  energy(sigma->0) =     -879.52990547


--------------------------------------------------------------------------------------------------------




--------------------------------------- Iteration      1(  13)  ---------------------------------------


    POTLOK:  cpu time    0.3132: real time    0.3138
    SETDIJ:  cpu time    0.0577: real time    0.0577
    EDDIAG:  cpu time    6.8590: real time    6.8586
  RMM-DIIS:  cpu time   36.4364: real time   36.4421
    ORTHCH:  cpu time    1.8136: real time    1.8135
       DOS:  cpu time    0.0084: real time    0.0084
    CHARGE:  cpu time    2.5468: real time    2.5466
    MIXING:  cpu time    0.0115: real time    0.0115
    --------------------------------------------
      LOOP:  cpu time   48.0466: real time   48.0522

 eigenvalue-minimisations  :  6071
 total energy-change (2. order) :-0.7312483E-03  (-0.1160834E-02)
 number of electron     864.0000752 magnetization 
 augmentation part      444.6095431 magnetization 

 Broyden mixing:
  rms(total) = 0.28950E-02    rms(broyden)= 0.28943E-02
  rms(prec ) = 0.40696E-02
  weight for this iteration     100.00

 eigenvalues of (default mixing * dielectric matrix)
  average eigenvalue GAMMA=   1.4182
  2.7792  2.3154  2.3154  0.9658  0.9658  1.0308  0.8653  0.1081

 Free energy of the ion-electron system (eV)
  ---------------------------------------------------
  alpha Z        PSCENC =      7300.31925852
  Ewald energy   TEWEN  =    -66232.83996889
  -Hartree energ DENC   =     -9348.74216168
  -exchange      EXHF   =         0.00000000
  -V(xc)+E(xc)   XCENC  =       360.31810733
  PAW double counting   =     58039.56420127   -58975.25186365
  entropy T*S    EENTRO =        -0.07596044
  eigenvalues    EBANDS =      3774.71301750
  atomic energy  EATOM  =     64202.43901263
  Solvation  Ediel_sol  =         0.00000000
  ---------------------------------------------------
  free energy    TOTEN  =      -879.55635740 eV

  energy without entropy =     -879.48039696  energy(sigma->0) =     -879.53103726


--------------------------------------------------------------------------------------------------------




--------------------------------------- Iteration      1(  14)  ---------------------------------------


    POTLOK:  cpu time    0.2955: real time    0.2963
    SETDIJ:  cpu time    0.0570: real time    0.0570
    EDDIAG:  cpu time    6.8027: real time    6.8029
  RMM-DIIS:  cpu time   34.7268: real time   34.7392
    ORTHCH:  cpu time    1.7819: real time    1.7819
       DOS:  cpu time    0.0084: real time    0.0083
    CHARGE:  cpu time    2.5196: real time    2.5194
    MIXING:  cpu time    0.0128: real time    0.0128
    --------------------------------------------
      LOOP:  cpu time   46.2047: real time   46.2179

 eigenvalue-minimisations  :  5830
 total energy-change (2. order) :-0.1917456E-04  (-0.2325554E-04)
 number of electron     864.0000752 magnetization 
 augmentation part      444.6184519 magnetization 

 Broyden mixing:
  rms(total) = 0.25697E-02    rms(broyden)= 0.25692E-02
  rms(prec ) = 0.33645E-02
  weight for this iteration     100.00

 eigenvalues of (default mixing * dielectric matrix)
  average eigenvalue GAMMA=   1.3547
  2.5364  2.1789  2.1789  1.3300  0.9676  0.9676  1.0339  0.8912  0.1081

 Free energy of the ion-electron system (eV)
  ---------------------------------------------------
  alpha Z        PSCENC =      7300.31925852
  Ewald energy   TEWEN  =    -66232.83996889
  -Hartree energ DENC   =     -9348.66960177
  -exchange      EXHF   =         0.00000000
  -V(xc)+E(xc)   XCENC  =       360.31701014
  PAW double counting   =     58039.69028247   -58975.28559335
  entropy T*S    EENTRO =        -0.07542016
  eigenvalues    EBANDS =      3774.54864382
  atomic energy  EATOM  =     64202.43901263
  Solvation  Ediel_sol  =         0.00000000
  ---------------------------------------------------
  free energy    TOTEN  =      -879.55637658 eV

  energy without entropy =     -879.48095642  energy(sigma->0) =     -879.53123652


--------------------------------------------------------------------------------------------------------




--------------------------------------- Iteration      1(  15)  ---------------------------------------


    POTLOK:  cpu time    0.2819: real time    0.2822
    SETDIJ:  cpu time    0.0576: real time    0.0576
    EDDIAG:  cpu time    7.0945: real time    7.0942
  RMM-DIIS:  cpu time   29.7248: real time   29.7236
    ORTHCH:  cpu time    1.7513: real time    1.7512
       DOS:  cpu time    0.0082: real time    0.0082
    CHARGE:  cpu time    2.5188: real time    2.5186
    MIXING:  cpu time    0.0126: real time    0.0126
    --------------------------------------------
      LOOP:  cpu time   41.4497: real time   41.4483

 eigenvalue-minimisations  :  4969
 total energy-change (2. order) : 0.6221861E-04  ( 0.3213009E-04)
 number of electron     864.0000752 magnetization 
 augmentation part      444.6094846 magnetization 

 Broyden mixing:
  rms(total) = 0.81547E-03    rms(broyden)= 0.81531E-03
  rms(prec ) = 0.11056E-02
  weight for this iteration     100.00

 eigenvalues of (default mixing * dielectric matrix)
  average eigenvalue GAMMA=   1.4291
  2.7980  2.5493  2.0060  2.0060  0.1081  0.9659  0.9659  1.0630  0.9427  0.8858

 Free energy of the ion-electron system (eV)
  ---------------------------------------------------
  alpha Z        PSCENC =      7300.31925852
  Ewald energy   TEWEN  =    -66232.83996889
  -Hartree energ DENC   =     -9348.96536085
  -exchange      EXHF   =         0.00000000
  -V(xc)+E(xc)   XCENC  =       360.33064834
  PAW double counting   =     58037.63183859   -58973.18319722
  entropy T*S    EENTRO =        -0.07490842
  eigenvalues    EBANDS =      3774.78636293
  atomic energy  EATOM  =     64202.43901263
  Solvation  Ediel_sol  =         0.00000000
  ---------------------------------------------------
  free energy    TOTEN  =      -879.55631436 eV

  energy without entropy =     -879.48140594  energy(sigma->0) =     -879.53134489


--------------------------------------------------------------------------------------------------------




--------------------------------------- Iteration      1(  16)  ---------------------------------------


    POTLOK:  cpu time    0.2992: real time    0.2995
    SETDIJ:  cpu time    0.0576: real time    0.0576
    EDDIAG:  cpu time    7.0461: real time    7.0458
  RMM-DIIS:  cpu time   32.3432: real time   32.3453
    ORTHCH:  cpu time    1.7222: real time    1.7221
       DOS:  cpu time    0.0082: real time    0.0082
    CHARGE:  cpu time    2.4502: real time    2.4501
    MIXING:  cpu time    0.0139: real time    0.0139
    --------------------------------------------
      LOOP:  cpu time   43.9406: real time   43.9425

 eigenvalue-minimisations  :  5457
 total energy-change (2. order) : 0.6635860E-04  ( 0.4662997E-04)
 number of electron     864.0000752 magnetization 
 augmentation part      444.6037277 magnetization 

 Broyden mixing:
  rms(total) = 0.42782E-03    rms(broyden)= 0.42777E-03
  rms(prec ) = 0.53823E-03
  weight for this iteration     100.00

 eigenvalues of (default mixing * dielectric matrix)
  average eigenvalue GAMMA=   1.3898
  2.6370  2.4773  2.4773  1.8182  0.1081  1.1732  0.9703  0.9703  0.9768  0.8394
  0.8394

 Free energy of the ion-electron system (eV)
  ---------------------------------------------------
  alpha Z        PSCENC =      7300.31925852
  Ewald energy   TEWEN  =    -66232.83996889
  -Hartree energ DENC   =     -9349.16029915
  -exchange      EXHF   =         0.00000000
  -V(xc)+E(xc)   XCENC  =       360.33955589
  PAW double counting   =     58037.73307481   -58973.20596171
  entropy T*S    EENTRO =        -0.07424964
  eigenvalues    EBANDS =      3774.89332954
  atomic energy  EATOM  =     64202.43901263
  Solvation  Ediel_sol  =         0.00000000
  ---------------------------------------------------
  free energy    TOTEN  =      -879.55624800 eV

  energy without entropy =     -879.48199836  energy(sigma->0) =     -879.53149812


--------------------------------------------------------------------------------------------------------




--------------------------------------- Iteration      1(  17)  ---------------------------------------


    POTLOK:  cpu time    0.3030: real time    0.3033
    SETDIJ:  cpu time    0.0576: real time    0.0576
    EDDIAG:  cpu time    6.9862: real time    6.9876
  RMM-DIIS:  cpu time   20.6038: real time   20.6100
    ORTHCH:  cpu time    1.7959: real time    1.7958
       DOS:  cpu time    0.0084: real time    0.0084
    CHARGE:  cpu time    2.5199: real time    2.5268
    MIXING:  cpu time    0.0142: real time    0.0142
    --------------------------------------------
      LOOP:  cpu time   32.2888: real time   32.3035

 eigenvalue-minimisations  :  3393
[...]
   0.105E-01 0.103E-01 0.143E-04   -.205E-01 -.202E-01 -.277E-04   0.136E-21 0.115E-19 -.449E-19   -.305E-06 -.328E-06 0.232E-07
   -.105E-01 -.143E-04 0.142E-04   0.205E-01 0.277E-04 -.277E-04   -.678E-25 -.148E-19 0.487E-19   0.307E-06 -.232E-07 0.232E-07
   -.105E-01 0.103E-01 -.103E-01   0.205E-01 -.202E-01 0.202E-01   0.908E-25 -.629E-20 -.805E-20   0.306E-06 -.329E-06 0.327E-06
   -.143E-04 -.103E-01 -.103E-01   0.277E-04 0.202E-01 0.202E-01   0.847E-21 -.212E-20 -.254E-19   -.232E-07 0.331E-06 0.331E-06
   -.143E-04 0.143E-04 0.143E-04   0.277E-04 -.277E-04 -.277E-04   0.254E-20 0.762E-20 0.627E-19   -.232E-07 0.232E-07 0.232E-07
   0.103E-01 -.103E-01 0.143E-04   -.202E-01 0.202E-01 -.277E-04   -.319E-21 -.508E-20 -.110E-19   -.328E-06 0.327E-06 0.232E-07
   0.103E-01 0.143E-04 -.103E-01   -.202E-01 -.277E-04 0.202E-01   -.460E-21 -.424E-20 -.127E-20   -.328E-06 0.232E-07 0.327E-06
   -.103E-01 -.103E-01 -.103E-01   0.202E-01 0.202E-01 0.202E-01   0.847E-21 -.508E-20 -.119E-19   0.331E-06 0.331E-06 0.331E-06
   -.103E-01 0.143E-04 0.142E-04   0.202E-01 -.277E-04 -.277E-04   -.675E-25 0.296E-20 0.504E-19   0.328E-06 0.232E-07 0.232E-07
   0.143E-04 -.103E-01 0.142E-04   -.277E-04 0.202E-01 -.277E-04   -.114E-24 0.889E-20 0.178E-19   0.232E-07 0.328E-06 0.232E-07
   0.143E-04 0.143E-04 -.103E-01   -.277E-04 -.277E-04 0.202E-01   0.113E-24 -.762E-20 -.114E-19   0.232E-07 0.232E-07 0.328E-06
   0.105E-01 -.103E-01 -.103E-01   -.205E-01 0.202E-01 0.202E-01   0.470E-21 -.123E-19 0.508E-20   -.309E-06 0.331E-06 0.331E-06
   0.105E-01 0.143E-04 0.143E-04   -.205E-01 -.277E-04 -.277E-04   0.205E-21 0.635E-20 0.436E-19   -.306E-06 0.232E-07 0.232E-07
   -.105E-01 -.103E-01 0.142E-04   0.205E-01 0.202E-01 -.277E-04   -.113E-24 0.466E-20 -.932E-20   0.306E-06 0.327E-06 0.232E-07
   -.105E-01 0.143E-04 -.103E-01   0.205E-01 -.277E-04 0.202E-01   0.114E-24 0.762E-20 -.847E-20   0.306E-06 0.232E-07 0.327E-06
   -.143E-04 0.105E-01 -.103E-01   0.277E-04 -.205E-01 0.202E-01   0.847E-21 0.324E-20 -.199E-19   -.232E-07 -.309E-06 0.331E-06
   -.143E-04 -.105E-01 0.142E-04   0.277E-04 0.205E-01 -.277E-04   0.127E-20 -.678E-20 0.254E-20   -.232E-07 0.307E-06 0.232E-07
   0.103E-01 0.105E-01 0.143E-04   -.202E-01 -.205E-01 -.277E-04   0.913E-21 0.167E-19 -.233E-19   -.328E-06 -.305E-06 0.232E-07
   0.103E-01 -.105E-01 -.103E-01   -.202E-01 0.205E-01 0.202E-01   0.354E-21 -.339E-20 0.805E-20   -.329E-06 0.306E-06 0.327E-06
   -.103E-01 0.105E-01 -.103E-01   0.202E-01 -.205E-01 0.202E-01   -.127E-20 0.154E-20 -.309E-19   0.331E-06 -.309E-06 0.331E-06
   -.103E-01 -.105E-01 0.142E-04   0.202E-01 0.205E-01 -.277E-04   -.113E-24 0.106E-19 -.805E-20   0.327E-06 0.306E-06 0.232E-07
   0.143E-04 0.105E-01 0.143E-04   -.277E-04 -.205E-01 -.277E-04   0.423E-21 -.160E-19 0.381E-20   0.232E-07 -.306E-06 0.232E-07
   0.143E-04 -.105E-01 -.103E-01   -.277E-04 0.205E-01 0.202E-01   0.678E-25 0.127E-19 0.593E-20   0.232E-07 0.306E-06 0.327E-06
   0.105E-01 0.105E-01 -.103E-01   -.205E-01 -.205E-01 0.202E-01   0.407E-20 0.493E-20 -.237E-19   -.309E-06 -.309E-06 0.331E-06
   0.105E-01 -.105E-01 0.143E-04   -.205E-01 0.205E-01 -.277E-04   -.932E-21 0.423E-21 0.974E-20   -.305E-06 0.306E-06 0.232E-07
   -.105E-01 0.105E-01 0.143E-04   0.205E-01 -.205E-01 -.277E-04   -.902E-25 -.325E-20 0.424E-20   0.306E-06 -.305E-06 0.232E-07
   -.105E-01 -.105E-01 -.103E-01   0.205E-01 0.205E-01 0.202E-01   0.684E-25 0.508E-20 0.635E-20   0.306E-06 0.306E-06 0.327E-06
   -.143E-04 -.143E-04 0.105E-01   0.277E-04 0.277E-04 -.205E-01   -.847E-21 -.551E-20 -.900E-20   -.232E-07 -.232E-07 -.310E-06
   -.143E-04 0.103E-01 -.105E-01   0.277E-04 -.202E-01 0.205E-01   0.127E-20 -.250E-20 0.453E-19   -.232E-07 -.328E-06 0.306E-06
   0.103E-01 -.143E-04 -.105E-01   -.202E-01 0.277E-04 0.205E-01   -.356E-21 0.114E-19 -.140E-19   -.328E-06 -.232E-07 0.306E-06
   0.103E-01 0.103E-01 0.105E-01   -.202E-01 -.202E-01 -.205E-01   0.256E-21 -.233E-20 -.486E-19   -.329E-06 -.329E-06 -.305E-06
   -.103E-01 -.143E-04 0.105E-01   0.202E-01 0.277E-04 -.205E-01   0.847E-21 -.296E-20 0.921E-20   0.331E-06 -.232E-07 -.309E-06
   -.103E-01 0.103E-01 -.105E-01   0.202E-01 -.202E-01 0.205E-01   0.896E-25 0.136E-19 0.432E-19   0.327E-06 -.329E-06 0.306E-06
   0.143E-04 -.143E-04 -.105E-01   -.277E-04 0.277E-04 0.205E-01   0.424E-21 0.720E-20 0.424E-21   0.232E-07 -.232E-07 0.307E-06
   0.143E-04 0.103E-01 0.105E-01   -.277E-04 -.202E-01 -.205E-01   0.847E-21 -.742E-20 -.143E-19   0.232E-07 -.328E-06 -.305E-06
   0.105E-01 -.143E-04 0.105E-01   -.205E-01 0.277E-04 -.205E-01   0.272E-20 -.678E-20 0.147E-19   -.309E-06 -.232E-07 -.309E-06
   0.105E-01 0.103E-01 -.105E-01   -.205E-01 -.202E-01 0.205E-01   -.176E-20 -.504E-20 0.368E-19   -.305E-06 -.329E-06 0.306E-06
   -.105E-01 -.143E-04 -.105E-01   0.205E-01 0.277E-04 0.205E-01   0.112E-24 0.424E-20 -.203E-19   0.306E-06 -.232E-07 0.306E-06
   -.105E-01 0.103E-01 0.105E-01   0.205E-01 -.202E-01 -.205E-01   -.129E-27 0.402E-20 -.215E-19   0.306E-06 -.329E-06 -.305E-06
   -.143E-04 -.103E-01 0.105E-01   0.277E-04 0.202E-01 -.205E-01   -.127E-20 -.805E-20 0.270E-19   -.232E-07 0.331E-06 -.309E-06
   -.143E-04 0.143E-04 -.105E-01   0.277E-04 -.277E-04 0.205E-01   0.847E-21 -.932E-20 -.394E-19   -.232E-07 0.232E-07 0.307E-06
   0.103E-01 -.103E-01 -.105E-01   -.202E-01 0.202E-01 0.205E-01   0.520E-21 -.932E-20 0.762E-20   -.329E-06 0.327E-06 0.306E-06
   0.103E-01 0.143E-04 0.105E-01   -.202E-01 -.277E-04 -.205E-01   -.129E-21 0.381E-20 -.245E-19   -.328E-06 0.232E-07 -.305E-06
   -.103E-01 -.103E-01 0.105E-01   0.202E-01 0.202E-01 -.205E-01   -.127E-20 0.847E-21 0.164E-19   0.331E-06 0.331E-06 -.309E-06
   -.103E-01 0.143E-04 -.105E-01   0.202E-01 -.277E-04 0.205E-01   0.113E-24 -.169E-20 -.703E-19   0.327E-06 0.232E-07 0.306E-06
   0.143E-04 -.103E-01 -.105E-01   -.277E-04 0.202E-01 0.205E-01   0.663E-25 0.381E-20 -.762E-20   0.232E-07 0.327E-06 0.306E-06
   0.143E-04 0.143E-04 0.105E-01   -.277E-04 -.277E-04 -.205E-01   -.423E-21 -.635E-20 0.285E-19   0.232E-07 0.232E-07 -.306E-06
   0.105E-01 -.103E-01 0.105E-01   -.205E-01 0.202E-01 -.205E-01   -.267E-20 -.466E-20 -.234E-19   -.309E-06 0.331E-06 -.309E-06
   0.105E-01 0.143E-04 -.105E-01   -.205E-01 -.277E-04 0.205E-01   -.628E-22 -.508E-20 -.394E-19   -.305E-06 0.232E-07 0.306E-06
   -.105E-01 -.103E-01 -.105E-01   0.205E-01 0.202E-01 0.205E-01   0.669E-25 0.635E-20 -.762E-20   0.306E-06 0.327E-06 0.306E-06
   -.105E-01 0.143E-04 0.105E-01   0.205E-01 -.277E-04 -.205E-01   0.228E-25 0.102E-19 0.234E-19   0.306E-06 0.232E-07 -.305E-06
   -.143E-04 0.105E-01 0.105E-01   0.277E-04 -.205E-01 -.205E-01   0.212E-20 0.496E-20 -.476E-20   -.232E-07 -.309E-06 -.309E-06
   -.143E-04 -.105E-01 -.105E-01   0.277E-04 0.205E-01 0.205E-01   -.423E-21 -.635E-20 0.169E-19   -.232E-07 0.306E-06 0.306E-06
   0.103E-01 0.105E-01 -.105E-01   -.202E-01 -.205E-01 0.205E-01   0.324E-21 0.636E-20 0.678E-20   -.329E-06 -.305E-06 0.306E-06
   0.103E-01 -.105E-01 0.105E-01   -.202E-01 0.205E-01 -.205E-01   -.160E-20 -.178E-19 0.135E-20   -.329E-06 0.306E-06 -.305E-06
   -.103E-01 0.105E-01 0.105E-01   0.202E-01 -.205E-01 -.205E-01   0.847E-21 0.241E-20 0.465E-19   0.331E-06 -.309E-06 -.309E-06
   -.103E-01 -.105E-01 -.105E-01   0.202E-01 0.205E-01 0.205E-01   0.672E-25 -.593E-20 0.102E-19   0.327E-06 0.306E-06 0.306E-06
   0.143E-04 0.105E-01 -.105E-01   -.277E-04 -.205E-01 0.205E-01   -.847E-21 -.114E-19 -.237E-19   0.232E-07 -.305E-06 0.306E-06
   0.143E-04 -.105E-01 0.105E-01   -.277E-04 0.205E-01 -.205E-01   -.847E-21 0.508E-20 -.795E-20   0.232E-07 0.306E-06 -.305E-06
   0.105E-01 0.105E-01 0.105E-01   -.205E-01 -.205E-01 -.205E-01   0.151E-20 0.138E-19 0.223E-19   -.309E-06 -.309E-06 -.309E-06
   0.105E-01 -.105E-01 -.105E-01   -.205E-01 0.205E-01 0.205E-01   0.748E-21 0.381E-20 0.102E-19   -.305E-06 0.306E-06 0.306E-06
   -.105E-01 0.105E-01 -.105E-01   0.205E-01 -.205E-01 0.205E-01   0.898E-25 0.933E-20 -.102E-19   0.306E-06 -.305E-06 0.306E-06
   -.105E-01 -.105E-01 0.105E-01   0.205E-01 0.205E-01 -.205E-01   -.227E-25 -.152E-19 0.855E-20   0.306E-06 0.306E-06 -.305E-06
 -----------------------------------------------------------------------------------------------
   0.177E-09 0.212E-09 0.126E-09   -.206E-12 -.696E-12 0.387E-11   0.884E-20 0.855E-19 0.258E-18   -.868E-10 -.860E-10 -.879E-10
 
 
 POSITION                                       TOTAL-FORCE (eV/Angst)
 -----------------------------------------------------------------------------------
     -0.00000      0.00000     -0.00000        -0.000000     -0.000000     -0.000000
      0.00000      1.72381      1.72381        -0.000000     -0.000000     -0.000000
      1.72381      0.00000      1.72381        -0.000000      0.000000      0.000000
      1.72381      1.72381     -0.00000        -0.000000      0.000000     -0.000000
      3.44756      0.00000     -0.00000         0.000000      0.000000      0.000000
      3.44756      1.72381      1.72381         0.000000     -0.000000      0.000000
      5.17137      0.00000      1.72381        -0.000000     -0.000000     -0.000000
      5.17137      1.72381     -0.00000         0.000000     -0.000000     -0.000000
      6.89519      0.00000     -0.00000         0.000000     -0.000000      0.000000
      6.89519      1.72381      1.72381         0.000000     -0.000000      0.000000
      8.61893      0.00000      1.72381        -0.000000     -0.000000      0.000000
      8.61893      1.72381     -0.00000        -0.000000      0.000000     -0.000000
     -0.00000      3.44756     -0.00000        -0.000000     -0.000000     -0.000000
      0.00000      5.17137      1.72381         0.000000      0.000000     -0.000000
      1.72381      3.44756      1.72381        -0.000000     -0.000000     -0.000000
      1.72381      5.17137     -0.00000         0.000000     -0.000000     -0.000000
      3.44756      3.44756     -0.00000        -0.000000      0.000000      0.000000
      3.44756      5.17137      1.72381         0.000000      0.000000     -0.000000
      5.17137      3.44756      1.72381         0.000000     -0.000000     -0.000000
      5.17137      5.17137     -0.00000         0.000000     -0.000000      0.000000
      6.89519      3.44756     -0.00000         0.000000      0.000000      0.000000
      6.89519      5.17137      1.72381         0.000000      0.000000     -0.000000
      8.61893      3.44756      1.72381         0.000000     -0.000000     -0.000000
      8.61893      5.17137     -0.00000         0.000000     -0.000000      0.000000
     -0.00000      6.89519     -0.00000         0.000000     -0.000000      0.000000
     -0.00000      8.61893      1.72381         0.000000     -0.000000      0.000000
      1.72381      6.89519      1.72381        -0.000000      0.000000      0.000000
      1.72381      8.61893     -0.00000        -0.000000      0.000000     -0.000000
      3.44756      6.89519     -0.00000        -0.000000     -0.000000      0.000000
      3.44756      8.61893      1.72381         0.000000     -0.000000     -0.000000
      5.17137      6.89519      1.72381         0.000000     -0.000000     -0.000000
      5.17137      8.61893     -0.00000         0.000000     -0.000000      0.000000
      6.89519      6.89519     -0.00000         0.000000     -0.000000      0.000000
      6.89519      8.61893      1.72381         0.000000      0.000000     -0.000000
      8.61893      6.89519      1.72381        -0.000000      0.000000     -0.000000
      8.61893      8.61893     -0.00000        -0.000000     -0.000000      0.000000
      0.00000      0.00000      3.44756        -0.000000      0.000000      0.000000
      0.00000      1.72381      5.17137        -0.000000     -0.000000     -0.000000
      1.72381      0.00000      5.17137        -0.000000     -0.000000      0.000000
      1.72381      1.72381      3.44756        -0.000000      0.000000      0.000000
      3.44756      0.00000      3.44756         0.000000      0.000000      0.000000
      3.44756      1.72381      5.17137         0.000000      0.000000      0.000000
      5.17137      0.00000      5.17137         0.000000      0.000000     -0.000000
      5.17137      1.72381      3.44756         0.000000      0.000000      0.000000
      6.89519      0.00000      3.44756         0.000000     -0.000000      0.000000
      6.89519      1.72381      5.17137         0.000000      0.000000      0.000000
      8.61893      0.00000      5.17137         0.000000      0.000000      0.000000
      8.61893      1.72381      3.44756        -0.000000     -0.000000      0.000000
      0.00000      3.44756      3.44756        -0.000000     -0.000000      0.000000
      0.00000      5.17137      5.17137        -0.000000      0.000000      0.000000
      1.72381      3.44756      5.17137        -0.000000     -0.000000      0.000000
      1.72381      5.17137      3.44756        -0.000000     -0.000000     -0.000000
      3.44756      3.44756      3.44756         0.000000     -0.000000      0.000000
      3.44756      5.17137      5.17137        -0.000000      0.000000     -0.000000
      5.17137      3.44756      5.17137         0.000000     -0.000000     -0.000000
      5.17137      5.17137      3.44756         0.000000     -0.000000     -0.000000
      6.89519      3.44756      3.44756         0.000000      0.000000     -0.000000
      6.89519      5.17137      5.17137         0.000000     -0.000000     -0.000000
      8.61893      3.44756      5.17137        -0.000000      0.000000     -0.000000
      8.61893      5.17137      3.44756        -0.000000     -0.000000     -0.000000
      0.00000      6.89519      3.44756        -0.000000     -0.000000     -0.000000
      0.00000      8.61893      5.17137        -0.000000     -0.000000     -0.000000
      1.72381      6.89519      5.17137         0.000000      0.000000      0.000000
      1.72381      8.61893      3.44756         0.000000     -0.000000      0.000000
      3.44756      6.89519      3.44756        -0.000000     -0.000000      0.000000
      3.44756      8.61893      5.17137        -0.000000     -0.000000      0.000000
      5.17137      6.89519      5.17137         0.000000      0.000000     -0.000000
      5.17137      8.61893      3.44756         0.000000     -0.000000     -0.000000
      6.89519      6.89519      3.44756         0.000000     -0.000000     -0.000000
      6.89519      8.61893      5.17137         0.000000      0.000000     -0.000000
      8.61893      6.89519      5.17137         0.000000      0.000000     -0.000000
      8.61893      8.61893      3.44756        -0.000000     -0.000000      0.000000
      0.00000      0.00000      6.89519        -0.000000     -0.000000     -0.000000
      0.00000      1.72381      8.61893        -0.000000      0.000000      0.000000
      1.72381      0.00000      8.61893        -0.000000     -0.000000     -0.000000
      1.72381      1.72381      6.89519        -0.000000      0.000000     -0.000000
      3.44756      0.00000      6.89519        -0.000000     -0.000000     -0.000000
      3.44756      1.72381      8.61893        -0.000000      0.000000     -0.000000
      5.17137      0.00000      8.61893         0.000000     -0.000000      0.000000
      5.17137      1.72381      6.89519         0.000000     -0.000000     -0.000000
      6.89519      0.00000      6.89519         0.000000     -0.000000      0.000000
      6.89519      1.72381      8.61893         0.000000     -0.000000     -0.000000
      8.61893      0.00000      8.61893        -0.000000     -0.000000     -0.000000
      8.61893      1.72381      6.89519        -0.000000      0.000000     -0.000000
      0.00000      3.44756      6.89519        -0.000000     -0.000000     -0.000000
      0.00000      5.17137      8.61893        -0.000000      0.000000      0.000000
      1.72381      3.44756      8.61893        -0.000000     -0.000000     -0.000000
      1.72381      5.17137      6.89519        -0.000000     -0.000000     -0.000000
      3.44756      3.44756      6.89519         0.000000      0.000000      0.000000
      3.44756      5.17137      8.61893        -0.000000      0.000000      0.000000
      5.17137      3.44756      8.61893         0.000000      0.000000      0.000000
      5.17137      5.17137      6.89519         0.000000      0.000000      0.000000
      6.89519      3.44756      6.89519         0.000000      0.000000      0.000000
      6.89519      5.17137      8.61893         0.000000     -0.000000      0.000000
      8.61893      3.44756      8.61893        -0.000000     -0.000000      0.000000
      8.61893      5.17137      6.89519         0.000000     -0.000000      0.000000
      0.00000      6.89519      6.89519         0.000000     -0.000000     -0.000000
      0.00000      8.61893      8.61893         0.000000     -0.000000     -0.000000
      1.72381      6.89519      8.61893        -0.000000      0.000000     -0.000000
      1.72381      8.61893      6.89519        -0.000000     -0.000000     -0.000000
      3.44756      6.89519      6.89519        -0.000000     -0.000000     -0.000000
      3.44756      8.61893      8.61893        -0.000000     -0.000000      0.000000
      5.17137      6.89519      8.61893         0.000000      0.000000      0.000000
      5.17137      8.61893      6.89519        -0.000000     -0.000000      0.000000
      6.89519      6.89519      6.89519         0.000000     -0.000000      0.000000
      6.89519      8.61893      8.61893         0.000000      0.000000      0.000000
      8.61893      6.89519      8.61893        -0.000000      0.000000      0.000000
      8.61893      8.61893      6.89519         0.000000      0.000000      0.000000
 -----------------------------------------------------------------------------------
    total drift:                                0.000000      0.000000      0.000000


--------------------------------------------------------------------------------------------------------



  FREE ENERGIE OF THE ION-ELECTRON SYSTEM (eV)
  ---------------------------------------------------
  free  energy   TOTEN  =      -879.56381514 eV

  energy  without entropy=     -879.49387983  energy(sigma->0) =     -879.54050337
 
 d Force = 0.0000000E+00[ 0.000E+00, 0.000E+00]  d Energy = 0.3119506E-01-0.312E-01
 d Force = 0.0000000E+00[ 0.000E+00, 0.000E+00]  d Ewald  = 0.1120058E+03-0.112E+03


--------------------------------------------------------------------------------------------------------


    POTLOK:  cpu time    0.2650: real time    0.2650


--------------------------------------------------------------------------------------------------------




--------------------------------------------------------------------------------------------------------


  
 reached required accuracy - stopping structural energy minimisation
     LOOP+:  cpu time  437.4956: real time  437.5598
    4ORBIT:  cpu time    0.0000: real time    0.0000

 total amount of memory used by VASP MPI-rank0   251368. kBytes
=======================================================================

   base      :      30000. kBytes
   nonlr-proj:      22467. kBytes
   fftplans  :      15496. kBytes
   grid      :      21835. kBytes
   one-center:        419. kBytes
   wavefun   :     161151. kBytes
 
  
  
 General timing and accounting informations for this job:
 ========================================================
  
                  Total CPU time used (sec):     2547.914
                            User time (sec):     2543.403
                          System time (sec):        4.511
                         Elapsed time (sec):     2548.377
  
                   Maximum memory used (kb):      309864.
                   Average memory used (kb):           0.
  
                          Minor page faults:       470556
                          Major page faults:            0
                 Voluntary context switches:          917
