<?xml version="1.0" encoding="ISO-8859-1"?>
<modeling>
 <generator>
  <i name="program" type="string">vasp </i>
  <i name="version" type="string">5.4.4.18Apr17-6-g9f103f2a35  </i>
  <i name="subversion" type="string">(build Aug 17 2017 06:00:38) complex            parallel </i>
  <i name="platform" type="string">LinuxIFC </i>
  <i name="date" type="string">2019 07 12 </i>
  <i name="time" type="string">14:47:01 </i>
 </generator>
 <incar>
  <i type="string" name="SYSTEM">Opt</i>
  <i type="int" name="ISTART">     0</i>
  <i type="string" name="PREC">normal</i>
  <i type="string" name="ALGO"> Fast</i>
  <i type="int" name="ISPIN">     1</i>
  <i type="int" name="ICHARG">     2</i>
  <i type="int" name="NELM">   400</i>
  <i type="int" name="IBRION">     2</i>
  <i name="EDIFF">      0.00000100</i>
  <i name="EDIFFG">     -0.01000000</i>
  <i type="int" name="NSW">   100</i>
  <i type="int" name="ISIF">     3</i>
  <i name="ENCUT">    600.00000000</i>
  <i type="int" name="NGX">    72</i>
  <i type="int" name="NGY">    72</i>
  <i type="int" name="NGZ">    72</i>
  <i name="POTIM">      0.50000000</i>
  <i type="string" name="LREAL">Auto</i>
  <i type="logical" name="LWAVE"> F  </i>
  <i type="logical" name="LCHARG"> F  </i>
  <v type="int" name="KPOINT_BSE">    -1     0     0     0</v>
  <i type="int" name="NELM">   400</i>
 </incar>
 <structure name="primitive_cell" >
  <crystal>
   <varray name="basis" >
    <v>       3.44492529       0.00000000       0.00000000 </v>
    <v>       0.00000000       3.44492529       0.00000000 </v>
    <v>       0.00000000       0.00000000       3.44492524 </v>
   </varray>
   <i name="volume">     40.88268566 </i>
   <varray name="rec_basis" >
    <v>       0.29028206       0.00000000       0.00000000 </v>
    <v>       0.00000000       0.29028206       0.00000000 </v>
    <v>       0.00000000       0.00000000       0.29028206 </v>
   </varray>
  </crystal>
  <varray name="positions" >
   <v>       0.00000000       0.00000000       0.00000000 </v>
   <v>       0.00000000      -0.49998976      -0.49998975 </v>
   <v>      -0.49998976       0.00000000      -0.49998975 </v>
   <v>      -0.49998976      -0.49998976       0.00000000 </v>
  </varray>
 </structure>
 <varray name="primitive_index" >
  <v type="int" >        1 </v>
  <v type="int" >        2 </v>
  <v type="int" >        3 </v>
  <v type="int" >        4 </v>
 </varray>
 <kpoints>
  <generation param="Monkhorst-Pack">
   <v type="int" name="divisions">       4        4        4 </v>
   <v name="usershift">      0.00000000       0.00000000       0.00000000 </v>
   <v name="genvec1">      0.25000000       0.00000000       0.00000000 </v>
   <v name="genvec2">      0.00000000       0.25000000       0.00000000 </v>
   <v name="genvec3">      0.00000000       0.00000000       0.25000000 </v>
   <v name="shift">      0.50000000       0.50000000       0.50000000 </v>
  </generation>
  <varray name="kpointlist" >
   <v>       0.12500000       0.12500000       0.12500000 </v>
   <v>       0.37500000       0.12500000       0.12500000 </v>
   <v>       0.37500000       0.37500000       0.12500000 </v>
   <v>       0.37500000       0.37500000       0.37500000 </v>
  </varray>
  <varray name="weights" >
   <v>       0.12500000 </v>
   <v>       0.37500000 </v>
   <v>       0.37500000 </v>
   <v>       0.12500000 </v>
  </varray>
 </kpoints>
 <parameters>
  <separator name="general" >
   <i type="string" name="SYSTEM">Opt</i>
   <i type="logical" name="LCOMPAT"> F  </i>
  </separator>
  <separator name="electronic" >
   <i type="string" name="PREC">normal</i>
   <i name="ENMAX">    600.00000000</i>
   <i name="ENAUG">    511.36800000</i>
   <i name="EDIFF">      0.00000100</i>
   <i type="int" name="IALGO">    68</i>
   <i type="int" name="IWAVPR">    11</i>
   <i type="int" name="NBANDS">   518</i>
   <i name="NELECT">    864.00000000</i>
   <i type="int" name="TURBO">     0</i>
   <i type="int" name="IRESTART">     0</i>
   <i type="int" name="NREBOOT">     0</i>
   <i type="int" name="NMIN">     0</i>
   <i name="EREF">      0.00000000</i>
   <separator name="electronic smearing" >
    <i type="int" name="ISMEAR">     1</i>
    <i name="SIGMA">      0.20000000</i>
    <i name="KSPACING">      0.50000000</i>
    <i type="logical" name="KGAMMA"> T  </i>
   </separator>
   <separator name="electronic projectors" >
    <i type="logical" name="LREAL"> T  </i>
    <v name="ROPT">     -0.00050000</v>
    <i type="int" name="LMAXPAW">  -100</i>
    <i type="int" name="LMAXMIX">     2</i>
    <i type="logical" name="NLSPLINE"> F  </i>
   </separator>
   <separator name="electronic startup" >
    <i type="int" name="ISTART">     0</i>
    <i type="int" name="ICHARG">     2</i>
    <i type="int" name="INIWAV">     1</i>
   </separator>
   <separator name="electronic spin" >
    <i type="int" name="ISPIN">     1</i>
    <i type="logical" name="LNONCOLLINEAR"> F  </i>
    <v name="MAGMOM">      1.00000000      1.00000000      1.00000000      1.00000000      1.00000000      1.00000000      1.00000000      1.00000000      1.00000000      1.00000000      1.00000000      1.00000000      1.00000000      1.00000000      1.00000000      1.00000000      1.00000000      1.00000000      1.00000000      1.00000000
      1.00000000      1.00000000      1.00000000      1.00000000      1.00000000      1.00000000      1.00000000      1.00000000      1.00000000      1.00000000      1.00000000      1.00000000      1.00000000      1.00000000      1.00000000      1.00000000      1.00000000      1.00000000      1.00000000      1.00000000
      1.00000000      1.00000000      1.00000000      1.00000000      1.00000000      1.00000000      1.00000000      1.00000000      1.00000000      1.00000000      1.00000000      1.00000000      1.00000000      1.00000000      1.00000000      1.00000000      1.00000000      1.00000000      1.00000000      1.00000000
      1.00000000      1.00000000      1.00000000      1.00000000      1.00000000      1.00000000      1.00000000      1.00000000      1.00000000      1.00000000      1.00000000      1.00000000      1.00000000      1.00000000      1.00000000      1.00000000      1.00000000      1.00000000      1.00000000      1.00000000
      1.00000000      1.00000000      1.00000000      1.00000000      1.00000000      1.00000000      1.00000000      1.00000000      1.00000000      1.00000000      1.00000000      1.00000000      1.00000000      1.00000000      1.00000000      1.00000000      1.00000000      1.00000000      1.00000000      1.00000000
      1.00000000      1.00000000      1.00000000      1.00000000      1.00000000      1.00000000      1.00000000      1.00000000</v>
    <i name="NUPDOWN">     -1.00000000</i>
    <i type="logical" name="LSORBIT"> F  </i>
    <v name="SAXIS">      0.00000000      0.00000000      1.00000000</v>
    <i type="logical" name="LSPIRAL"> F  </i>
    <v name="QSPIRAL">      0.00000000      0.00000000      0.00000000</v>
    <i type="logical" name="LZEROZ"> F  </i>
   </separator>
   <separator name="electronic exchange-correlation" >
    <i type="logical" name="LASPH"> F  </i>
    <i type="logical" name="LMETAGGA"> F  </i>
   </separator>
   <separator name="electronic convergence" >
    <i type="int" name="NELM">   400</i>
    <i type="int" name="NELMDL">    -5</i>
    <i type="int" name="NELMIN">     2</i>
    <i name="ENINI">    600.00000000</i>
    <separator name="electronic convergence detail" >
     <i type="logical" name="LDIAG"> T  </i>
     <i type="logical" name="LSUBROT"> F  </i>
     <i name="WEIMIN">      0.00100000</i>
     <i name="EBREAK">      0.00000000</i>
     <i name="DEPER">      0.30000000</i>
     <i type="int" name="NRMM">     4</i>
     <i name="TIME">      0.40000000</i>
    </separator>
   </separator>
   <separator name="electronic mixer" >
    <i name="AMIX">      0.40000000</i>
    <i name="BMIX">      1.00000000</i>
    <i name="AMIN">      0.10000000</i>
    <i name="AMIX_MAG">      1.60000000</i>
    <i name="BMIX_MAG">      1.00000000</i>
    <separator name="electronic mixer details" >
     <i type="int" name="IMIX">     4</i>
     <i type="logical" name="MIXFIRST"> F  </i>
     <i type="int" name="MAXMIX">   -45</i>
     <i name="WC">    100.00000000</i>
     <i type="int" name="INIMIX">     1</i>
     <i type="int" name="MIXPRE">     1</i>
     <i type="int" name="MREMOVE">     5</i>
    </separator>
   </separator>
   <separator name="electronic dipolcorrection" >
    <i type="logical" name="LDIPOL"> F  </i>
    <i type="logical" name="LMONO"> F  </i>
    <i type="int" name="IDIPOL">     0</i>
    <i name="EPSILON">      1.00000000</i>
    <v name="DIPOL">   -100.00000000   -100.00000000   -100.00000000</v>
    <i name="EFIELD">      0.00000000</i>
   </separator>
  </separator>
  <separator name="grids" >
   <i type="int" name="NGX">    72</i>
   <i type="int" name="NGY">    72</i>
   <i type="int" name="NGZ">    72</i>
   <i type="int" name="NGXF">   144</i>
   <i type="int" name="NGYF">   144</i>
   <i type="int" name="NGZF">   144</i>
   <i type="logical" name="ADDGRID"> F  </i>
  </separator>
  <separator name="ionic" >
   <i type="int" name="NSW">   100</i>
   <i type="int" name="IBRION">     2</i>
   <i type="int" name="MDALGO">     0</i>
   <i type="int" name="ISIF">     3</i>
   <i name="PSTRESS">      0.00000000</i>
   <i name="EDIFFG">     -0.01000000</i>
   <i type="int" name="NFREE">     1</i>
   <i name="POTIM">      0.50000000</i>
   <i name="SMASS">     -3.00000000</i>
   <i name="SCALEE">      1.00000000</i>
  </separator>
  <separator name="ionic md" >
   <i name="TEBEG">      0.00010000</i>
   <i name="TEEND">      0.00010000</i>
   <i type="int" name="NBLOCK">     1</i>
   <i type="int" name="KBLOCK">   100</i>
   <i type="int" name="NPACO">   256</i>
   <i name="APACO">     16.00000000</i>
  </separator>
  <separator name="symmetry" >
   <i type="int" name="ISYM">     2</i>
   <i name="SYMPREC">      0.00001000</i>
  </separator>
  <separator name="dos" >
   <i type="int" name="LORBIT">     0</i>
   <v name="RWIGS">     -1.00000000</v>
   <i type="int" name="NEDOS">   301</i>
   <i name="EMIN">     10.00000000</i>
   <i name="EMAX">    -10.00000000</i>
   <i name="EFERMI">      0.00000000</i>
  </separator>
  <separator name="writing" >
   <i type="int" name="NWRITE">     2</i>
   <i type="logical" name="LWAVE"> F  </i>
   <i type="logical" name="LDOWNSAMPLE"> F  </i>
   <i type="logical" name="LCHARG"> F  </i>
   <i type="logical" name="LPARD"> F  </i>
   <i type="logical" name="LVTOT"> F  </i>
   <i type="logical" name="LVHAR"> F  </i>
   <i type="logical" name="LELF"> F  </i>
   <i type="logical" name="LOPTICS"> F  </i>
   <v name="STM">      0.00000000      0.00000000      0.00000000      0.00000000      0.00000000      0.00000000      0.00000000</v>
  </separator>
  <separator name="performance" >
   <i type="int" name="NPAR">     2</i>
   <i type="int" name="NSIM">     4</i>
   <i type="int" name="NBLK">    -1</i>
   <i type="logical" name="LPLANE"> T  </i>
   <i type="logical" name="LSCALAPACK"> T  </i>
   <i type="logical" name="LSCAAWARE"> F  </i>
   <i type="logical" name="LSCALU"> F  </i>
   <i type="logical" name="LASYNC"> F  </i>
   <i type="logical" name="LORBITALREAL"> F  </i>
  </separator>
  <separator name="miscellaneous" >
   <i type="int" name="IDIOT">     3</i>
   <i type="int" name="ISPECIAL">     0</i>
   <i type="logical" name="LMUSIC"> F  </i>
   <v name="POMASS">     55.84700000</v>
   <v name="DARWINR">      0.00000000</v>
   <v name="DARWINV">      1.00000000</v>
   <i type="logical" name="LCORR"> T  </i>
  </separator>
  <i type="logical" name="GGA_COMPAT"> T  </i>
  <i type="logical" name="LBERRY"> F  </i>
  <i type="int" name="ICORELEVEL">     0</i>
  <i type="logical" name="LDAU"> F  </i>
  <i type="int" name="I_CONSTRAINED_M">     0</i>
  <separator name="electronic exchange-correlation" >
   <i type="string" name="GGA">--</i>
   <i type="int" name="VOSKOWN">     0</i>
   <i type="logical" name="LHFCALC"> F  </i>
   <i type="string" name="PRECFOCK"></i>
   <i type="logical" name="LSYMGRAD"> F  </i>
   <i type="logical" name="LHFONE"> F  </i>
   <i type="logical" name="LRHFCALC"> F  </i>
   <i type="logical" name="LTHOMAS"> F  </i>
   <i type="logical" name="LMODELHF"> F  </i>
   <i name="ENCUT4O">     -1.00000000</i>
   <i type="int" name="EXXOEP">     0</i>
   <i type="int" name="FOURORBIT">     0</i>
   <i name="AEXX">      0.00000000</i>
   <i name="HFALPHA">      0.00000000</i>
   <i name="MCALPHA">      0.00000000</i>
   <i name="ALDAX">      1.00000000</i>
   <i name="AGGAX">      1.00000000</i>
   <i name="ALDAC">      1.00000000</i>
   <i name="AGGAC">      1.00000000</i>
   <i type="int" name="NKREDX">     1</i>
   <i type="int" name="NKREDY">     1</i>
   <i type="int" name="NKREDZ">     1</i>
   <i type="logical" name="SHIFTRED"> F  </i>
   <i type="logical" name="ODDONLY"> F  </i>
   <i type="logical" name="EVENONLY"> F  </i>
   <i type="int" name="LMAXFOCK">     0</i>
   <i type="int" name="NMAXFOCKAE">     0</i>
   <i type="logical" name="LFOCKAEDFT"> F  </i>
   <i name="HFSCREEN">      0.00000000</i>
   <i name="HFSCREENC">      0.00000000</i>
   <i type="int" name="NBANDSGWLOW">     0</i>
  </separator>
  <separator name="vdW DFT" >
   <i type="logical" name="LUSE_VDW"> F  </i>
   <i name="Zab_VDW">     -0.84910000</i>
   <i name="PARAM1">      0.12340000</i>
   <i name="PARAM2">      1.00000000</i>
   <i name="PARAM3">      0.00000000</i>
  </separator>
  <separator name="model GW" >
   <i type="int" name="MODEL_GW">     0</i>
   <i name="MODEL_EPS0">      6.13252964</i>
   <i name="MODEL_ALPHA">      1.00000000</i>
  </separator>
  <separator name="linear response parameters" >
   <i type="logical" name="LEPSILON"> F  </i>
   <i type="logical" name="LRPA"> F  </i>
   <i type="logical" name="LNABLA"> F  </i>
   <i type="logical" name="LVEL"> F  </i>
   <i type="int" name="KINTER">     0</i>
   <i name="CSHIFT">      0.10000000</i>
   <i name="OMEGAMAX">     -1.00000000</i>
   <i name="DEG_THRESHOLD">      0.00200000</i>
   <i name="RTIME">     -0.10000000</i>
   <i name="WPLASMAI">      0.00000000</i>
   <v name="DFIELD">      0.00000000      0.00000000      0.00000000</v>
   <v name="WPLASMA">      0.00000000      0.00000000      0.00000000      0.00000000      0.00000000      0.00000000      0.00000000      0.00000000      0.00000000</v>
  </separator>
  <separator name="orbital magnetization" >
   <i type="logical" name="NUCIND"> F  </i>
   <v name="MAGPOS">      0.00000000      0.00000000      0.00000000</v>
   <i type="logical" name="LNICSALL"> T  </i>
   <i type="logical" name="ORBITALMAG"> F  </i>
   <i type="logical" name="LMAGBLOCH"> F  </i>
   <i type="logical" name="LCHIMAG"> F  </i>
   <i type="logical" name="LGAUGE"> T  </i>
   <i type="int" name="MAGATOM">     0</i>
   <v name="MAGDIPOL">      0.00000000      0.00000000      0.00000000</v>
   <v name="AVECCONST">      0.00000000      0.00000000      0.00000000</v>
  </separator>
  <separator name="response functions" >
   <i type="logical" name="LADDER"> F  </i>
   <i type="logical" name="LRPAFORCE"> F  </i>
   <i type="logical" name="LFXC"> F  </i>
   <i type="logical" name="LHARTREE"> T  </i>
   <i type="int" name="IBSE">     0</i>
   <v type="int" name="KPOINT">    -1     0     0     0</v>
   <i type="logical" name="LTCTE"> F  </i>
   <i type="logical" name="LTETE"> F  </i>
   <i type="logical" name="LTRIPLET"> F  </i>
   <i type="logical" name="LFXCEPS"> F  </i>
   <i type="logical" name="LFXHEG"> F  </i>
   <i type="int" name="NATURALO">     2</i>
   <i type="logical" name="L2ORDER"> F  </i>
   <i type="logical" name="LMP2LT"> F  </i>
   <i type="logical" name="LUSEW"> F  </i>
   <i name="ENCUTGW">     -2.00000000</i>
   <i name="ENCUTGWSOFT">     -2.00000000</i>
   <i name="ENCUTLF">     -1.00000000</i>
   <i type="int" name="LMAXMP2">    -1</i>
   <i name="SCISSOR">      0.00000000</i>
   <i type="int" name="NOMEGA">     0</i>
   <i type="int" name="NOMEGAR">     0</i>
   <i type="int" name="NBANDSGW">    -1</i>
   <i type="int" name="NBANDSO">    -1</i>
   <i type="int" name="NBANDSV">    -1</i>
   <i type="int" name="NELM">   400</i>
   <i type="int" name="NELMHF">     1</i>
   <i type="int" name="DIM">     3</i>
   <i type="int" name="ANTIRES">     0</i>
   <i name="OMEGAMAX">    -30.00000000</i>
   <i name="OMEGAMIN">    -30.00000000</i>
   <i name="OMEGATL">   -200.00000000</i>
   <i type="int" name="OMEGAGRID">   140</i>
   <i name="CSHIFT">     -0.10000000</i>
   <i type="logical" name="SELFENERGY"> F  </i>
   <i type="logical" name="LSPECTRAL"> F  </i>
   <i type="logical" name="LSPECTRALGW"> F  </i>
   <i type="logical" name="LSINGLES"> F  </i>
   <i type="logical" name="LFERMIGW"> F  </i>
   <i type="logical" name="ODDONLYGW"> F  </i>
   <i type="logical" name="EVENONLYGW"> F  </i>
   <i type="int" name="NKREDLFX">     1</i>
   <i type="int" name="NKREDLFY">     1</i>
   <i type="int" name="NKREDLFZ">     1</i>
   <i type="int" name="MAXMEM">  2800</i>
   <i type="int" name="TELESCOPE">     0</i>
   <i type="int" name="TAUPAR">     1</i>
   <i type="int" name="OMEGAPAR">    -1</i>
   <i name="LAMBDA">      1.00000000</i>
  </separator>
  <separator name="External order field" >
   <i name="OFIELD_KAPPA">      0.00000000</i>
   <v name="OFIELD_K">      0.00000000      0.00000000      0.00000000</v>
   <i name="OFIELD_Q6_NEAR">      0.00000000</i>
   <i name="OFIELD_Q6_FAR">      0.00000000</i>
   <i name="OFIELD_A">      0.00000000</i>
  </separator>
 </parameters>
 <atominfo>
  <atoms>     108 </atoms>
  <types>       1 </types>
  <array name="atoms" >
   <dimension dim="1">ion</dimension>
   <field type="string">element</field>
   <field type="int">atomtype</field>
   <set>
    <rc><c>Fe</c><c>   1</c></rc>
    <rc><c>Fe</c><c>   1</c></rc>
    <rc><c>Fe</c><c>   1</c></rc>
    <rc><c>Fe</c><c>   1</c></rc>
    <rc><c>Fe</c><c>   1</c></rc>
    <rc><c>Fe</c><c>   1</c></rc>
    <rc><c>Fe</c><c>   1</c></rc>
    <rc><c>Fe</c><c>   1</c></rc>
    <rc><c>Fe</c><c>   1</c></rc>
    <rc><c>Fe</c><c>   1</c></rc>
    <rc><c>Fe</c><c>   1</c></rc>
    <rc><c>Fe</c><c>   1</c></rc>
    <rc><c>Fe</c><c>   1</c></rc>
    <rc><c>Fe</c><c>   1</c></rc>
    <rc><c>Fe</c><c>   1</c></rc>
    <rc><c>Fe</c><c>   1</c></rc>
    <rc><c>Fe</c><c>   1</c></rc>
    <rc><c>Fe</c><c>   1</c></rc>
    <rc><c>Fe</c><c>   1</c></rc>
    <rc><c>Fe</c><c>   1</c></rc>
    <rc><c>Fe</c><c>   1</c></rc>
    <rc><c>Fe</c><c>   1</c></rc>
    <rc><c>Fe</c><c>   1</c></rc>
    <rc><c>Fe</c><c>   1</c></rc>
    <rc><c>Fe</c><c>   1</c></rc>
    <rc><c>Fe</c><c>   1</c></rc>
    <rc><c>Fe</c><c>   1</c></rc>
    <rc><c>Fe</c><c>   1</c></rc>
    <rc><c>Fe</c><c>   1</c></rc>
    <rc><c>Fe</c><c>   1</c></rc>
    <rc><c>Fe</c><c>   1</c></rc>
    <rc><c>Fe</c><c>   1</c></rc>
    <rc><c>Fe</c><c>   1</c></rc>
    <rc><c>Fe</c><c>   1</c></rc>
    <rc><c>Fe</c><c>   1</c></rc>
    <rc><c>Fe</c><c>   1</c></rc>
    <rc><c>Fe</c><c>   1</c></rc>
    <rc><c>Fe</c><c>   1</c></rc>
    <rc><c>Fe</c><c>   1</c></rc>
    <rc><c>Fe</c><c>   1</c></rc>
    <rc><c>Fe</c><c>   1</c></rc>
    <rc><c>Fe</c><c>   1</c></rc>
    <rc><c>Fe</c><c>   1</c></rc>
    <rc><c>Fe</c><c>   1</c></rc>
    <rc><c>Fe</c><c>   1</c></rc>
    <rc><c>Fe</c><c>   1</c></rc>
    <rc><c>Fe</c><c>   1</c></rc>
    <rc><c>Fe</c><c>   1</c></rc>
    <rc><c>Fe</c><c>   1</c></rc>
    <rc><c>Fe</c><c>   1</c></rc>
    <rc><c>Fe</c><c>   1</c></rc>
    <rc><c>Fe</c><c>   1</c></rc>
    <rc><c>Fe</c><c>   1</c></rc>
    <rc><c>Fe</c><c>   1</c></rc>
    <rc><c>Fe</c><c>   1</c></rc>
    <rc><c>Fe</c><c>   1</c></rc>
    <rc><c>Fe</c><c>   1</c></rc>
    <rc><c>Fe</c><c>   1</c></rc>
    <rc><c>Fe</c><c>   1</c></rc>
    <rc><c>Fe</c><c>   1</c></rc>
    <rc><c>Fe</c><c>   1</c></rc>
    <rc><c>Fe</c><c>   1</c></rc>
    <rc><c>Fe</c><c>   1</c></rc>
    <rc><c>Fe</c><c>   1</c></rc>
    <rc><c>Fe</c><c>   1</c></rc>
    <rc><c>Fe</c><c>   1</c></rc>
    <rc><c>Fe</c><c>   1</c></rc>
    <rc><c>Fe</c><c>   1</c></rc>
    <rc><c>Fe</c><c>   1</c></rc>
    <rc><c>Fe</c><c>   1</c></rc>
    <rc><c>Fe</c><c>   1</c></rc>
    <rc><c>Fe</c><c>   1</c></rc>
    <rc><c>Fe</c><c>   1</c></rc>
    <rc><c>Fe</c><c>   1</c></rc>
    <rc><c>Fe</c><c>   1</c></rc>
    <rc><c>Fe</c><c>   1</c></rc>
    <rc><c>Fe</c><c>   1</c></rc>
    <rc><c>Fe</c><c>   1</c></rc>
    <rc><c>Fe</c><c>   1</c></rc>
    <rc><c>Fe</c><c>   1</c></rc>
    <rc><c>Fe</c><c>   1</c></rc>
    <rc><c>Fe</c><c>   1</c></rc>
    <rc><c>Fe</c><c>   1</c></rc>
    <rc><c>Fe</c><c>   1</c></rc>
    <rc><c>Fe</c><c>   1</c></rc>
    <rc><c>Fe</c><c>   1</c></rc>
    <rc><c>Fe</c><c>   1</c></rc>
    <rc><c>Fe</c><c>   1</c></rc>
    <rc><c>Fe</c><c>   1</c></rc>
    <rc><c>Fe</c><c>   1</c></rc>
    <rc><c>Fe</c><c>   1</c></rc>
    <rc><c>Fe</c><c>   1</c></rc>
    <rc><c>Fe</c><c>   1</c></rc>
    <rc><c>Fe</c><c>   1</c></rc>
    <rc><c>Fe</c><c>   1</c></rc>
    <rc><c>Fe</c><c>   1</c></rc>
    <rc><c>Fe</c><c>   1</c></rc>
    <rc><c>Fe</c><c>   1</c></rc>
    <rc><c>Fe</c><c>   1</c></rc>
    <rc><c>Fe</c><c>   1</c></rc>
    <rc><c>Fe</c><c>   1</c></rc>
    <rc><c>Fe</c><c>   1</c></rc>
    <rc><c>Fe</c><c>   1</c></rc>
    <rc><c>Fe</c><c>   1</c></rc>
    <rc><c>Fe</c><c>   1</c></rc>
    <rc><c>Fe</c><c>   1</c></rc>
    <rc><c>Fe</c><c>   1</c></rc>
    <rc><c>Fe</c><c>   1</c></rc>
   </set>
  </array>
  <array name="atomtypes" >
   <dimension dim="1">type</dimension>
   <field type="int">atomspertype</field>
   <field type="string">element</field>
   <field>mass</field>
   <field>valence</field>
   <field type="string">pseudopotential</field>
   <set>
    <rc><c> 108</c><c>Fe</c><c>     55.84700000</c><c>      8.00000000</c><c> PAW_PBE Fe 06Sep2000                   </c></rc>
   </set>
  </array>
 </atominfo>
 <structure name="initialpos" >
  <crystal>
   <varray name="basis" >
    <v>      10.33484705       0.00000000       0.00000000 </v>
    <v>       0.00000000      10.33484705       0.00000000 </v>
    <v>       0.00000000       0.00000000      10.33484705 </v>
   </varray>
   <i name="volume">   1103.85533447 </i>
   <varray name="rec_basis" >
    <v>       0.09676002       0.00000000       0.00000000 </v>
    <v>       0.00000000       0.09676002       0.00000000 </v>
    <v>       0.00000000       0.00000000       0.09676002 </v>
   </varray>
  </crystal>
  <varray name="positions" >
   <v>       0.00000000       0.00000000       0.00000000 </v>
   <v>       0.00000000       0.16666893       0.16666893 </v>
   <v>       0.16666893       0.00000000       0.16666893 </v>
   <v>       0.16666893       0.16666893       0.00000000 </v>
   <v>       0.33333106       0.00000000       0.00000000 </v>
   <v>       0.33333107       0.16666893       0.16666893 </v>
   <v>       0.50000000       0.00000000       0.16666894 </v>
   <v>       0.50000000       0.16666894       0.00000000 </v>
   <v>       0.66666897       0.00000000       0.00000000 </v>
   <v>       0.66666896       0.16666893       0.16666893 </v>
   <v>       0.83333104       0.00000000       0.16666893 </v>
   <v>       0.83333104       0.16666893       0.00000000 </v>
   <v>       0.00000000       0.33333106       0.00000000 </v>
   <v>       0.00000000       0.50000000       0.16666894 </v>
   <v>       0.16666893       0.33333107       0.16666893 </v>
   <v>       0.16666894       0.50000000       0.00000000 </v>
   <v>       0.33333107       0.33333107       0.00000000 </v>
   <v>       0.33333107       0.50000000       0.16666893 </v>
   <v>       0.50000000       0.33333107       0.16666893 </v>
   <v>       0.50000000       0.50000000       0.00000000 </v>
   <v>       0.66666896       0.33333107       0.00000000 </v>
   <v>       0.66666896       0.50000000       0.16666893 </v>
   <v>       0.83333104       0.33333107       0.16666893 </v>
   <v>       0.83333103       0.50000000       0.00000000 </v>
   <v>       0.00000000       0.66666897       0.00000000 </v>
   <v>       0.00000000       0.83333104       0.16666893 </v>
   <v>       0.16666893       0.66666896       0.16666893 </v>
   <v>       0.16666893       0.83333104       0.00000000 </v>
   <v>       0.33333107       0.66666896       0.00000000 </v>
   <v>       0.33333107       0.83333104       0.16666893 </v>
   <v>       0.50000000       0.66666896       0.16666893 </v>
   <v>       0.50000000       0.83333103       0.00000000 </v>
   <v>       0.66666896       0.66666896       0.00000000 </v>
   <v>       0.66666896       0.83333104       0.16666893 </v>
   <v>       0.83333104       0.66666896       0.16666893 </v>
   <v>       0.83333104       0.83333104       0.00000000 </v>
   <v>       0.00000000       0.00000000       0.33333106 </v>
   <v>       0.00000000       0.16666894       0.50000000 </v>
   <v>       0.16666894       0.00000000       0.50000000 </v>
   <v>       0.16666893       0.16666893       0.33333107 </v>
   <v>       0.33333107       0.00000000       0.33333107 </v>
   <v>       0.33333107       0.16666893       0.50000000 </v>
   <v>       0.50000000       0.00000000       0.50000000 </v>
   <v>       0.50000000       0.16666893       0.33333107 </v>
   <v>       0.66666896       0.00000000       0.33333107 </v>
   <v>       0.66666896       0.16666893       0.50000000 </v>
   <v>       0.83333103       0.00000000       0.50000000 </v>
   <v>       0.83333104       0.16666893       0.33333107 </v>
   <v>       0.00000000       0.33333107       0.33333107 </v>
   <v>       0.00000000       0.50000000       0.50000000 </v>
   <v>       0.16666893       0.33333107       0.50000000 </v>
   <v>       0.16666893       0.50000000       0.33333107 </v>
   <v>       0.33333107       0.33333107       0.33333107 </v>
   <v>       0.33333106       0.50000000       0.50000000 </v>
   <v>       0.50000000       0.33333106       0.50000000 </v>
   <v>       0.50000000       0.50000000       0.33333106 </v>
   <v>       0.66666896       0.33333107       0.33333107 </v>
   <v>       0.66666897       0.50000000       0.50000000 </v>
   <v>       0.83333104       0.33333107       0.50000000 </v>
   <v>       0.83333104       0.50000000       0.33333107 </v>
   <v>       0.00000000       0.66666896       0.33333107 </v>
   <v>       0.00000000       0.83333103       0.50000000 </v>
   <v>       0.16666893       0.66666896       0.50000000 </v>
   <v>       0.16666893       0.83333104       0.33333107 </v>
   <v>       0.33333107       0.66666896       0.33333107 </v>
   <v>       0.33333107       0.83333104       0.50000000 </v>
   <v>       0.50000000       0.66666897       0.50000000 </v>
   <v>       0.50000000       0.83333104       0.33333107 </v>
   <v>       0.66666896       0.66666896       0.33333107 </v>
   <v>       0.66666896       0.83333104       0.50000000 </v>
   <v>       0.83333104       0.66666896       0.50000000 </v>
   <v>       0.83333104       0.83333104       0.33333107 </v>
   <v>       0.00000000       0.00000000       0.66666897 </v>
   <v>       0.00000000       0.16666893       0.83333104 </v>
   <v>       0.16666893       0.00000000       0.83333104 </v>
   <v>       0.16666893       0.16666893       0.66666896 </v>
   <v>       0.33333107       0.00000000       0.66666896 </v>
   <v>       0.33333107       0.16666893       0.83333104 </v>
   <v>       0.50000000       0.00000000       0.83333103 </v>
   <v>       0.50000000       0.16666893       0.66666896 </v>
   <v>       0.66666896       0.00000000       0.66666896 </v>
   <v>       0.66666896       0.16666893       0.83333104 </v>
   <v>       0.83333104       0.00000000       0.83333104 </v>
   <v>       0.83333104       0.16666893       0.66666896 </v>
   <v>       0.00000000       0.33333107       0.66666896 </v>
   <v>       0.00000000       0.50000000       0.83333103 </v>
   <v>       0.16666893       0.33333107       0.83333104 </v>
   <v>       0.16666893       0.50000000       0.66666896 </v>
   <v>       0.33333107       0.33333107       0.66666896 </v>
   <v>       0.33333107       0.50000000       0.83333104 </v>
   <v>       0.50000000       0.33333107       0.83333104 </v>
   <v>       0.50000000       0.50000000       0.66666897 </v>
   <v>       0.66666896       0.33333107       0.66666896 </v>
   <v>       0.66666896       0.50000000       0.83333104 </v>
   <v>       0.83333104       0.33333107       0.83333104 </v>
   <v>       0.83333104       0.50000000       0.66666896 </v>
   <v>       0.00000000       0.66666896       0.66666896 </v>
   <v>       0.00000000       0.83333104       0.83333104 </v>
   <v>       0.16666893       0.66666896       0.83333104 </v>
   <v>       0.16666893       0.83333104       0.66666896 </v>
   <v>       0.33333107       0.66666896       0.66666896 </v>
   <v>       0.33333107       0.83333104       0.83333104 </v>
   <v>       0.50000000       0.66666896       0.83333104 </v>
   <v>       0.50000000       0.83333104       0.66666896 </v>
   <v>       0.66666896       0.66666896       0.66666896 </v>
   <v>       0.66666896       0.83333104       0.83333104 </v>
   <v>       0.83333104       0.66666896       0.83333104 </v>
   <v>       0.83333104       0.83333104       0.66666896 </v>
  </varray>
 </structure>
 <calculation>
  <scstep>
   <time name="dav">   48.79   48.82</time>
   <time name="total">   49.15   49.18</time>
   <energy>
    <i name="alphaZ">   7300.31925852 </i>
    <i name="ewald"> -66232.83996889 </i>
    <i name="hartreedc"> -11197.02572337 </i>
    <i name="XCdc">    446.63038354 </i>
    <i name="pawpsdc">  51723.88885462 </i>
    <i name="pawaedc"> -52548.28121372 </i>
    <i name="eentropy">      0.03620553 </i>
    <i name="bandstr">  15462.94731526 </i>
    <i name="atom">  64202.43901263 </i>
    <i name="e_fr_energy">   9158.11412413 </i>
    <i name="e_wo_entrp">   9158.07791860 </i>
    <i name="e_0_energy">   9158.10205562 </i>
   </energy>
  </scstep>
  <scstep>
   <time name="dav">   48.79   48.81</time>
   <time name="total">   48.80   48.82</time>
   <energy>
    <i name="e_fr_energy">    264.32057150 </i>
    <i name="e_wo_entrp">    264.28187549 </i>
    <i name="e_0_energy">    264.30767283 </i>
   </energy>
  </scstep>
  <scstep>
   <time name="dav">   48.76   48.77</time>
   <time name="total">   48.77   48.77</time>
   <energy>
    <i name="e_fr_energy">   -819.79747853 </i>
    <i name="e_wo_entrp">   -819.79965305 </i>
    <i name="e_0_energy">   -819.79820337 </i>
   </energy>
  </scstep>
  <scstep>
   <time name="dav">   79.42   79.43</time>
   <time name="total">   79.42   79.44</time>
   <energy>
    <i name="e_fr_energy">  -1026.73684710 </i>
    <i name="e_wo_entrp">  -1026.67766244 </i>
    <i name="e_0_energy">  -1026.71711888 </i>
   </energy>
  </scstep>
  <scstep>
   <time name="dav">   72.89   72.89</time>
   <time name="total">   75.49   75.50</time>
   <energy>
    <i name="e_fr_energy">  -1045.17515880 </i>
    <i name="e_wo_entrp">  -1045.07111026 </i>
    <i name="e_0_energy">  -1045.14047595 </i>
   </energy>
  </scstep>
  <scstep>
   <time name="diag">    6.84    6.84</time>
   <time name="diis">   25.07   25.07</time>
   <time name="orth">    1.80    1.80</time>
   <time name="total">   36.67   36.66</time>
   <energy>
    <i name="e_fr_energy">   -877.16858817 </i>
    <i name="e_wo_entrp">   -877.10800550 </i>
    <i name="e_0_energy">   -877.14839395 </i>
   </energy>
  </scstep>
  <scstep>
   <time name="diag">    6.79    6.79</time>
   <time name="diis">   27.43   27.45</time>
   <time name="orth">    1.81    1.81</time>
   <time name="total">   38.94   38.96</time>
   <energy>
    <i name="e_fr_energy">   -880.28377987 </i>
    <i name="e_wo_entrp">   -880.13348441 </i>
    <i name="e_0_energy">   -880.23368138 </i>
   </energy>
  </scstep>
  <scstep>
   <time name="diag">    6.81    6.81</time>
   <time name="diis">   26.69   26.71</time>
   <time name="orth">    1.80    1.80</time>
   <time name="total">   38.27   38.29</time>
   <energy>
    <i name="e_fr_energy">   -879.36467250 </i>
    <i name="e_wo_entrp">   -879.29470855 </i>
    <i name="e_0_energy">   -879.34135118 </i>
   </energy>
  </scstep>
  <scstep>
   <time name="diag">    7.02    7.02</time>
   <time name="diis">   34.33   34.34</time>
   <time name="orth">    1.80    1.80</time>
   <time name="total">   46.07   46.09</time>
   <energy>
    <i name="e_fr_energy">   -879.74513532 </i>
    <i name="e_wo_entrp">   -879.67078615 </i>
    <i name="e_0_energy">   -879.72035226 </i>
   </energy>
  </scstep>
  <scstep>
   <time name="diag">    6.82    6.82</time>
   <time name="diis">   30.18   30.18</time>
   <time name="orth">    1.80    1.80</time>
   <time name="total">   41.65   41.66</time>
   <energy>
    <i name="e_fr_energy">   -879.55161868 </i>
    <i name="e_wo_entrp">   -879.46696816 </i>
    <i name="e_0_energy">   -879.52340184 </i>
   </energy>
  </scstep>
  <scstep>
   <time name="diag">    6.85    6.85</time>
   <time name="diis">   30.72   30.72</time>
   <time name="orth">    1.80    1.80</time>
   <time name="total">   42.21   42.21</time>
   <energy>
    <i name="e_fr_energy">   -879.55588957 </i>
    <i name="e_wo_entrp">   -879.47582512 </i>
    <i name="e_0_energy">   -879.52920142 </i>
   </energy>
  </scstep>
  <scstep>
   <time name="diag">    6.83    6.83</time>
   <time name="diis">   30.73   30.73</time>
   <time name="orth">    1.81    1.81</time>
   <time name="total">   42.36   42.36</time>
   <energy>
    <i name="e_fr_energy">   -879.55562615 </i>
    <i name="e_wo_entrp">   -879.47846410 </i>
    <i name="e_0_energy">   -879.52990547 </i>
   </energy>
  </scstep>
  <scstep>
   <time name="diag">    6.86    6.86</time>
   <time name="diis">   36.44   36.44</time>
   <time name="orth">    1.81    1.81</time>
   <time name="total">   48.05   48.05</time>
   <energy>
    <i name="e_fr_energy">   -879.55635740 </i>
    <i name="e_wo_entrp">   -879.48039696 </i>
    <i name="e_0_energy">   -879.53103726 </i>
   </energy>
  </scstep>
  <scstep>
   <time name="diag">    6.80    6.80</time>
   <time name="diis">   34.73   34.74</time>
   <time name="orth">    1.78    1.78</time>
   <time name="total">   46.20   46.22</time>
   <energy>
    <i name="e_fr_energy">   -879.55637658 </i>
    <i name="e_wo_entrp">   -879.48095642 </i>
    <i name="e_0_energy">   -879.53123652 </i>
   </energy>
  </scstep>
  <scstep>
   <time name="diag">    7.09    7.09</time>
   <time name="diis">   29.72   29.72</time>
   <time name="orth">    1.75    1.75</time>
   <time name="total">   41.45   41.45</time>
   <energy>
    <i name="e_fr_energy">   -879.55631436 </i>
    <i name="e_wo_entrp">   -879.48140594 </i>
    <i name="e_0_energy">   -879.53134489 </i>
   </energy>
  </scstep>
  <scstep>
   <time name="diag">    7.05    7.05</time>
   <time name="diis">   32.34   32.35</time>
   <time name="orth">    1.72    1.72</time>
   <time name="total">   43.94   43.94</time>
   <energy>
    <i name="e_fr_energy">   -879.55624800 </i>
    <i name="e_wo_entrp">   -879.48199836 </i>
    <i name="e_0_energy">   -879.53149812 </i>
   </energy>
  </scstep>
  <scstep>
   <time name="diag">    6.99    6.99</time>
   <time name="diis">   20.60   20.61</time>
   <time name="orth">    1.80    1.80</time>
   <time name="total">   32.29   32.30</time>
   <energy>
    <i name="e_fr_energy">   -879.55620894 </i>
    <i name="e_wo_entrp">   -879.48242428 </i>
    <i name="e_0_energy">   -879.53161405 </i>
   </energy>
  </scstep>
  <scstep>
   <time name="diag">    7.08    7.09</time>
   <time name="diis">   17.08   17.09</time>
   <time name="orth">    1.79    1.79</time>
   <time name="total">   28.86   28.88</time>
   <energy>
    <i name="e_fr_energy">   -879.55618625 </i>
    <i name="e_wo_entrp">   -879.48266318 </i>
    <i name="e_0_energy">   -879.53167856 </i>
   </energy>
  </scstep>
  <scstep>
   <time name="diag">    7.07    7.08</time>
   <time name="diis">   16.68   16.69</time>
   <time name="orth">    1.79    1.79</time>
   <time name="total">   28.47   28.48</time>
   <energy>
    <i name="e_fr_energy">   -879.55617123 </i>
    <i name="e_wo_entrp">   -879.48283185 </i>
    <i name="e_0_energy">   -879.53172477 </i>
   </energy>
  </scstep>
  <scstep>
   <time name="diag">    6.97    6.97</time>
   <time name="diis">   16.30   16.30</time>
   <time name="orth">    1.79    1.79</time>
   <time name="total">   28.02   28.02</time>
   <energy>
    <i name="e_fr_energy">   -879.55615582 </i>
    <i name="e_wo_entrp">   -879.48301489 </i>
    <i name="e_0_energy">   -879.53177551 </i>
   </energy>
  </scstep>
  <scstep>
   <time name="diag">    6.82    6.82</time>
   <time name="diis">   16.24   16.24</time>
   <time name="orth">    1.80    1.80</time>
   <time name="total">   27.82   27.83</time>
   <energy>
    <i name="e_fr_energy">   -879.55613697 </i>
    <i name="e_wo_entrp">   -879.48323121 </i>
    <i name="e_0_energy">   -879.53183505 </i>
   </energy>
  </scstep>
  <scstep>
   <time name="diag">    6.74    6.74</time>
   <time name="diis">   15.90   15.90</time>
   <time name="orth">    1.80    1.80</time>
   <time name="total">   27.31   27.31</time>
   <energy>
    <i name="e_fr_energy">   -879.55612664 </i>
    <i name="e_wo_entrp">   -879.48336114 </i>
    <i name="e_0_energy">   -879.53187147 </i>
   </energy>
  </scstep>
  <scstep>
   <time name="diag">    6.83    6.83</time>
   <time name="diis">   15.83   15.83</time>
   <time name="orth">    1.79    1.79</time>
   <time name="total">   27.23   27.23</time>
   <energy>
    <i name="e_fr_energy">   -879.55611890 </i>
    <i name="e_wo_entrp">   -879.48345975 </i>
    <i name="e_0_energy">   -879.53189918 </i>
   </energy>
  </scstep>
  <scstep>
   <time name="diag">    6.79    6.79</time>
   <time name="diis">   15.06   15.07</time>
   <time name="orth">    1.71    1.71</time>
   <time name="total">   26.42   26.42</time>
   <energy>
    <i name="e_fr_energy">   -879.55611218 </i>
    <i name="e_wo_entrp">   -879.48354784 </i>
    <i name="e_0_energy">   -879.53192407 </i>
   </energy>
  </scstep>
  <scstep>
   <time name="diag">    6.68    6.68</time>
   <time name="diis">   14.63   14.63</time>
   <time name="orth">    1.78    1.78</time>
   <time name="total">   25.99   25.99</time>
   <energy>
    <i name="e_fr_energy">   -879.55610616 </i>
    <i name="e_wo_entrp">   -879.48362767 </i>
    <i name="e_0_energy">   -879.53194666 </i>
   </energy>
  </scstep>
  <scstep>
   <time name="diag">    6.70    6.70</time>
   <time name="diis">   13.88   13.88</time>
   <time name="orth">    1.78    1.78</time>
   <time name="total">   25.15   25.15</time>
   <energy>
    <i name="e_fr_energy">   -879.55610063 </i>
    <i name="e_wo_entrp">   -879.48370126 </i>
    <i name="e_0_energy">   -879.53196750 </i>
   </energy>
  </scstep>
  <scstep>
   <time name="diag">    6.73    6.73</time>
   <time name="diis">   13.91   13.91</time>
   <time name="orth">    1.78    1.78</time>
   <time name="total">   25.22   25.23</time>
   <energy>
    <i name="e_fr_energy">   -879.55609554 </i>
    <i name="e_wo_entrp">   -879.48376940 </i>
    <i name="e_0_energy">   -879.53198683 </i>
   </energy>
  </scstep>
  <scstep>
   <time name="diag">    6.84    6.84</time>
   <time name="diis">   13.18   13.18</time>
   <time name="orth">    1.77    1.77</time>
   <time name="total">   24.51   24.51</time>
   <energy>
    <i name="e_fr_energy">   -879.55609082 </i>
    <i name="e_wo_entrp">   -879.48383225 </i>
    <i name="e_0_energy">   -879.53200463 </i>
   </energy>
  </scstep>
  <scstep>
   <time name="diag">    6.85    6.85</time>
   <time name="diis">   12.76   12.76</time>
   <time name="orth">    1.73    1.73</time>
   <time name="total">   24.12   24.12</time>
   <energy>
    <i name="e_fr_energy">   -879.55608646 </i>
    <i name="e_wo_entrp">   -879.48389040 </i>
    <i name="e_0_energy">   -879.53202111 </i>
   </energy>
  </scstep>
  <scstep>
   <time name="diag">    6.82    6.81</time>
   <time name="diis">   12.54   12.54</time>
   <time name="orth">    1.72    1.72</time>
   <time name="total">   23.94   23.94</time>
   <energy>
    <i name="e_fr_energy">   -879.55608241 </i>
    <i name="e_wo_entrp">   -879.48394435 </i>
    <i name="e_0_energy">   -879.53203639 </i>
   </energy>
  </scstep>
  <scstep>
   <time name="diag">    6.73    6.73</time>
   <time name="diis">   12.34   12.35</time>
   <time name="orth">    1.78    1.78</time>
   <time name="total">   23.74   23.74</time>
   <energy>
    <i name="e_fr_energy">   -879.55607868 </i>
    <i name="e_wo_entrp">   -879.48399414 </i>
    <i name="e_0_energy">   -879.53205050 </i>
   </energy>
  </scstep>
  <scstep>
   <time name="diag">    6.72    6.71</time>
   <time name="diis">   12.19   12.19</time>
   <time name="orth">    1.78    1.78</time>
   <time name="total">   23.55   23.55</time>
   <energy>
    <i name="e_fr_energy">   -879.55607523 </i>
    <i name="e_wo_entrp">   -879.48404017 </i>
    <i name="e_0_energy">   -879.53206354 </i>
   </energy>
  </scstep>
  <scstep>
   <time name="diag">    6.72    6.72</time>
   <time name="diis">   12.10   12.11</time>
   <time name="orth">    1.78    1.78</time>
   <time name="total">   23.36   23.37</time>
   <energy>
    <i name="e_fr_energy">   -879.55607206 </i>
    <i name="e_wo_entrp">   -879.48408243 </i>
    <i name="e_0_energy">   -879.53207551 </i>
   </energy>
  </scstep>
  <scstep>
   <time name="diag">    6.72    6.72</time>
   <time name="diis">   11.89   11.89</time>
   <time name="orth">    1.78    1.78</time>
   <time name="total">   23.09   23.09</time>
   <energy>
    <i name="e_fr_energy">   -879.55606912 </i>
    <i name="e_wo_entrp">   -879.48412166 </i>
    <i name="e_0_energy">   -879.53208664 </i>
   </energy>
  </scstep>
  <scstep>
   <time name="diag">    6.84    6.84</time>
   <time name="diis">   11.66   11.66</time>
   <time name="orth">    1.74    1.74</time>
   <time name="total">   23.00   23.00</time>
   <energy>
    <i name="e_fr_energy">   -879.55606643 </i>
    <i name="e_wo_entrp">   -879.48415762 </i>
    <i name="e_0_energy">   -879.53209683 </i>
   </energy>
  </scstep>
  <scstep>
   <time name="diag">    6.86    6.86</time>
   <time name="diis">   11.48   11.48</time>
   <time name="orth">    1.72    1.72</time>
   <time name="total">   22.89   22.89</time>
   <energy>
    <i name="e_fr_energy">   -879.55606395 </i>
    <i name="e_wo_entrp">   -879.48419069 </i>
    <i name="e_0_energy">   -879.53210619 </i>
   </energy>
  </scstep>
  <scstep>
   <time name="diag">    6.87    6.87</time>
   <time name="diis">   11.12   11.12</time>
   <time name="orth">    1.77    1.77</time>
   <time name="total">   22.64   22.65</time>
   <energy>
    <i name="e_fr_energy">   -879.55606168 </i>
    <i name="e_wo_entrp">   -879.48422125 </i>
    <i name="e_0_energy">   -879.53211487 </i>
   </energy>
  </scstep>
  <scstep>
   <time name="diag">    6.90    6.90</time>
   <time name="diis">   11.93   11.93</time>
   <time name="orth">    1.79    1.79</time>
   <time name="total">   23.49   23.50</time>
   <energy>
    <i name="e_fr_energy">   -879.55605958 </i>
    <i name="e_wo_entrp">   -879.48424874 </i>
    <i name="e_0_energy">   -879.53212263 </i>
   </energy>
  </scstep>
  <scstep>
   <time name="diag">    6.93    6.93</time>
   <time name="diis">   11.48   11.48</time>
   <time name="orth">    1.79    1.79</time>
   <time name="total">   23.11   23.11</time>
   <energy>
    <i name="e_fr_energy">   -879.55605767 </i>
    <i name="e_wo_entrp">   -879.48427420 </i>
    <i name="e_0_energy">   -879.53212985 </i>
   </energy>
  </scstep>
  <scstep>
   <time name="diag">    6.86    6.86</time>
   <time name="diis">   10.77   10.77</time>
   <time name="orth">    1.78    1.78</time>
   <time name="total">   22.33   22.33</time>
   <energy>
    <i name="e_fr_energy">   -879.55605592 </i>
    <i name="e_wo_entrp">   -879.48429785 </i>
    <i name="e_0_energy">   -879.53213656 </i>
   </energy>
  </scstep>
  <scstep>
   <time name="diag">    6.91    6.91</time>
   <time name="diis">   10.90   10.90</time>
   <time name="orth">    1.78    1.78</time>
   <time name="total">   22.55   22.55</time>
   <energy>
    <i name="e_fr_energy">   -879.55605434 </i>
    <i name="e_wo_entrp">   -879.48431970 </i>
    <i name="e_0_energy">   -879.53214279 </i>
   </energy>
  </scstep>
  <scstep>
   <time name="diag">    6.78    6.78</time>
   <time name="diis">   10.88   10.88</time>
   <time name="orth">    1.78    1.78</time>
   <time name="total">   22.38   22.39</time>
   <energy>
    <i name="e_fr_energy">   -879.55605289 </i>
    <i name="e_wo_entrp">   -879.48433954 </i>
    <i name="e_0_energy">   -879.53214844 </i>
   </energy>
  </scstep>
  <scstep>
   <time name="diag">    6.67    6.67</time>
   <time name="diis">   11.13   11.13</time>
   <time name="orth">    1.79    1.79</time>
   <time name="total">   22.55   22.55</time>
   <energy>
    <i name="e_fr_energy">   -879.55605157 </i>
    <i name="e_wo_entrp">   -879.48435762 </i>
    <i name="e_0_energy">   -879.53215358 </i>
   </energy>
  </scstep>
  <scstep>
   <time name="diag">    6.53    6.53</time>
   <time name="diis">   11.14   11.14</time>
   <time name="orth">    1.78    1.78</time>
   <time name="total">   22.40   22.40</time>
   <energy>
    <i name="e_fr_energy">   -879.55605036 </i>
    <i name="e_wo_entrp">   -879.48437418 </i>
    <i name="e_0_energy">   -879.53215830 </i>
   </energy>
  </scstep>
  <scstep>
   <time name="diag">    6.50    6.50</time>
   <time name="diis">   11.00   11.01</time>
   <time name="orth">    1.73    1.73</time>
   <time name="total">   22.04   22.06</time>
   <energy>
    <i name="e_fr_energy">   -879.55604926 </i>
    <i name="e_wo_entrp">   -879.48438953 </i>
    <i name="e_0_energy">   -879.53216268 </i>
   </energy>
  </scstep>
  <scstep>
   <time name="diag">    6.56    6.57</time>
   <time name="diis">   11.78   11.78</time>
   <time name="orth">    1.73    1.73</time>
   <time name="total">   22.85   22.86</time>
   <energy>
    <i name="e_fr_energy">   -879.55604825 </i>
    <i name="e_wo_entrp">   -879.48440360 </i>
    <i name="e_0_energy">   -879.53216670 </i>
   </energy>
  </scstep>
  <scstep>
   <time name="diag">    6.57    6.57</time>
   <time name="diis">   10.41   10.41</time>
   <time name="orth">    1.76    1.76</time>
   <time name="total">   19.08   19.09</time>
   <energy>
    <i name="alphaZ">   7300.31925852 </i>
    <i name="ewald"> -66232.83996889 </i>
    <i name="hartreedc">  -9349.06998150 </i>
    <i name="XCdc">    360.33566613 </i>
    <i name="pawpsdc">  58037.40081657 </i>
    <i name="pawaedc"> -58972.88416855 </i>
    <i name="eentropy">     -0.07163104 </i>
    <i name="bandstr">   3774.81494880 </i>
    <i name="atom">  64202.43901263 </i>
    <i name="e_fr_energy">   -879.55604733 </i>
    <i name="e_wo_entrp">   -879.48441629 </i>
    <i name="e_0_energy">   -879.53217032 </i>
   </energy>
  </scstep>
  <structure>
   <crystal>
    <varray name="basis" >
     <v>      10.33484705       0.00000000       0.00000000 </v>
     <v>       0.00000000      10.33484705       0.00000000 </v>
     <v>       0.00000000       0.00000000      10.33484705 </v>
    </varray>
    <i name="volume">   1103.85533447 </i>
    <varray name="rec_basis" >
     <v>       0.09676002       0.00000000       0.00000000 </v>
     <v>       0.00000000       0.09676002       0.00000000 </v>
     <v>       0.00000000       0.00000000       0.09676002 </v>
    </varray>
   </crystal>
   <varray name="positions" >
    <v>       0.00000000       0.00000000       0.00000000 </v>
    <v>       0.00000000       0.16666893       0.16666893 </v>
    <v>       0.16666893       0.00000000       0.16666893 </v>
    <v>       0.16666893       0.16666893       0.00000000 </v>
    <v>       0.33333106       0.00000000       0.00000000 </v>
    <v>       0.33333107       0.16666893       0.16666893 </v>
    <v>       0.50000000       0.00000000       0.16666894 </v>
    <v>       0.50000000       0.16666894       0.00000000 </v>
    <v>       0.66666897       0.00000000       0.00000000 </v>
    <v>       0.66666896       0.16666893       0.16666893 </v>
    <v>       0.83333104       0.00000000       0.16666893 </v>
    <v>       0.83333104       0.16666893       0.00000000 </v>
    <v>       0.00000000       0.33333106       0.00000000 </v>
    <v>       0.00000000       0.50000000       0.16666894 </v>
    <v>       0.16666893       0.33333107       0.16666893 </v>
    <v>       0.16666894       0.50000000       0.00000000 </v>
    <v>       0.33333107       0.33333107       0.00000000 </v>
    <v>       0.33333107       0.50000000       0.16666893 </v>
    <v>       0.50000000       0.33333107       0.16666893 </v>
    <v>       0.50000000       0.50000000       0.00000000 </v>
    <v>       0.66666896       0.33333107       0.00000000 </v>
    <v>       0.66666896       0.50000000       0.16666893 </v>
    <v>       0.83333104       0.33333107       0.16666893 </v>
    <v>       0.83333103       0.50000000       0.00000000 </v>
    <v>       0.00000000       0.66666897       0.00000000 </v>
    <v>       0.00000000       0.83333104       0.16666893 </v>
    <v>       0.16666893       0.66666896       0.16666893 </v>
    <v>       0.16666893       0.83333104       0.00000000 </v>
    <v>       0.33333107       0.66666896       0.00000000 </v>
    <v>       0.33333107       0.83333104       0.16666893 </v>
    <v>       0.50000000       0.66666896       0.16666893 </v>
    <v>       0.50000000       0.83333103       0.00000000 </v>
    <v>       0.66666896       0.66666896       0.00000000 </v>
    <v>       0.66666896       0.83333104       0.16666893 </v>
    <v>       0.83333104       0.66666896       0.16666893 </v>
    <v>       0.83333104       0.83333104       0.00000000 </v>
    <v>       0.00000000       0.00000000       0.33333106 </v>
    <v>       0.00000000       0.16666894       0.50000000 </v>
    <v>       0.16666894       0.00000000       0.50000000 </v>
    <v>       0.16666893       0.16666893       0.33333107 </v>
    <v>       0.33333107       0.00000000       0.33333107 </v>
    <v>       0.33333107       0.16666893       0.50000000 </v>
    <v>       0.50000000       0.00000000       0.50000000 </v>
    <v>       0.50000000       0.16666893       0.33333107 </v>
    <v>       0.66666896       0.00000000       0.33333107 </v>
    <v>       0.66666896       0.16666893       0.50000000 </v>
    <v>       0.83333103       0.00000000       0.50000000 </v>
    <v>       0.83333104       0.16666893       0.33333107 </v>
    <v>       0.00000000       0.33333107       0.33333107 </v>
    <v>       0.00000000       0.50000000       0.50000000 </v>
    <v>       0.16666893       0.33333107       0.50000000 </v>
    <v>       0.16666893       0.50000000       0.33333107 </v>
    <v>       0.33333107       0.33333107       0.33333107 </v>
    <v>       0.33333106       0.50000000       0.50000000 </v>
    <v>       0.50000000       0.33333106       0.50000000 </v>
    <v>       0.50000000       0.50000000       0.33333106 </v>
    <v>       0.66666896       0.33333107       0.33333107 </v>
    <v>       0.66666897       0.50000000       0.50000000 </v>
    <v>       0.83333104       0.33333107       0.50000000 </v>
    <v>       0.83333104       0.50000000       0.33333107 </v>
    <v>       0.00000000       0.66666896       0.33333107 </v>
    <v>       0.00000000       0.83333103       0.50000000 </v>
    <v>       0.16666893       0.66666896       0.50000000 </v>
    <v>       0.16666893       0.83333104       0.33333107 </v>
    <v>       0.33333107       0.66666896       0.33333107 </v>
    <v>       0.33333107       0.83333104       0.50000000 </v>
    <v>       0.50000000       0.66666897       0.50000000 </v>
    <v>       0.50000000       0.83333104       0.33333107 </v>
    <v>       0.66666896       0.66666896       0.33333107 </v>
    <v>       0.66666896       0.83333104       0.50000000 </v>
    <v>       0.83333104       0.66666896       0.50000000 </v>
    <v>       0.83333104       0.83333104       0.33333107 </v>
    <v>       0.00000000       0.00000000       0.66666897 </v>
    <v>       0.00000000       0.16666893       0.83333104 </v>
    <v>       0.16666893       0.00000000       0.83333104 </v>
    <v>       0.16666893       0.16666893       0.66666896 </v>
    <v>       0.33333107       0.00000000       0.66666896 </v>
    <v>       0.33333107       0.16666893       0.83333104 </v>
    <v>       0.50000000       0.00000000       0.83333103 </v>
    <v>       0.50000000       0.16666893       0.66666896 </v>
    <v>       0.66666896       0.00000000       0.66666896 </v>
    <v>       0.66666896       0.16666893       0.83333104 </v>
    <v>       0.83333104       0.00000000       0.83333104 </v>
    <v>       0.83333104       0.16666893       0.66666896 </v>
    <v>       0.00000000       0.33333107       0.66666896 </v>
    <v>       0.00000000       0.50000000       0.83333103 </v>
    <v>       0.16666893       0.33333107       0.83333104 </v>
    <v>       0.16666893       0.50000000       0.66666896 </v>
    <v>       0.33333107       0.33333107       0.66666896 </v>
    <v>       0.33333107       0.50000000       0.83333104 </v>
    <v>       0.50000000       0.33333107       0.83333104 </v>
    <v>       0.50000000       0.50000000       0.66666897 </v>
    <v>       0.66666896       0.33333107       0.66666896 </v>
    <v>       0.66666896       0.50000000       0.83333104 </v>
    <v>       0.83333104       0.33333107       0.83333104 </v>
    <v>       0.83333104       0.50000000       0.66666896 </v>
    <v>       0.00000000       0.66666896       0.66666896 </v>
    <v>       0.00000000       0.83333104       0.83333104 </v>
    <v>       0.16666893       0.66666896       0.83333104 </v>
    <v>       0.16666893       0.83333104       0.66666896 </v>
    <v>       0.33333107       0.66666896       0.66666896 </v>
    <v>       0.33333107       0.83333104       0.83333104 </v>
    <v>       0.50000000       0.66666896       0.83333104 </v>
    <v>       0.50000000       0.83333104       0.66666896 </v>
    <v>       0.66666896       0.66666896       0.66666896 </v>
    <v>       0.66666896       0.83333104       0.83333104 </v>
    <v>       0.83333104       0.66666896       0.83333104 </v>
    <v>       0.83333104       0.83333104       0.66666896 </v>
   </varray>
  </structure>
  <varray name="forces" >
   <v>      -0.00000000       0.00000000      -0.00000000 </v>
   <v>      -0.00000000       0.00000000      -0.00000000 </v>
   <v>       0.00000000      -0.00000000      -0.00000000 </v>
   <v>      -0.00000000      -0.00000000       0.00000000 </v>
   <v>       0.00000000      -0.00000000      -0.00000000 </v>
   <v>      -0.00000000       0.00000000      -0.00000000 </v>
   <v>      -0.00000000       0.00000000       0.00000000 </v>
   <v>      -0.00000000      -0.00000000      -0.00000000 </v>
   <v>       0.00000000      -0.00000000       0.00000000 </v>
   <v>      -0.00000000       0.00000000       0.00000000 </v>
   <v>       0.00000000      -0.00000000       0.00000000 </v>
   <v>       0.00000000      -0.00000000       0.00000000 </v>
   <v>       0.00000000      -0.00000000      -0.00000000 </v>
   <v>      -0.00000000       0.00000000       0.00000000 </v>
   <v>      -0.00000000      -0.00000000      -0.00000000 </v>
   <v>      -0.00000000      -0.00000000       0.00000000 </v>
   <v>       0.00000000      -0.00000000      -0.00000000 </v>
   <v>       0.00000000       0.00000000       0.00000000 </v>
   <v>      -0.00000000      -0.00000000       0.00000000 </v>
   <v>       0.00000000      -0.00000000      -0.00000000 </v>
   <v>       0.00000000       0.00000000      -0.00000000 </v>
   <v>       0.00000000       0.00000000       0.00000000 </v>
   <v>       0.00000000      -0.00000000       0.00000000 </v>
   <v>      -0.00000000       0.00000000      -0.00000000 </v>
   <v>       0.00000000      -0.00000000      -0.00000000 </v>
   <v>       0.00000000       0.00000000      -0.00000000 </v>
   <v>      -0.00000000      -0.00000000      -0.00000000 </v>
   <v>       0.00000000       0.00000000       0.00000000 </v>
   <v>      -0.00000000       0.00000000       0.00000000 </v>
   <v>       0.00000000       0.00000000      -0.00000000 </v>
   <v>      -0.00000000       0.00000000       0.00000000 </v>
   <v>       0.00000000      -0.00000000      -0.00000000 </v>
   <v>       0.00000000       0.00000000       0.00000000 </v>
   <v>       0.00000000       0.00000000      -0.00000000 </v>
   <v>       0.00000000       0.00000000      -0.00000000 </v>
   <v>       0.00000000      -0.00000000      -0.00000000 </v>
   <v>       0.00000000      -0.00000000       0.00000000 </v>
   <v>       0.00000000       0.00000000      -0.00000000 </v>
   <v>       0.00000000       0.00000000      -0.00000000 </v>
   <v>       0.00000000       0.00000000      -0.00000000 </v>
   <v>      -0.00000000       0.00000000      -0.00000000 </v>
   <v>       0.00000000      -0.00000000      -0.00000000 </v>
   <v>       0.00000000       0.00000000       0.00000000 </v>
   <v>      -0.00000000       0.00000000       0.00000000 </v>
   <v>      -0.00000000      -0.00000000      -0.00000000 </v>
   <v>       0.00000000       0.00000000       0.00000000 </v>
   <v>       0.00000000      -0.00000000       0.00000000 </v>
   <v>      -0.00000000       0.00000000      -0.00000000 </v>
   <v>      -0.00000000      -0.00000000       0.00000000 </v>
   <v>       0.00000000      -0.00000000       0.00000000 </v>
   <v>       0.00000000       0.00000000      -0.00000000 </v>
   <v>       0.00000000      -0.00000000       0.00000000 </v>
   <v>       0.00000000      -0.00000000      -0.00000000 </v>
   <v>      -0.00000000      -0.00000000       0.00000000 </v>
   <v>      -0.00000000      -0.00000000       0.00000000 </v>
   <v>       0.00000000       0.00000000       0.00000000 </v>
   <v>       0.00000000      -0.00000000      -0.00000000 </v>
   <v>       0.00000000       0.00000000       0.00000000 </v>
   <v>      -0.00000000       0.00000000      -0.00000000 </v>
   <v>       0.00000000       0.00000000       0.00000000 </v>
   <v>       0.00000000       0.00000000      -0.00000000 </v>
   <v>      -0.00000000       0.00000000      -0.00000000 </v>
   <v>       0.00000000      -0.00000000      -0.00000000 </v>
   <v>       0.00000000       0.00000000       0.00000000 </v>
   <v>       0.00000000       0.00000000      -0.00000000 </v>
   <v>       0.00000000      -0.00000000      -0.00000000 </v>
   <v>      -0.00000000       0.00000000      -0.00000000 </v>
   <v>      -0.00000000      -0.00000000       0.00000000 </v>
   <v>       0.00000000      -0.00000000      -0.00000000 </v>
   <v>       0.00000000      -0.00000000      -0.00000000 </v>
   <v>       0.00000000      -0.00000000       0.00000000 </v>
   <v>       0.00000000      -0.00000000       0.00000000 </v>
   <v>      -0.00000000       0.00000000       0.00000000 </v>
   <v>       0.00000000       0.00000000       0.00000000 </v>
   <v>       0.00000000       0.00000000       0.00000000 </v>
   <v>      -0.00000000       0.00000000       0.00000000 </v>
   <v>      -0.00000000      -0.00000000      -0.00000000 </v>
   <v>      -0.00000000      -0.00000000       0.00000000 </v>
   <v>       0.00000000       0.00000000      -0.00000000 </v>
   <v>      -0.00000000      -0.00000000       0.00000000 </v>
   <v>      -0.00000000      -0.00000000       0.00000000 </v>
   <v>       0.00000000       0.00000000       0.00000000 </v>
   <v>      -0.00000000      -0.00000000      -0.00000000 </v>
   <v>       0.00000000      -0.00000000       0.00000000 </v>
   <v>      -0.00000000       0.00000000      -0.00000000 </v>
   <v>      -0.00000000      -0.00000000      -0.00000000 </v>
   <v>       0.00000000       0.00000000       0.00000000 </v>
   <v>       0.00000000      -0.00000000       0.00000000 </v>
   <v>       0.00000000      -0.00000000       0.00000000 </v>
   <v>       0.00000000       0.00000000      -0.00000000 </v>
   <v>       0.00000000      -0.00000000      -0.00000000 </v>
   <v>      -0.00000000       0.00000000      -0.00000000 </v>
   <v>       0.00000000      -0.00000000      -0.00000000 </v>
   <v>       0.00000000      -0.00000000      -0.00000000 </v>
   <v>       0.00000000      -0.00000000       0.00000000 </v>
   <v>      -0.00000000      -0.00000000      -0.00000000 </v>
   <v>      -0.00000000       0.00000000      -0.00000000 </v>
   <v>      -0.00000000       0.00000000       0.00000000 </v>
   <v>       0.00000000      -0.00000000       0.00000000 </v>
   <v>       0.00000000      -0.00000000       0.00000000 </v>
   <v>      -0.00000000       0.00000000      -0.00000000 </v>
   <v>       0.00000000      -0.00000000       0.00000000 </v>
   <v>       0.00000000       0.00000000      -0.00000000 </v>
   <v>      -0.00000000      -0.00000000      -0.00000000 </v>
   <v>       0.00000000       0.00000000       0.00000000 </v>
   <v>       0.00000000       0.00000000       0.00000000 </v>
   <v>       0.00000000      -0.00000000      -0.00000000 </v>
   <v>       0.00000000      -0.00000000      -0.00000000 </v>
  </varray>
  <varray name="stress" >
   <v>       7.99514848       0.00000000      -0.00000000 </v>
   <v>      -0.00000000       7.99514848      -0.00000000 </v>
   <v>       0.00000000       0.00000000       7.99514848 </v>
  </varray>
  <energy>
   <i name="e_fr_energy">   -879.55604733 </i>
   <i name="e_wo_entrp">   -879.53217032 </i>
   <i name="e_0_energy">     -0.07163104 </i>
  </energy>
  <time name="totalsc"> 1587.52 1587.82</time>
 </calculation>
 <calculation>
  <scstep>
   <time name="dav">   57.09   57.09</time>
   <time name="total">   59.86   59.86</time>
   <energy>
    <i name="alphaZ">   7246.69455140 </i>
    <i name="ewald"> -66070.26951155 </i>
    <i name="hartreedc">  -9326.12237496 </i>
    <i name="XCdc">    353.04780209 </i>
    <i name="pawpsdc">  58037.40089724 </i>
    <i name="pawaedc"> -58972.88422366 </i>
    <i name="eentropy">     -0.08647937 </i>
    <i name="bandstr">   3649.80701308 </i>
    <i name="atom">  64202.43901263 </i>
    <i name="e_fr_energy">   -879.97331311 </i>
    <i name="e_wo_entrp">   -879.88683374 </i>
    <i name="e_0_energy">   -879.94448665 </i>
   </energy>
  </scstep>
  <scstep>
   <time name="diag">    6.71    6.71</time>
   <time name="diis">   25.60   25.60</time>
   <time name="orth">    1.71    1.71</time>
   <time name="total">   36.81   36.81</time>
   <energy>
    <i name="e_fr_energy">   -879.54464473 </i>
    <i name="e_wo_entrp">   -879.48113893 </i>
    <i name="e_0_energy">   -879.52347613 </i>
   </energy>
  </scstep>
  <scstep>
   <time name="diag">    6.86    6.86</time>
   <time name="diis">   27.98   27.98</time>
   <time name="orth">    1.76    1.76</time>
   <time name="total">   39.28   39.28</time>
   <energy>
    <i name="e_fr_energy">   -879.54222450 </i>
    <i name="e_wo_entrp">   -879.47695969 </i>
    <i name="e_0_energy">   -879.52046957 </i>
   </energy>
  </scstep>
  <scstep>
   <time name="diag">    6.97    6.97</time>
   <time name="diis">   25.28   25.30</time>
   <time name="orth">    1.73    1.74</time>
   <time name="total">   36.76   36.79</time>
   <energy>
    <i name="e_fr_energy">   -879.53606115 </i>
    <i name="e_wo_entrp">   -879.46693114 </i>
    <i name="e_0_energy">   -879.51301781 </i>
   </energy>
  </scstep>
  <scstep>
   <time name="diag">    7.03    7.03</time>
   <time name="diis">   26.06   26.08</time>
   <time name="orth">    1.77    1.77</time>
   <time name="total">   37.70   37.72</time>
   <energy>
    <i name="e_fr_energy">   -879.53941480 </i>
    <i name="e_wo_entrp">   -879.47087791 </i>
    <i name="e_0_energy">   -879.51656917 </i>
   </energy>
  </scstep>
  <scstep>
   <time name="diag">    6.83    6.83</time>
   <time name="diis">   25.43   25.44</time>
   <time name="orth">    1.79    1.79</time>
   <time name="total">   36.81   36.82</time>
   <energy>
    <i name="e_fr_energy">   -879.53257109 </i>
    <i name="e_wo_entrp">   -879.46658789 </i>
    <i name="e_0_energy">   -879.51057669 </i>
   </energy>
  </scstep>
  <scstep>
   <time name="diag">    6.85    6.85</time>
   <time name="diis">   31.77   31.77</time>
   <time name="orth">    1.80    1.80</time>
   <time name="total">   43.27   43.28</time>
   <energy>
    <i name="e_fr_energy">   -879.53270671 </i>
    <i name="e_wo_entrp">   -879.46653787 </i>
    <i name="e_0_energy">   -879.51065043 </i>
   </energy>
  </scstep>
  <scstep>
   <time name="diag">    7.06    7.07</time>
   <time name="diis">   24.99   25.00</time>
   <time name="orth">    1.79    1.79</time>
   <time name="total">   36.72   36.74</time>
   <energy>
    <i name="e_fr_energy">   -879.53261567 </i>
    <i name="e_wo_entrp">   -879.46622666 </i>
    <i name="e_0_energy">   -879.51048600 </i>
   </energy>
  </scstep>
  <scstep>
   <time name="diag">    7.05    7.05</time>
   <time name="diis">   24.80   24.80</time>
   <time name="orth">    1.80    1.80</time>
   <time name="total">   36.49   36.49</time>
   <energy>
    <i name="e_fr_energy">   -879.53261631 </i>
    <i name="e_wo_entrp">   -879.46600680 </i>
    <i name="e_0_energy">   -879.51041314 </i>
   </energy>
  </scstep>
  <scstep>
   <time name="diag">    6.39    6.39</time>
   <time name="diis">   28.76   28.76</time>
   <time name="orth">    1.73    1.73</time>
   <time name="total">   39.59   39.59</time>
   <energy>
    <i name="e_fr_energy">   -879.53262387 </i>
    <i name="e_wo_entrp">   -879.46599485 </i>
    <i name="e_0_energy">   -879.51041420 </i>
   </energy>
  </scstep>
  <scstep>
   <time name="diag">    6.52    6.52</time>
   <time name="diis">   13.93   13.93</time>
   <time name="orth">    1.75    1.75</time>
   <time name="total">   24.99   24.99</time>
   <energy>
    <i name="e_fr_energy">   -879.53262076 </i>
    <i name="e_wo_entrp">   -879.46600516 </i>
    <i name="e_0_energy">   -879.51041556 </i>
   </energy>
  </scstep>
  <scstep>
   <time name="diag">    6.68    6.69</time>
   <time name="diis">   14.73   14.73</time>
   <time name="orth">    1.76    1.76</time>
   <time name="total">   23.53   23.53</time>
   <energy>
    <i name="alphaZ">   7246.69455140 </i>
    <i name="ewald"> -66070.26951155 </i>
    <i name="hartreedc">  -9406.70581312 </i>
    <i name="XCdc">    357.79995097 </i>
    <i name="pawpsdc">  57842.26293696 </i>
    <i name="pawaedc"> -58774.07498977 </i>
    <i name="eentropy">     -0.06659611 </i>
    <i name="bandstr">   3722.38783851 </i>
    <i name="atom">  64202.43901263 </i>
    <i name="e_fr_energy">   -879.53262008 </i>
    <i name="e_wo_entrp">   -879.46602397 </i>
    <i name="e_0_energy">   -879.51042138 </i>
   </energy>
  </scstep>
  <structure>
   <crystal>
    <varray name="basis" >
     <v>      10.36027665       0.00000000      -0.00000000 </v>
     <v>      -0.00000000      10.36027665      -0.00000000 </v>
     <v>       0.00000000       0.00000000      10.36027665 </v>
    </varray>
    <i name="volume">   1112.02373713 </i>
    <varray name="rec_basis" >
     <v>       0.09652252       0.00000000      -0.00000000 </v>
     <v>      -0.00000000       0.09652252      -0.00000000 </v>
     <v>       0.00000000       0.00000000       0.09652252 </v>
    </varray>
   </crystal>
   <varray name="positions" >
    <v>      -0.00000000       0.00000000      -0.00000000 </v>
    <v>      -0.00000000       0.16666893       0.16666893 </v>
    <v>       0.16666893      -0.00000000       0.16666893 </v>
    <v>       0.16666893       0.16666893       0.00000000 </v>
    <v>       0.33333106      -0.00000000      -0.00000000 </v>
    <v>       0.33333107       0.16666893       0.16666893 </v>
    <v>       0.50000000       0.00000000       0.16666894 </v>
    <v>       0.50000000       0.16666894      -0.00000000 </v>
    <v>       0.66666897      -0.00000000       0.00000000 </v>
    <v>       0.66666896       0.16666893       0.16666893 </v>
    <v>       0.83333104      -0.00000000       0.16666893 </v>
    <v>       0.83333104       0.16666893       0.00000000 </v>
    <v>       0.00000000       0.33333106      -0.00000000 </v>
    <v>      -0.00000000       0.50000000       0.16666894 </v>
    <v>       0.16666893       0.33333107       0.16666893 </v>
    <v>       0.16666894       0.50000000       0.00000000 </v>
    <v>       0.33333107       0.33333107      -0.00000000 </v>
    <v>       0.33333107       0.50000000       0.16666893 </v>
    <v>       0.50000000       0.33333107       0.16666893 </v>
    <v>       0.50000000       0.50000000      -0.00000000 </v>
    <v>       0.66666896       0.33333107      -0.00000000 </v>
    <v>       0.66666896       0.50000000       0.16666893 </v>
    <v>       0.83333104       0.33333107       0.16666893 </v>
    <v>       0.83333103       0.50000000      -0.00000000 </v>
    <v>       0.00000000       0.66666897      -0.00000000 </v>
    <v>       0.00000000       0.83333104       0.16666893 </v>
    <v>       0.16666893       0.66666896       0.16666893 </v>
    <v>       0.16666893       0.83333104       0.00000000 </v>
    <v>       0.33333107       0.66666896       0.00000000 </v>
    <v>       0.33333107       0.83333104       0.16666893 </v>
    <v>       0.50000000       0.66666896       0.16666893 </v>
    <v>       0.50000000       0.83333103      -0.00000000 </v>
    <v>       0.66666896       0.66666896       0.00000000 </v>
    <v>       0.66666896       0.83333104       0.16666893 </v>
    <v>       0.83333104       0.66666896       0.16666893 </v>
    <v>       0.83333104       0.83333104      -0.00000000 </v>
    <v>       0.00000000      -0.00000000       0.33333106 </v>
    <v>       0.00000000       0.16666894       0.50000000 </v>
    <v>       0.16666894       0.00000000       0.50000000 </v>
    <v>       0.16666893       0.16666893       0.33333107 </v>
    <v>       0.33333107       0.00000000       0.33333107 </v>
    <v>       0.33333107       0.16666893       0.50000000 </v>
    <v>       0.50000000       0.00000000       0.50000000 </v>
    <v>       0.50000000       0.16666893       0.33333107 </v>
    <v>       0.66666896      -0.00000000       0.33333107 </v>
    <v>       0.66666896       0.16666893       0.50000000 </v>
    <v>       0.83333103      -0.00000000       0.50000000 </v>
    <v>       0.83333104       0.16666893       0.33333107 </v>
    <v>      -0.00000000       0.33333107       0.33333107 </v>
    <v>       0.00000000       0.50000000       0.50000000 </v>
    <v>       0.16666893       0.33333107       0.50000000 </v>
    <v>       0.16666893       0.50000000       0.33333107 </v>
    <v>       0.33333107       0.33333107       0.33333107 </v>
    <v>       0.33333106       0.50000000       0.50000000 </v>
    <v>       0.50000000       0.33333106       0.50000000 </v>
    <v>       0.50000000       0.50000000       0.33333106 </v>
    <v>       0.66666896       0.33333107       0.33333107 </v>
    <v>       0.66666897       0.50000000       0.50000000 </v>
    <v>       0.83333104       0.33333107       0.50000000 </v>
    <v>       0.83333104       0.50000000       0.33333107 </v>
    <v>       0.00000000       0.66666896       0.33333107 </v>
    <v>      -0.00000000       0.83333103       0.50000000 </v>
    <v>       0.16666893       0.66666896       0.50000000 </v>
    <v>       0.16666893       0.83333104       0.33333107 </v>
    <v>       0.33333107       0.66666896       0.33333107 </v>
    <v>       0.33333107       0.83333104       0.50000000 </v>
    <v>       0.50000000       0.66666897       0.50000000 </v>
    <v>       0.50000000       0.83333104       0.33333107 </v>
    <v>       0.66666896       0.66666896       0.33333107 </v>
    <v>       0.66666896       0.83333104       0.50000000 </v>
    <v>       0.83333104       0.66666896       0.50000000 </v>
    <v>       0.83333104       0.83333104       0.33333107 </v>
    <v>      -0.00000000       0.00000000       0.66666897 </v>
    <v>       0.00000000       0.16666893       0.83333104 </v>
    <v>       0.16666893       0.00000000       0.83333104 </v>
    <v>       0.16666893       0.16666893       0.66666896 </v>
    <v>       0.33333107      -0.00000000       0.66666896 </v>
    <v>       0.33333107       0.16666893       0.83333104 </v>
    <v>       0.50000000       0.00000000       0.83333103 </v>
    <v>       0.50000000       0.16666893       0.66666896 </v>
    <v>       0.66666896      -0.00000000       0.66666896 </v>
    <v>       0.66666896       0.16666893       0.83333104 </v>
    <v>       0.83333104      -0.00000000       0.83333104 </v>
    <v>       0.83333104       0.16666893       0.66666896 </v>
    <v>      -0.00000000       0.33333107       0.66666896 </v>
    <v>      -0.00000000       0.50000000       0.83333103 </v>
    <v>       0.16666893       0.33333107       0.83333104 </v>
    <v>       0.16666893       0.50000000       0.66666896 </v>
    <v>       0.33333107       0.33333107       0.66666896 </v>
    <v>       0.33333107       0.50000000       0.83333104 </v>
    <v>       0.50000000       0.33333107       0.83333104 </v>
    <v>       0.50000000       0.50000000       0.66666897 </v>
    <v>       0.66666896       0.33333107       0.66666896 </v>
    <v>       0.66666896       0.50000000       0.83333104 </v>
    <v>       0.83333104       0.33333107       0.83333104 </v>
    <v>       0.83333104       0.50000000       0.66666896 </v>
    <v>      -0.00000000       0.66666896       0.66666896 </v>
    <v>      -0.00000000       0.83333104       0.83333104 </v>
    <v>       0.16666893       0.66666896       0.83333104 </v>
    <v>       0.16666893       0.83333104       0.66666896 </v>
    <v>       0.33333107       0.66666896       0.66666896 </v>
    <v>       0.33333107       0.83333104       0.83333104 </v>
    <v>       0.50000000       0.66666896       0.83333104 </v>
    <v>       0.50000000       0.83333104       0.66666896 </v>
    <v>       0.66666896       0.66666896       0.66666896 </v>
    <v>       0.66666896       0.83333104       0.83333104 </v>
    <v>       0.83333104       0.66666896       0.83333104 </v>
    <v>       0.83333104       0.83333104       0.66666896 </v>
   </varray>
  </structure>
  <varray name="forces" >
   <v>      -0.00000000      -0.00000000       0.00000000 </v>
   <v>      -0.00000000      -0.00000000      -0.00000000 </v>
   <v>      -0.00000000       0.00000000      -0.00000000 </v>
   <v>      -0.00000000      -0.00000000       0.00000000 </v>
   <v>       0.00000000       0.00000000       0.00000000 </v>
   <v>      -0.00000000       0.00000000       0.00000000 </v>
   <v>       0.00000000      -0.00000000       0.00000000 </v>
   <v>       0.00000000       0.00000000      -0.00000000 </v>
   <v>       0.00000000       0.00000000       0.00000000 </v>
   <v>       0.00000000      -0.00000000       0.00000000 </v>
   <v>       0.00000000       0.00000000      -0.00000000 </v>
   <v>      -0.00000000      -0.00000000      -0.00000000 </v>
   <v>      -0.00000000       0.00000000      -0.00000000 </v>
   <v>      -0.00000000       0.00000000       0.00000000 </v>
   <v>      -0.00000000      -0.00000000      -0.00000000 </v>
   <v>      -0.00000000       0.00000000      -0.00000000 </v>
   <v>      -0.00000000       0.00000000      -0.00000000 </v>
   <v>      -0.00000000      -0.00000000       0.00000000 </v>
   <v>       0.00000000      -0.00000000       0.00000000 </v>
   <v>       0.00000000       0.00000000      -0.00000000 </v>
   <v>       0.00000000       0.00000000      -0.00000000 </v>
   <v>       0.00000000      -0.00000000       0.00000000 </v>
   <v>       0.00000000      -0.00000000       0.00000000 </v>
   <v>       0.00000000      -0.00000000      -0.00000000 </v>
   <v>       0.00000000      -0.00000000       0.00000000 </v>
   <v>      -0.00000000      -0.00000000       0.00000000 </v>
   <v>      -0.00000000      -0.00000000       0.00000000 </v>
   <v>      -0.00000000       0.00000000      -0.00000000 </v>
   <v>      -0.00000000       0.00000000       0.00000000 </v>
   <v>       0.00000000      -0.00000000      -0.00000000 </v>
   <v>       0.00000000       0.00000000       0.00000000 </v>
   <v>      -0.00000000      -0.00000000       0.00000000 </v>
   <v>      -0.00000000       0.00000000      -0.00000000 </v>
   <v>       0.00000000       0.00000000      -0.00000000 </v>
   <v>      -0.00000000       0.00000000       0.00000000 </v>
   <v>      -0.00000000       0.00000000       0.00000000 </v>
   <v>      -0.00000000      -0.00000000      -0.00000000 </v>
   <v>      -0.00000000      -0.00000000      -0.00000000 </v>
   <v>      -0.00000000      -0.00000000      -0.00000000 </v>
   <v>      -0.00000000      -0.00000000       0.00000000 </v>
   <v>      -0.00000000      -0.00000000      -0.00000000 </v>
   <v>      -0.00000000      -0.00000000      -0.00000000 </v>
   <v>       0.00000000      -0.00000000       0.00000000 </v>
   <v>       0.00000000      -0.00000000       0.00000000 </v>
   <v>       0.00000000       0.00000000      -0.00000000 </v>
   <v>       0.00000000      -0.00000000      -0.00000000 </v>
   <v>       0.00000000       0.00000000      -0.00000000 </v>
   <v>      -0.00000000       0.00000000      -0.00000000 </v>
   <v>      -0.00000000       0.00000000      -0.00000000 </v>
   <v>      -0.00000000       0.00000000       0.00000000 </v>
   <v>       0.00000000      -0.00000000      -0.00000000 </v>
   <v>      -0.00000000      -0.00000000       0.00000000 </v>
   <v>       0.00000000      -0.00000000      -0.00000000 </v>
   <v>      -0.00000000       0.00000000       0.00000000 </v>
   <v>       0.00000000      -0.00000000       0.00000000 </v>
   <v>       0.00000000       0.00000000       0.00000000 </v>
   <v>       0.00000000      -0.00000000       0.00000000 </v>
   <v>       0.00000000       0.00000000       0.00000000 </v>
   <v>      -0.00000000      -0.00000000      -0.00000000 </v>
   <v>       0.00000000       0.00000000       0.00000000 </v>
   <v>       0.00000000      -0.00000000       0.00000000 </v>
   <v>      -0.00000000      -0.00000000       0.00000000 </v>
   <v>      -0.00000000      -0.00000000       0.00000000 </v>
   <v>      -0.00000000       0.00000000      -0.00000000 </v>
   <v>       0.00000000       0.00000000       0.00000000 </v>
   <v>      -0.00000000       0.00000000      -0.00000000 </v>
   <v>       0.00000000      -0.00000000       0.00000000 </v>
   <v>       0.00000000      -0.00000000      -0.00000000 </v>
   <v>      -0.00000000       0.00000000      -0.00000000 </v>
   <v>       0.00000000      -0.00000000      -0.00000000 </v>
   <v>       0.00000000       0.00000000       0.00000000 </v>
   <v>      -0.00000000      -0.00000000      -0.00000000 </v>
   <v>       0.00000000      -0.00000000       0.00000000 </v>
   <v>      -0.00000000      -0.00000000       0.00000000 </v>
   <v>      -0.00000000       0.00000000       0.00000000 </v>
   <v>      -0.00000000       0.00000000       0.00000000 </v>
   <v>      -0.00000000      -0.00000000       0.00000000 </v>
   <v>       0.00000000      -0.00000000       0.00000000 </v>
   <v>       0.00000000      -0.00000000      -0.00000000 </v>
   <v>       0.00000000       0.00000000       0.00000000 </v>
   <v>       0.00000000       0.00000000       0.00000000 </v>
   <v>      -0.00000000      -0.00000000      -0.00000000 </v>
   <v>       0.00000000       0.00000000       0.00000000 </v>
   <v>      -0.00000000      -0.00000000       0.00000000 </v>
[...]
       <r>    -1.8036     2.7701     0.3958 </r>
       <r>    -1.7582     3.2920     0.5452 </r>
       <r>    -1.7128     3.6641     0.7116 </r>
       <r>    -1.6674     3.8622     0.8870 </r>
       <r>    -1.6220     3.9336     1.0656 </r>
       <r>    -1.5766     3.9638     1.2456 </r>
       <r>    -1.5312     4.0318     1.4286 </r>
       <r>    -1.4858     4.1899     1.6189 </r>
       <r>    -1.4404     4.4667     1.8217 </r>
       <r>    -1.3950     4.8744     2.0430 </r>
       <r>    -1.3496     5.4087     2.2886 </r>
       <r>    -1.3042     6.0373     2.5627 </r>
       <r>    -1.2588     6.6746     2.8658 </r>
       <r>    -1.2134     7.1662     3.1912 </r>
       <r>    -1.1680     7.3285     3.5239 </r>
       <r>    -1.1225     7.0526     3.8441 </r>
       <r>    -1.0771     6.4077     4.1351 </r>
       <r>    -1.0317     5.6508     4.3917 </r>
       <r>    -0.9863     5.1187     4.6241 </r>
       <r>    -0.9409     5.0768     4.8546 </r>
       <r>    -0.8955     5.6181     5.1097 </r>
       <r>    -0.8501     6.6611     5.4121 </r>
       <r>    -0.8047     8.0129     5.7760 </r>
       <r>    -0.7593     9.4311     6.2042 </r>
       <r>    -0.7139    10.6414     6.6874 </r>
       <r>    -0.6685    11.3445     7.2025 </r>
       <r>    -0.6231    11.2861     7.7149 </r>
       <r>    -0.5777    10.4044     8.1873 </r>
       <r>    -0.5323     8.9503     8.5937 </r>
       <r>    -0.4869     7.4480     8.9319 </r>
       <r>    -0.4415     6.4758     9.2259 </r>
       <r>    -0.3961     6.4019     9.5166 </r>
       <r>    -0.3507     7.2406     9.8454 </r>
       <r>    -0.3053     8.6943    10.2401 </r>
       <r>    -0.2598    10.3166    10.7086 </r>
       <r>    -0.2144    11.6814    11.2390 </r>
       <r>    -0.1690    12.4959    11.8064 </r>
       <r>    -0.1236    12.6604    12.3812 </r>
       <r>    -0.0782    12.2939    12.9394 </r>
       <r>    -0.0328    11.7006    13.4707 </r>
       <r>     0.0126    11.2509    13.9815 </r>
       <r>     0.0580    11.2102    14.4905 </r>
       <r>     0.1034    11.6207    15.0182 </r>
       <r>     0.1488    12.3174    15.5775 </r>
       <r>     0.1942    13.0562    16.1703 </r>
       <r>     0.2396    13.6504    16.7901 </r>
       <r>     0.2850    14.0217    17.4268 </r>
       <r>     0.3304    14.1620    18.0698 </r>
       <r>     0.3758    14.0741    18.7088 </r>
       <r>     0.4212    13.7543    19.3333 </r>
       <r>     0.4666    13.2264    19.9339 </r>
       <r>     0.5120    12.5978    20.5059 </r>
       <r>     0.5575    12.1026    21.0554 </r>
       <r>     0.6029    12.0892    21.6043 </r>
       <r>     0.6483    12.9014    22.1901 </r>
       <r>     0.6937    14.6617    22.8559 </r>
       <r>     0.7391    17.0833    23.6315 </r>
       <r>     0.7845    19.4965    24.5168 </r>
       <r>     0.8299    21.1564    25.4774 </r>
       <r>     0.8753    21.6591    26.4608 </r>
       <r>     0.9207    21.1609    27.4216 </r>
       <r>     0.9661    20.2122    28.3394 </r>
       <r>     1.0115    19.3269    29.2169 </r>
       <r>     1.0569    18.6391    30.0632 </r>
       <r>     1.1023    17.9411    30.8779 </r>
       <r>     1.1477    17.0680    31.6528 </r>
       <r>     1.1931    16.2766    32.3919 </r>
       <r>     1.2385    16.2582    33.1301 </r>
       <r>     1.2839    17.7349    33.9354 </r>
       <r>     1.3293    20.9330    34.8858 </r>
       <r>     1.3747    25.3079    36.0349 </r>
       <r>     1.4202    29.6920    37.3831 </r>
       <r>     1.4656    32.7677    38.8710 </r>
       <r>     1.5110    33.6263    40.3978 </r>
       <r>     1.5564    32.1792    41.8589 </r>
       <r>     1.6018    29.2685    43.1878 </r>
       <r>     1.6472    26.4437    44.3885 </r>
       <r>     1.6926    25.4843    45.5456 </r>
       <r>     1.7380    27.8352    46.8095 </r>
       <r>     1.7834    34.1364    48.3595 </r>
       <r>     1.8288    44.0090    50.3577 </r>
       <r>     1.8742    56.2034    52.9096 </r>
       <r>     1.9196    69.0710    56.0458 </r>
       <r>     1.9650    81.1168    59.7290 </r>
       <r>     2.0104    91.3044    63.8747 </r>
       <r>     2.0558    99.0036    68.3700 </r>
       <r>     2.1012   103.8228    73.0841 </r>
       <r>     2.1466   105.6570    77.8815 </r>
       <r>     2.1920   104.9695    82.6477 </r>
       <r>     2.2374   102.9551    87.3224 </r>
       <r>     2.2829   101.2557    91.9199 </r>
       <r>     2.3283   101.2763    96.5184 </r>
       <r>     2.3737   103.5046   101.2181 </r>
       <r>     2.4191   107.2950   106.0899 </r>
       <r>     2.4645   111.3248   111.1446 </r>
       <r>     2.5099   114.5104   116.3440 </r>
       <r>     2.5553   116.7937   121.6470 </r>
       <r>     2.6007   119.1783   127.0584 </r>
       <r>     2.6461   122.9117   132.6392 </r>
       <r>     2.6915   128.4364   138.4709 </r>
       <r>     2.7369   135.0105   144.6011 </r>
       <r>     2.7823   141.3420   151.0188 </r>
       <r>     2.8277   146.6659   157.6782 </r>
       <r>     2.8731   151.2826   164.5473 </r>
       <r>     2.9185   156.0766   171.6340 </r>
       <r>     2.9639   161.4687   178.9655 </r>
       <r>     3.0093   166.7590   186.5373 </r>
       <r>     3.0547   170.4606   194.2771 </r>
       <r>     3.1002   171.3534   202.0575 </r>
       <r>     3.1456   169.3597   209.7473 </r>
       <r>     3.1910   165.5224   217.2629 </r>
       <r>     3.2364   161.1889   224.5817 </r>
       <r>     3.2818   157.2048   231.7197 </r>
       <r>     3.3272   153.8074   238.7034 </r>
       <r>     3.3726   151.1177   245.5649 </r>
       <r>     3.4180   149.5040   252.3532 </r>
       <r>     3.4634   149.3222   259.1332 </r>
       <r>     3.5088   150.3145   265.9583 </r>
       <r>     3.5542   151.3821   272.8319 </r>
       <r>     3.5996   151.0867   279.6920 </r>
       <r>     3.6450   148.5355   286.4363 </r>
       <r>     3.6904   143.9897   292.9742 </r>
       <r>     3.7358   138.7944   299.2762 </r>
       <r>     3.7812   134.6727   305.3911 </r>
       <r>     3.8266   132.7505   311.4187 </r>
       <r>     3.8720   132.8393   317.4503 </r>
       <r>     3.9174   133.4849   323.5112 </r>
       <r>     3.9629   132.9240   329.5467 </r>
       <r>     4.0083   130.4293   335.4689 </r>
       <r>     4.0537   127.0483   341.2376 </r>
       <r>     4.0991   125.0378   346.9149 </r>
       <r>     4.1445   126.3223   352.6507 </r>
       <r>     4.1899   131.2052   358.6081 </r>
       <r>     4.2353   138.4265   364.8934 </r>
       <r>     4.2807   146.4513   371.5431 </r>
       <r>     4.3261   154.7027   378.5674 </r>
       <r>     4.3715   163.5284   385.9925 </r>
       <r>     4.4169   173.0041   393.8478 </r>
       <r>     4.4623   181.8813   402.1062 </r>
       <r>     4.5077   187.8336   410.6348 </r>
       <r>     4.5531   188.8863   419.2113 </r>
       <r>     4.5985   184.8793   427.6058 </r>
       <r>     4.6439   177.9263   435.6846 </r>
       <r>     4.6893   171.6842   443.4800 </r>
       <r>     4.7347   169.9095   451.1948 </r>
       <r>     4.7801   174.9283   459.1374 </r>
       <r>     4.8256   186.5869   467.6095 </r>
       <r>     4.8710   202.1697   476.7891 </r>
       <r>     4.9164   217.4790   486.6638 </r>
       <r>     4.9618   228.6545   497.0459 </r>
       <r>     5.0072   233.7691   507.6603 </r>
       <r>     5.0526   233.3355   518.2550 </r>
       <r>     5.0980   229.6110   528.6806 </r>
       <r>     5.1434   225.3740   538.9137 </r>
       <r>     5.1888   223.0109   549.0396 </r>
       <r>     5.2342   224.2186   559.2204 </r>
       <r>     5.2796   229.9533   569.6615 </r>
       <r>     5.3250   240.0860   580.5627 </r>
       <r>     5.3704   252.7511   592.0389 </r>
       <r>     5.4158   264.1130   604.0311 </r>
       <r>     5.4612   269.3649   616.2617 </r>
       <r>     5.5066   264.8964   628.2894 </r>
       <r>     5.5520   250.3854   639.6582 </r>
       <r>     5.5974   229.2581   650.0678 </r>
       <r>     5.6429   206.9812   659.4658 </r>
       <r>     5.6883   188.2309   668.0125 </r>
       <r>     5.7337   174.8045   675.9496 </r>
       <r>     5.7791   165.5464   683.4663 </r>
       <r>     5.8245   158.0668   690.6434 </r>
       <r>     5.8699   150.8485   697.4927 </r>
       <r>     5.9153   144.2911   704.0443 </r>
       <r>     5.9607   140.2040   710.4103 </r>
       <r>     6.0061   140.3684   716.7838 </r>
       <r>     6.0515   145.2648   723.3796 </r>
       <r>     6.0969   153.7230   730.3594 </r>
       <r>     6.1423   163.5465   737.7853 </r>
       <r>     6.1877   172.6301   745.6236 </r>
       <r>     6.2331   179.9461   753.7942 </r>
       <r>     6.2785   185.8897   762.2345 </r>
       <r>     6.3239   191.7327   770.9402 </r>
       <r>     6.3693   198.4104   779.9491 </r>
       <r>     6.4147   205.4523   789.2778 </r>
       <r>     6.4601   211.0114   798.8588 </r>
       <r>     6.5056   213.1933   808.5389 </r>
       <r>     6.5510   211.6797   818.1503 </r>
       <r>     6.5964   208.1576   827.6018 </r>
       <r>     6.6418   204.9904   836.9095 </r>
       <r>     6.6872   203.1754   846.1347 </r>
       <r>     6.7326   201.4059   855.2796 </r>
       <r>     6.7780   197.1901   864.2331 </r>
       <r>     6.8234   189.1847   872.8231 </r>
       <r>     6.8688   178.7847   880.9409 </r>
       <r>     6.9142   169.5759   888.6405 </r>
       <r>     6.9596   165.0265   896.1336 </r>
       <r>     7.0050   166.2386   903.6818 </r>
       <r>     7.0504   171.4586   911.4669 </r>
       <r>     7.0958   177.5407   919.5282 </r>
       <r>     7.1412   182.0382   927.7937 </r>
       <r>     7.1866   184.3749   936.1653 </r>
       <r>     7.2320   185.5916   944.5922 </r>
       <r>     7.2774   187.3232   953.0977 </r>
       <r>     7.3228   190.8925   961.7652 </r>
       <r>     7.3683   196.8088   970.7014 </r>
       <r>     7.4137   204.4187   979.9831 </r>
       <r>     7.4591   211.5636   989.5892 </r>
       <r>     7.5045   214.5750   999.3321 </r>
       <r>     7.5499   209.1014  1008.8264 </r>
       <r>     7.5953   191.8069  1017.5354 </r>
       <r>     7.6407   162.2314  1024.9016 </r>
       <r>     7.6861   123.6963  1030.5181 </r>
       <r>     7.7315    82.4910  1034.2636 </r>
       <r>     7.7769    45.5697  1036.3327 </r>
       <r>     7.8223    17.9567  1037.1481 </r>
       <r>     7.8677     1.2540  1037.2050 </r>
       <r>     7.9131    -6.1154  1036.9273 </r>
       <r>     7.9585    -7.4040  1036.5911 </r>
       <r>     8.0039    -5.8568  1036.3252 </r>
       <r>     8.0493    -3.6993  1036.1573 </r>
       <r>     8.0947    -1.9775  1036.0675 </r>
       <r>     8.1401    -0.9172  1036.0258 </r>
       <r>     8.1856    -0.3739  1036.0088 </r>
       <r>     8.2310    -0.1349  1036.0027 </r>
       <r>     8.2764    -0.0433  1036.0007 </r>
       <r>     8.3218    -0.0124  1036.0002 </r>
       <r>     8.3672    -0.0032  1036.0000 </r>
       <r>     8.4126    -0.0007  1036.0000 </r>
       <r>     8.4580    -0.0002  1036.0000 </r>
       <r>     8.5034    -0.0000  1036.0000 </r>
       <r>     8.5488    -0.0000  1036.0000 </r>
       <r>     8.5942    -0.0000  1036.0000 </r>
       <r>     8.6396    -0.0000  1036.0000 </r>
       <r>     8.6850    -0.0000  1036.0000 </r>
       <r>     8.7304    -0.0000  1036.0000 </r>
       <r>     8.7758    -0.0000  1036.0000 </r>
       <r>     8.8212    -0.0000  1036.0000 </r>
       <r>     8.8666    -0.0000  1036.0000 </r>
       <r>     8.9120    -0.0000  1036.0000 </r>
       <r>     8.9574     0.0000  1036.0000 </r>
       <r>     9.0028     0.0000  1036.0000 </r>
       <r>     9.0483     0.0000  1036.0000 </r>
       <r>     9.0937     0.0000  1036.0000 </r>
       <r>     9.1391     0.0000  1036.0000 </r>
       <r>     9.1845     0.0000  1036.0000 </r>
       <r>     9.2299     0.0000  1036.0000 </r>
       <r>     9.2753     0.0000  1036.0000 </r>
       <r>     9.3207     0.0000  1036.0000 </r>
       <r>     9.3661     0.0000  1036.0000 </r>
       <r>     9.4115     0.0000  1036.0000 </r>
       <r>     9.4569     0.0000  1036.0000 </r>
       <r>     9.5023     0.0000  1036.0000 </r>
       <r>     9.5477     0.0000  1036.0000 </r>
       <r>     9.5931     0.0000  1036.0000 </r>
       <r>     9.6385     0.0000  1036.0000 </r>
       <r>     9.6839     0.0000  1036.0000 </r>
      </set>
     </set>
    </array>
   </total>
  </dos>
 </calculation>
 <structure name="finalpos" >
  <crystal>
   <varray name="basis" >
    <v>      10.34274308       0.00000000      -0.00000000 </v>
    <v>      -0.00000000      10.34274308      -0.00000000 </v>
    <v>       0.00000000       0.00000000      10.34274308 </v>
   </varray>
   <i name="volume">   1106.38737312 </i>
   <varray name="rec_basis" >
    <v>       0.09668615       0.00000000      -0.00000000 </v>
    <v>      -0.00000000       0.09668615      -0.00000000 </v>
    <v>       0.00000000       0.00000000       0.09668615 </v>
   </varray>
  </crystal>
  <varray name="positions" >
   <v>      -0.00000000       0.00000000      -0.00000000 </v>
   <v>      -0.00000000       0.16666893       0.16666893 </v>
   <v>       0.16666893      -0.00000000       0.16666893 </v>
   <v>       0.16666893       0.16666893       0.00000000 </v>
   <v>       0.33333106      -0.00000000      -0.00000000 </v>
   <v>       0.33333107       0.16666893       0.16666893 </v>
   <v>       0.50000000       0.00000000       0.16666894 </v>
   <v>       0.50000000       0.16666894      -0.00000000 </v>
   <v>       0.66666897      -0.00000000       0.00000000 </v>
   <v>       0.66666896       0.16666893       0.16666893 </v>
   <v>       0.83333104      -0.00000000       0.16666893 </v>
   <v>       0.83333104       0.16666893       0.00000000 </v>
   <v>       0.00000000       0.33333106      -0.00000000 </v>
   <v>      -0.00000000       0.50000000       0.16666894 </v>
   <v>       0.16666893       0.33333107       0.16666893 </v>
   <v>       0.16666894       0.50000000       0.00000000 </v>
   <v>       0.33333107       0.33333107      -0.00000000 </v>
   <v>       0.33333107       0.50000000       0.16666893 </v>
   <v>       0.50000000       0.33333107       0.16666893 </v>
   <v>       0.50000000       0.50000000      -0.00000000 </v>
   <v>       0.66666896       0.33333107      -0.00000000 </v>
   <v>       0.66666896       0.50000000       0.16666893 </v>
   <v>       0.83333104       0.33333107       0.16666893 </v>
   <v>       0.83333103       0.50000000      -0.00000000 </v>
   <v>       0.00000000       0.66666897      -0.00000000 </v>
   <v>       0.00000000       0.83333104       0.16666893 </v>
   <v>       0.16666893       0.66666896       0.16666893 </v>
   <v>       0.16666893       0.83333104       0.00000000 </v>
   <v>       0.33333107       0.66666896       0.00000000 </v>
   <v>       0.33333107       0.83333104       0.16666893 </v>
   <v>       0.50000000       0.66666896       0.16666893 </v>
   <v>       0.50000000       0.83333103      -0.00000000 </v>
   <v>       0.66666896       0.66666896       0.00000000 </v>
   <v>       0.66666896       0.83333104       0.16666893 </v>
   <v>       0.83333104       0.66666896       0.16666893 </v>
   <v>       0.83333104       0.83333104      -0.00000000 </v>
   <v>       0.00000000      -0.00000000       0.33333106 </v>
   <v>       0.00000000       0.16666894       0.50000000 </v>
   <v>       0.16666894       0.00000000       0.50000000 </v>
   <v>       0.16666893       0.16666893       0.33333107 </v>
   <v>       0.33333107       0.00000000       0.33333107 </v>
   <v>       0.33333107       0.16666893       0.50000000 </v>
   <v>       0.50000000       0.00000000       0.50000000 </v>
   <v>       0.50000000       0.16666893       0.33333107 </v>
   <v>       0.66666896      -0.00000000       0.33333107 </v>
   <v>       0.66666896       0.16666893       0.50000000 </v>
   <v>       0.83333103      -0.00000000       0.50000000 </v>
   <v>       0.83333104       0.16666893       0.33333107 </v>
   <v>      -0.00000000       0.33333107       0.33333107 </v>
   <v>       0.00000000       0.50000000       0.50000000 </v>
   <v>       0.16666893       0.33333107       0.50000000 </v>
   <v>       0.16666893       0.50000000       0.33333107 </v>
   <v>       0.33333107       0.33333107       0.33333107 </v>
   <v>       0.33333106       0.50000000       0.50000000 </v>
   <v>       0.50000000       0.33333106       0.50000000 </v>
   <v>       0.50000000       0.50000000       0.33333106 </v>
   <v>       0.66666896       0.33333107       0.33333107 </v>
   <v>       0.66666897       0.50000000       0.50000000 </v>
   <v>       0.83333104       0.33333107       0.50000000 </v>
   <v>       0.83333104       0.50000000       0.33333107 </v>
   <v>       0.00000000       0.66666896       0.33333107 </v>
   <v>      -0.00000000       0.83333103       0.50000000 </v>
   <v>       0.16666893       0.66666896       0.50000000 </v>
   <v>       0.16666893       0.83333104       0.33333107 </v>
   <v>       0.33333107       0.66666896       0.33333107 </v>
   <v>       0.33333107       0.83333104       0.50000000 </v>
   <v>       0.50000000       0.66666897       0.50000000 </v>
   <v>       0.50000000       0.83333104       0.33333107 </v>
   <v>       0.66666896       0.66666896       0.33333107 </v>
   <v>       0.66666896       0.83333104       0.50000000 </v>
   <v>       0.83333104       0.66666896       0.50000000 </v>
   <v>       0.83333104       0.83333104       0.33333107 </v>
   <v>      -0.00000000       0.00000000       0.66666897 </v>
   <v>       0.00000000       0.16666893       0.83333104 </v>
   <v>       0.16666893       0.00000000       0.83333104 </v>
   <v>       0.16666893       0.16666893       0.66666896 </v>
   <v>       0.33333107      -0.00000000       0.66666896 </v>
   <v>       0.33333107       0.16666893       0.83333104 </v>
   <v>       0.50000000       0.00000000       0.83333103 </v>
   <v>       0.50000000       0.16666893       0.66666896 </v>
   <v>       0.66666896      -0.00000000       0.66666896 </v>
   <v>       0.66666896       0.16666893       0.83333104 </v>
   <v>       0.83333104      -0.00000000       0.83333104 </v>
   <v>       0.83333104       0.16666893       0.66666896 </v>
   <v>      -0.00000000       0.33333107       0.66666896 </v>
   <v>      -0.00000000       0.50000000       0.83333103 </v>
   <v>       0.16666893       0.33333107       0.83333104 </v>
   <v>       0.16666893       0.50000000       0.66666896 </v>
   <v>       0.33333107       0.33333107       0.66666896 </v>
   <v>       0.33333107       0.50000000       0.83333104 </v>
   <v>       0.50000000       0.33333107       0.83333104 </v>
   <v>       0.50000000       0.50000000       0.66666897 </v>
   <v>       0.66666896       0.33333107       0.66666896 </v>
   <v>       0.66666896       0.50000000       0.83333104 </v>
   <v>       0.83333104       0.33333107       0.83333104 </v>
   <v>       0.83333104       0.50000000       0.66666896 </v>
   <v>      -0.00000000       0.66666896       0.66666896 </v>
   <v>      -0.00000000       0.83333104       0.83333104 </v>
   <v>       0.16666893       0.66666896       0.83333104 </v>
   <v>       0.16666893       0.83333104       0.66666896 </v>
   <v>       0.33333107       0.66666896       0.66666896 </v>
   <v>       0.33333107       0.83333104       0.83333104 </v>
   <v>       0.50000000       0.66666896       0.83333104 </v>
   <v>       0.50000000       0.83333104       0.66666896 </v>
   <v>       0.66666896       0.66666896       0.66666896 </v>
   <v>       0.66666896       0.83333104       0.83333104 </v>
   <v>       0.83333104       0.66666896       0.83333104 </v>
   <v>       0.83333104       0.83333104       0.66666896 </v>
  </varray>
 </structure>
</modeling>
