 107 107   0   0
  0.1031640E+02  0.1033485E-08  0.1033485E-08  0.1033485E-08  0.5000000E-15
  1.000000000000000E-004
  CAR 
 Opt                                     
      9.82403113     -8.92089944  301      6.93994166      1.00000000
     -8.921  0.0000E+00  0.0000E+00
     -8.858  0.0000E+00  0.0000E+00
     -8.796  0.0000E+00  0.0000E+00
     -8.733  0.0000E+00  0.0000E+00
     -8.671  0.0000E+00  0.0000E+00
     -8.608  0.0000E+00  0.0000E+00
     -8.546 -0.1508E-28 -0.9422E-30
     -8.484 -0.2096E-26 -0.1319E-27
     -8.421 -0.2405E-24 -0.1516E-25
     -8.359 -0.2267E-22 -0.1432E-23
     -8.296 -0.1753E-20 -0.1110E-21
     -8.234 -0.1113E-18 -0.7063E-20
     -8.171 -0.5792E-17 -0.3690E-18
     -8.109 -0.2473E-15 -0.1582E-16
     -8.046 -0.8375E-14 -0.5391E-15
     -7.984 -0.2393E-12 -0.1549E-13
     -7.921 -0.5587E-11 -0.3646E-12
     -7.859 -0.1066E-09 -0.7026E-11
     -7.796 -0.1660E-08 -0.1108E-09
     -7.734 -0.2106E-07 -0.1427E-08
     -7.671 -0.2172E-06 -0.1500E-07
     -7.609 -0.1815E-05 -0.1284E-06
     -7.546 -0.1224E-04 -0.8929E-06
     -7.484 -0.6614E-04 -0.5026E-05
     -7.421 -0.2837E-03 -0.2275E-04
     -7.359 -0.9494E-03 -0.8207E-04
     -7.296 -0.2393E-02 -0.2316E-03
     -7.234 -0.4170E-02 -0.4921E-03
     -7.171 -0.3432E-02 -0.7066E-03
     -7.109  0.5549E-02 -0.3599E-03
     -7.046  0.2727E-01  0.1344E-02
     -6.984  0.5725E-01  0.4921E-02
     -6.921  0.8003E-01  0.9922E-02
     -6.859  0.8041E-01  0.1495E-01
     -6.796  0.5812E-01  0.1858E-01
     -6.734  0.2809E-01  0.2033E-01
     -6.672  0.6001E-02  0.2071E-01
     -6.609 -0.3317E-02  0.2050E-01
     -6.547 -0.4206E-02  0.2024E-01
     -6.484 -0.2448E-02  0.2008E-01
     -6.422 -0.9799E-03  0.2002E-01
     -6.359 -0.2951E-03  0.2001E-01
     -6.297 -0.6928E-04  0.2000E-01
     -6.234 -0.1290E-04  0.2000E-01
     -6.172 -0.1926E-05  0.2000E-01
     -6.109 -0.2319E-06  0.2000E-01
     -6.047 -0.2263E-07  0.2000E-01
     -5.984 -0.1795E-08  0.2000E-01
     -5.922 -0.1160E-09  0.2000E-01
     -5.859 -0.6114E-11  0.2000E-01
     -5.797 -0.2633E-12  0.2000E-01
     -5.734 -0.9302E-14  0.2000E-01
     -5.672 -0.2843E-15  0.2000E-01
     -5.609  0.0000E+00  0.2000E-01
     -5.547  0.0000E+00  0.2000E-01
     -5.484  0.0000E+00  0.2000E-01
     -5.422  0.0000E+00  0.2000E-01
     -5.359  0.0000E+00  0.2000E-01
     -5.297  0.0000E+00  0.2000E-01
     -5.234  0.0000E+00  0.2000E-01
     -5.172  0.0000E+00  0.2000E-01
     -5.109  0.0000E+00  0.2000E-01
     -5.047  0.0000E+00  0.2000E-01
     -4.984  0.0000E+00  0.2000E-01
     -4.922  0.0000E+00  0.2000E-01
     -4.859  0.0000E+00  0.2000E-01
     -4.797  0.0000E+00  0.2000E-01
     -4.735  0.0000E+00  0.2000E-01
     -4.672  0.0000E+00  0.2000E-01
     -4.610  0.0000E+00  0.2000E-01
     -4.547  0.0000E+00  0.2000E-01
     -4.485  0.0000E+00  0.2000E-01
     -4.422  0.0000E+00  0.2000E-01
     -4.360  0.0000E+00  0.2000E-01
     -4.297  0.0000E+00  0.2000E-01
     -4.235  0.0000E+00  0.2000E-01
     -4.172  0.0000E+00  0.2000E-01
     -4.110  0.0000E+00  0.2000E-01
     -4.047  0.0000E+00  0.2000E-01
     -3.985  0.0000E+00  0.2000E-01
     -3.922  0.0000E+00  0.2000E-01
     -3.860  0.0000E+00  0.2000E-01
     -3.797  0.0000E+00  0.2000E-01
     -3.735  0.0000E+00  0.2000E-01
     -3.672  0.0000E+00  0.2000E-01
     -3.610  0.0000E+00  0.2000E-01
     -3.547  0.0000E+00  0.2000E-01
     -3.485  0.0000E+00  0.2000E-01
     -3.422  0.0000E+00  0.2000E-01
     -3.360  0.0000E+00  0.2000E-01
     -3.297 -0.4515E-29  0.2000E-01
     -3.235 -0.6062E-27  0.2000E-01
     -3.172 -0.6723E-25  0.2000E-01
     -3.110 -0.6121E-23  0.2000E-01
     -3.047 -0.4574E-21  0.2000E-01
     -2.985 -0.2805E-19  0.2000E-01
     -2.923 -0.1411E-17  0.2000E-01
     -2.860 -0.5596E-16  0.2000E-01
     -2.798 -0.1905E-14  0.2000E-01
     -2.735 -0.5253E-13  0.2000E-01
     -2.673 -0.1186E-11  0.2000E-01
     -2.610 -0.2187E-10  0.2000E-01
     -2.548 -0.3295E-09  0.2000E-01
     -2.485 -0.4047E-08  0.2000E-01
     -2.423 -0.4047E-07  0.2000E-01
     -2.360 -0.3288E-06  0.2000E-01
     -2.298 -0.2165E-05  0.2000E-01
     -2.235 -0.1151E-04  0.2000E-01
     -2.173 -0.4918E-04  0.2000E-01
     -2.110 -0.1675E-03  0.1999E-01
     -2.048 -0.4479E-03  0.1996E-01
     -1.985 -0.9106E-03  0.1990E-01
     -1.923 -0.1280E-02  0.1982E-01
     -1.860 -0.7165E-03  0.1978E-01
     -1.798  0.2135E-02  0.1991E-01
     -1.735  0.8515E-02  0.2044E-01
     -1.673  0.1848E-01  0.2160E-01
     -1.610  0.3013E-01  0.2348E-01
     -1.548  0.4009E-01  0.2598E-01
     -1.485  0.4549E-01  0.2883E-01
     -1.423  0.4629E-01  0.3172E-01
     -1.360  0.4621E-01  0.3461E-01
     -1.298  0.5047E-01  0.3776E-01
     -1.235  0.6055E-01  0.4154E-01
     -1.173  0.7090E-01  0.4597E-01
     -1.111  0.7389E-01  0.5059E-01
     -1.048  0.6920E-01  0.5491E-01
     -0.986  0.6548E-01  0.5900E-01
     -0.923  0.7127E-01  0.6346E-01
     -0.861  0.8640E-01  0.6886E-01
     -0.798  0.1033E+00  0.7531E-01
     -0.736  0.1145E+00  0.8246E-01
     -0.673  0.1184E+00  0.8986E-01
     -0.611  0.1173E+00  0.9719E-01
     -0.548  0.1130E+00  0.1043E+00
     -0.486  0.1074E+00  0.1110E+00
     -0.423  0.1063E+00  0.1176E+00
     -0.361  0.1161E+00  0.1249E+00
     -0.298  0.1317E+00  0.1331E+00
     -0.236  0.1368E+00  0.1416E+00
     -0.173  0.1213E+00  0.1492E+00
     -0.111  0.9620E-01  0.1552E+00
     -0.048  0.8149E-01  0.1603E+00
      0.014  0.8610E-01  0.1657E+00
      0.077  0.1041E+00  0.1722E+00
      0.139  0.1265E+00  0.1801E+00
      0.202  0.1478E+00  0.1893E+00
      0.264  0.1637E+00  0.1996E+00
      0.327  0.1697E+00  0.2102E+00
      0.389  0.1639E+00  0.2204E+00
      0.452  0.1488E+00  0.2297E+00
      0.514  0.1307E+00  0.2379E+00
      0.577  0.1175E+00  0.2452E+00
      0.639  0.1139E+00  0.2523E+00
      0.701  0.1188E+00  0.2598E+00
      0.764  0.1284E+00  0.2678E+00
      0.826  0.1407E+00  0.2766E+00
      0.889  0.1550E+00  0.2863E+00
      0.951  0.1697E+00  0.2969E+00
      1.014  0.1841E+00  0.3084E+00
      1.076  0.1985E+00  0.3208E+00
      1.139  0.2107E+00  0.3339E+00
      1.201  0.2154E+00  0.3474E+00
      1.264  0.2104E+00  0.3605E+00
      1.326  0.2001E+00  0.3730E+00
      1.389  0.1917E+00  0.3850E+00
      1.451  0.1923E+00  0.3970E+00
      1.514  0.2082E+00  0.4100E+00
      1.576  0.2412E+00  0.4251E+00
      1.639  0.2797E+00  0.4426E+00
      1.701  0.3032E+00  0.4615E+00
      1.764  0.3020E+00  0.4804E+00
      1.826  0.2928E+00  0.4987E+00
      1.889  0.3110E+00  0.5181E+00
      1.951  0.3830E+00  0.5421E+00
      2.014  0.5074E+00  0.5738E+00
      2.076  0.6588E+00  0.6149E+00
      2.139  0.8060E+00  0.6653E+00
      2.201  0.9235E+00  0.7230E+00
      2.264  0.9951E+00  0.7852E+00
      2.326  0.1019E+01  0.8489E+00
      2.389  0.1014E+01  0.9122E+00
      2.451  0.1005E+01  0.9750E+00
      2.514  0.1011E+01  0.1038E+01
      2.576  0.1032E+01  0.1103E+01
      2.638  0.1065E+01  0.1169E+01
      2.701  0.1110E+01  0.1239E+01
      2.763  0.1176E+01  0.1312E+01
      2.826  0.1264E+01  0.1391E+01
      2.888  0.1355E+01  0.1476E+01
      2.951  0.1426E+01  0.1565E+01
      3.013  0.1474E+01  0.1657E+01
      3.076  0.1518E+01  0.1752E+01
      3.138  0.1568E+01  0.1850E+01
      3.201  0.1617E+01  0.1951E+01
      3.263  0.1645E+01  0.2054E+01
      3.326  0.1642E+01  0.2156E+01
      3.388  0.1612E+01  0.2257E+01
      3.451  0.1569E+01  0.2355E+01
      3.513  0.1529E+01  0.2450E+01
      3.576  0.1506E+01  0.2545E+01
      3.638  0.1502E+01  0.2638E+01
      3.701  0.1501E+01  0.2732E+01
      3.763  0.1481E+01  0.2825E+01
      3.826  0.1435E+01  0.2914E+01
      3.888  0.1376E+01  0.3000E+01
      3.951  0.1331E+01  0.3084E+01
      4.013  0.1315E+01  0.3166E+01
      4.076  0.1318E+01  0.3248E+01
      4.138  0.1317E+01  0.3330E+01
      4.201  0.1300E+01  0.3412E+01
      4.263  0.1286E+01  0.3492E+01
      4.326  0.1304E+01  0.3573E+01
      4.388  0.1368E+01  0.3659E+01
      4.450  0.1463E+01  0.3750E+01
      4.513  0.1569E+01  0.3848E+01
      4.575  0.1673E+01  0.3953E+01
      4.638  0.1758E+01  0.4063E+01
      4.700  0.1796E+01  0.4175E+01
      4.763  0.1775E+01  0.4286E+01
      4.825  0.1728E+01  0.4394E+01
      4.888  0.1719E+01  0.4501E+01
      4.950  0.1788E+01  0.4613E+01
      5.013  0.1923E+01  0.4733E+01
      5.075  0.2070E+01  0.4862E+01
      5.138  0.2176E+01  0.4998E+01
      5.200  0.2227E+01  0.5137E+01
      5.263  0.2245E+01  0.5278E+01
      5.325  0.2262E+01  0.5419E+01
      5.388  0.2304E+01  0.5563E+01
      5.450  0.2375E+01  0.5711E+01
      5.513  0.2458E+01  0.5865E+01
      5.575  0.2510E+01  0.6022E+01
      5.638  0.2478E+01  0.6177E+01
      5.700  0.2342E+01  0.6323E+01
      5.763  0.2137E+01  0.6457E+01
      5.825  0.1924E+01  0.6577E+01
      5.888  0.1751E+01  0.6686E+01
      5.950  0.1623E+01  0.6788E+01
      6.013  0.1528E+01  0.6883E+01
      6.075  0.1465E+01  0.6975E+01
      6.138  0.1448E+01  0.7065E+01
      6.200  0.1482E+01  0.7158E+01
      6.262  0.1553E+01  0.7255E+01
      6.325  0.1640E+01  0.7357E+01
      6.387  0.1721E+01  0.7465E+01
      6.450  0.1797E+01  0.7577E+01
      6.512  0.1875E+01  0.7694E+01
      6.575  0.1957E+01  0.7816E+01
      6.637  0.2019E+01  0.7943E+01
      6.700  0.2037E+01  0.8070E+01
      6.762  0.2014E+01  0.8196E+01
      6.825  0.1976E+01  0.8319E+01
      6.887  0.1939E+01  0.8440E+01
      6.950  0.1887E+01  0.8558E+01
      7.012  0.1811E+01  0.8672E+01
      7.075  0.1736E+01  0.8780E+01
      7.137  0.1702E+01  0.8886E+01
      7.200  0.1722E+01  0.8994E+01
      7.262  0.1766E+01  0.9104E+01
      7.325  0.1799E+01  0.9217E+01
      7.387  0.1817E+01  0.9330E+01
      7.450  0.1849E+01  0.9446E+01
      7.512  0.1928E+01  0.9566E+01
      7.575  0.2059E+01  0.9695E+01
      7.637  0.2189E+01  0.9832E+01
      7.700  0.2204E+01  0.9969E+01
      7.762  0.1988E+01  0.1009E+02
      7.825  0.1518E+01  0.1019E+02
      7.887  0.9178E+00  0.1025E+02
      7.950  0.3855E+00  0.1027E+02
      8.012  0.5588E-01  0.1027E+02
      8.075 -0.6927E-01  0.1027E+02
      8.137 -0.7430E-01  0.1026E+02
      8.199 -0.4342E-01  0.1026E+02
      8.262 -0.1818E-01  0.1026E+02
      8.324 -0.5851E-02  0.1026E+02
      8.387 -0.1488E-02  0.1026E+02
      8.449 -0.3034E-03  0.1026E+02
      8.512 -0.4999E-04  0.1026E+02
      8.574 -0.6688E-05  0.1026E+02
      8.637 -0.7291E-06  0.1026E+02
      8.699 -0.6490E-07  0.1026E+02
      8.762 -0.4726E-08  0.1026E+02
      8.824 -0.2818E-09  0.1026E+02
      8.887 -0.1377E-10  0.1026E+02
      8.949 -0.5522E-12  0.1026E+02
      9.012 -0.1819E-13  0.1026E+02
      9.074 -0.4709E-15  0.1026E+02
      9.137  0.0000E+00  0.1026E+02
      9.199  0.0000E+00  0.1026E+02
      9.262  0.0000E+00  0.1026E+02
      9.324  0.0000E+00  0.1026E+02
      9.387  0.0000E+00  0.1026E+02
      9.449  0.0000E+00  0.1026E+02
      9.512  0.0000E+00  0.1026E+02
      9.574  0.0000E+00  0.1026E+02
      9.637  0.0000E+00  0.1026E+02
      9.699  0.0000E+00  0.1026E+02
      9.762  0.0000E+00  0.1026E+02
      9.824  0.0000E+00  0.1026E+02
