  107  107  100    1
  0.1031640E+02  0.1033485E-08  0.1033485E-08  0.1033485E-08  0.5000000E-15
  1.000000000000000E-004
  CAR 
 Opt                                     
    854     32    513
 
  0.1250000E+00  0.1250000E+00  0.1250000E+00  0.3125000E-01
    1       -6.920899   1.000000
    2       -1.683086   1.000000
    3       -0.873150   1.000000
    4       -0.814873   1.000000
    5       -0.668127   1.000000
    6       -0.293350   1.000000
    7       -0.257062   1.000000
    8       -0.240718   1.000000
    9        0.163520   1.000000
   10        0.229225   1.000000
   11        0.403738   1.000000
   12        0.463624   1.000000
   13        0.508300   1.000000
   14        0.772070   1.000000
   15        0.946171   1.000000
   16        0.965150   1.000000
   17        1.014707   1.000000
   18        1.121279   1.000000
   19        1.239105   1.000000
   20        1.267828   1.000000
   21        1.346602   1.000000
   22        1.480549   1.000000
   23        1.520815   1.000000
   24        1.632302   1.000000
   25        1.648371   1.000000
   26        1.656500   1.000000
   27        1.700978   1.000000
   28        1.817469   1.000000
   29        1.837012   1.000000
   30        1.916349   1.000000
   31        2.006076   1.000000
   32        2.017464   1.000000
   33        2.039482   1.000000
   34        2.057366   1.000000
   35        2.081292   1.000000
   36        2.087740   1.000000
   37        2.138215   1.000000
   38        2.206665   1.000000
   39        2.253433   1.000000
   40        2.472969   1.000000
   41        2.490535   1.000000
   42        2.495041   1.000000
   43        2.526542   1.000000
   44        2.590100   1.000000
   45        2.596577   1.000000
   46        2.602445   1.000000
   47        2.606857   1.000000
   48        2.611644   1.000000
   49        2.616341   1.000000
   50        2.623432   1.000000
   51        2.631671   1.000000
   52        2.642128   1.000000
   53        2.648783   1.000000
   54        2.653733   1.000000
   55        2.659005   1.000000
   56        2.661586   1.000000
   57        2.669107   1.000000
   58        2.673100   1.000000
   59        2.694397   1.000000
   60        2.720107   1.000000
   61        2.732393   1.000000
   62        2.741687   1.000000
   63        2.761360   1.000000
   64        2.768651   1.000000
   65        2.776403   1.000000
   66        2.780897   1.000000
   67        2.788532   1.000000
   68        2.803149   1.000000
   69        2.834713   1.000000
   70        2.846662   1.000000
   71        2.854062   1.000000
   72        2.864213   1.000000
   73        2.871598   1.000000
   74        2.873832   1.000000
   75        2.882593   1.000000
   76        2.893726   1.000000
   77        2.899577   1.000000
   78        2.908157   1.000000
   79        2.916281   1.000000
   80        2.920338   1.000000
   81        2.926160   1.000000
   82        2.945498   1.000000
   83        2.952560   1.000000
   84        2.968145   1.000000
   85        2.976338   1.000000
   86        2.982672   1.000000
   87        2.991240   1.000000
   88        3.018245   1.000000
   89        3.022695   1.000000
   90        3.055256   1.000000
   91        3.073511   1.000000
   92        3.094171   1.000000
   93        3.122485   1.000000
   94        3.159066   1.000000
   95        3.176229   1.000000
   96        3.184085   1.000000
   97        3.190537   1.000000
   98        3.200238   1.000000
   99        3.204800   1.000000
  100        3.211522   1.000000
  101        3.220867   1.000000
  102        3.239175   1.000000
  103        3.275217   1.000000
  104        3.285983   1.000000
  105        3.293806   1.000000
  106        3.297785   1.000000
  107        3.302452   1.000000
  108        3.319232   1.000000
  109        3.329701   1.000000
  110        3.334481   1.000000
  111        3.362902   1.000000
  112        3.419916   1.000000
  113        3.428949   1.000000
  114        3.445196   1.000000
  115        3.451466   1.000000
  116        3.454991   1.000000
  117        3.461801   1.000000
  118        3.473802   1.000000
  119        3.480437   1.000000
  120        3.511413   1.000000
  121        3.518301   1.000000
  122        3.534496   1.000000
  123        3.542139   1.000000
  124        3.566983   1.000000
  125        3.577333   1.000000
  126        3.582259   1.000000
  127        3.592187   1.000000
  128        3.596488   1.000000
  129        3.599273   1.000000
  130        3.608708   1.000000
  131        3.617042   1.000000
  132        3.622569   1.000000
  133        3.632465   1.000000
  134        3.649074   1.000000
  135        3.660831   1.000000
  136        3.664592   1.000000
  137        3.672916   1.000000
  138        3.692178   1.000000
  139        3.696969   1.000000
  140        3.708084   1.000000
  141        3.717754   1.000000
  142        3.725059   1.000000
  143        3.734133   1.000000
  144        3.748366   1.000000
  145        3.760858   1.000000
  146        3.787024   1.000000
  147        3.810838   1.000000
  148        3.814262   1.000000
  149        3.830867   1.000000
  150        3.841631   1.000000
  151        3.843808   1.000000
  152        3.864683   1.000000
  153        3.868464   1.000000
  154        3.881210   1.000000
  155        3.887258   1.000000
  156        3.920711   1.000000
  157        3.929760   1.000000
  158        3.941448   1.000000
  159        3.967953   1.000000
  160        3.979584   1.000000
  161        3.988636   1.000000
  162        4.015184   1.000000
  163        4.045319   1.000000
  164        4.072491   1.000000
  165        4.080835   1.000000
  166        4.105549   1.000000
  167        4.112465   1.000000
  168        4.124884   1.000000
  169        4.151082   1.000000
  170        4.165303   1.000000
  171        4.196878   1.000000
  172        4.235681   1.000000
  173        4.244133   1.000000
  174        4.272522   1.000000
  175        4.297541   1.000000
  176        4.333716   1.000000
  177        4.344596   1.000000
  178        4.384209   1.000000
  179        4.393966   1.000000
  180        4.406623   1.000000
  181        4.412334   1.000000
  182        4.419281   1.000000
  183        4.427436   1.000000
  184        4.431933   1.000000
  185        4.437485   1.000000
  186        4.446445   1.000000
  187        4.453937   1.000000
  188        4.462418   1.000000
  189        4.471909   1.000000
  190        4.487313   1.000000
  191        4.495777   1.000000
  192        4.511982   1.000000
  193        4.523490   1.000000
  194        4.534778   1.000000
  195        4.541379   1.000000
  196        4.548754   1.000000
  197        4.575916   1.000000
  198        4.579037   1.000000
  199        4.587632   1.000000
  200        4.591259   1.000000
  201        4.596634   1.000000
  202        4.601442   1.000000
  203        4.610333   1.000000
  204        4.621926   1.000000
  205        4.635744   1.000000
  206        4.643894   1.000000
  207        4.649990   1.000000
  208        4.662369   1.000000
  209        4.670260   1.000000
  210        4.678642   1.000000
  211        4.691435   1.000000
  212        4.692919   1.000000
  213        4.704328   1.000000
  214        4.722909   1.000000
  215        4.733554   1.000000
  216        4.749463   1.000000
  217        4.762006   1.000000
  218        4.780341   1.000000
  219        4.790318   1.000000
  220        4.809738   1.000000
  221        4.825502   1.000000
  222        4.842157   1.000000
  223        4.857893   1.000000
  224        4.878990   1.000000
  225        4.903495   1.000000
  226        4.912228   1.000000
  227        4.924897   1.000000
  228        4.934515   1.000000
  229        4.944204   1.000000
  230        4.957290   1.000000
  231        4.961487   1.000000
  232        4.975255   1.000000
  233        4.984997   1.000000
  234        4.991828   1.000000
  235        5.001263   1.000000
  236        5.012948   1.000000
  237        5.026598   1.000000
  238        5.041886   1.000000
  239        5.049864   1.000000
  240        5.076982   1.000000
  241        5.089621   1.000000
  242        5.106773   1.000000
  243        5.124911   1.000000
  244        5.129827   1.000000
  245        5.138103   1.000000
  246        5.143546   1.000000
  247        5.152038   1.000000
  248        5.172528   1.000000
  249        5.183506   1.000000
  250        5.187038   1.000000
  251        5.195569   1.000000
  252        5.203487   1.000000
  253        5.207048   1.000000
  254        5.212199   1.000000
  255        5.220725   1.000000
  256        5.227324   1.000000
  257        5.237492   1.000000
  258        5.245992   1.000000
  259        5.251420   1.000000
  260        5.255954   1.000000
  261        5.268041   1.000000
  262        5.272331   1.000000
  263        5.277111   1.000000
  264        5.283895   1.000000
  265        5.287057   1.000000
  266        5.295419   1.000000
  267        5.301412   1.000000
  268        5.304449   1.000000
  269        5.316344   1.000000
  270        5.324568   1.000000
  271        5.331518   1.000000
  272        5.335585   1.000000
  273        5.337984   1.000000
  274        5.346147   1.000000
  275        5.356847   1.000000
  276        5.362226   1.000000
  277        5.367852   1.000000
  278        5.377611   1.000000
  279        5.381264   1.000000
  280        5.391840   1.000000
  281        5.393738   1.000000
  282        5.401002   1.000000
  283        5.406326   1.000000
  284        5.417539   1.000000
  285        5.422554   1.000000
  286        5.426975   1.000000
  287        5.428841   1.000000
  288        5.436712   1.000000
  289        5.440555   1.000000
  290        5.448290   1.000000
  291        5.457903   1.000000
  292        5.465114   1.000000
  293        5.472580   1.000000
  294        5.479797   1.000000
  295        5.489556   1.000000
  296        5.493493   1.000000
  297        5.505554   1.000000
  298        5.513796   1.000000
  299        5.515844   1.000000
  300        5.533282   1.000000
  301        5.537328   1.000000
  302        5.544033   1.000000
  303        5.550021   1.000000
  304        5.555829   1.000000
  305        5.569667   1.000000
  306        5.577773   1.000000
  307        5.597373   1.000000
  308        5.605953   1.000000
  309        5.630837   1.000000
  310        5.633744   1.000000
  311        5.644639   1.000000
  312        5.655137   1.000000
  313        5.671535   1.000000
  314        5.684689   1.000000
  315        5.694660   1.000000
  316        5.702043   1.000000
  317        5.722508   1.000000
  318        5.733087   1.000000
  319        5.740161   1.000000
  320        5.744383   1.000000
  321        5.755126   1.000000
  322        5.763809   1.000000
  323        5.769229   1.000000
  324        5.776653   1.000000
  325        5.785961   1.000000
  326        5.794909   1.000000
  327        5.802689   1.000000
  328        5.817389   1.000000
  329        5.821704   1.000000
  330        5.834324   1.000000
  331        5.838531   1.000000
  332        5.846283   1.000000
  333        5.853761   1.000000
  334        5.870630   1.000000
  335        5.882513   1.000000
  336        5.892079   1.000000
  337        5.897509   1.000000
  338        5.905986   1.000000
  339        5.917030   1.000000
  340        5.921039   1.000000
  341        5.928787   1.000000
  342        5.943562   1.000000
  343        5.947480   1.000000
  344        5.959053   1.000000
  345        5.964615   1.000000
  346        5.979079   1.000000
  347        5.985377   1.000000
  348        5.991427   1.000000
  349        5.997286   1.000000
  350        6.007652   1.000000
  351        6.017025   1.000000
  352        6.029335   1.000000
  353        6.038132   1.000000
  354        6.055172   1.000000
  355        6.065734   1.000000
  356        6.078577   1.000000
  357        6.097299   1.000000
  358        6.123976   1.000000
  359        6.128973   1.000000
  360        6.142852   1.000000
  361        6.153469   1.000000
  362        6.199044   1.000001
  363        6.211126   1.000002
  364        6.219505   1.000002
  365        6.233338   1.000003
  366        6.248644   1.000006
  367        6.259801   1.000008
  368        6.279321   1.000016
  369        6.320894   1.000054
  370        6.323840   1.000059
  371        6.337039   1.000086
  372        6.352470   1.000132
  373        6.359521   1.000160
  374        6.369099   1.000206
  375        6.372733   1.000227
  376        6.383023   1.000296
  377        6.391488   1.000367
  378        6.395763   1.000408
  379        6.406252   1.000528
  380        6.431902   1.000966
  381        6.446439   1.001337
  382        6.451502   1.001493
  383        6.464869   1.001984
  384        6.481657   1.002793
  385        6.497777   1.003817
  386        6.517218   1.005444
  387        6.530445   1.006837
  388        6.551338   1.009569
  389        6.562792   1.011360
  390        6.583281   1.015082
  391        6.596700   1.017847
  392        6.603429   1.019313
  393        6.610893   1.020989
  394        6.627200   1.024746
  395        6.637095   1.027012
  396        6.655884   1.031007
  397        6.665962   1.032814
  398        6.677707   1.034437
  399        6.684756   1.035082
  400        6.693154   1.035445
  401        6.713221   1.034013
  402        6.732070   1.028744
  403        6.736588   1.026781
  404        6.750761   1.018564
  405        6.762759   1.008881
  406        6.774596   0.996573
  407        6.781679   0.987791
  408        6.791333   0.974008
  409        6.798532   0.962310
  410        6.803646   0.953240
  411        6.807554   0.945877
  412        6.812063   0.936909
  413        6.824000   0.910702
  414        6.836895   0.878350
  415        6.844166   0.858278
  416        6.859705   0.811113
  417        6.876915   0.752574
  418        6.887742   0.712754
  419        6.903268   0.652325
  420        6.910513   0.623039
  421        6.918415   0.590506
  422        6.933866   0.525697
  423        6.941867   0.491852
  424        6.957621   0.425514
  425        6.975627   0.351636
  426        6.983984   0.318557
  427        6.996568   0.270711
  428        7.006263   0.235745
  429        7.012932   0.212772
  430        7.024641   0.174762
  431        7.041904   0.124561
  432        7.047437   0.110017
  433        7.050407   0.102527
  434        7.063964   0.071166
  435        7.076819   0.045697
  436        7.086027   0.029952
  437        7.108148   0.000187
  438        7.119347  -0.010879
  439        7.126741  -0.016852
  440        7.138521  -0.024374
  441        7.146212  -0.028082
  442        7.154571  -0.031148
  443        7.160615  -0.032796
  444        7.185170  -0.035458
  445        7.188281  -0.035415
  446        7.197462  -0.034900
  447        7.205552  -0.034035
  448        7.210490  -0.033350
  449        7.215099  -0.032620
  450        7.217428  -0.032222
  451        7.221698  -0.031447
  452        7.228511  -0.030107
  453        7.234578  -0.028829
  454        7.237619  -0.028166
  455        7.247623  -0.025911
  456        7.253892  -0.024466
  457        7.261175  -0.022781
  458        7.267157  -0.021407
  459        7.281730  -0.018159
  460        7.287249  -0.016985
  461        7.298817  -0.014649
  462        7.307935  -0.012943
  463        7.317308  -0.011324
  464        7.332809  -0.008956
  465        7.343150  -0.007588
  466        7.352587  -0.006483
  467        7.362898  -0.005422
  468        7.369528  -0.004816
  469        7.379571  -0.004003
  470        7.384839  -0.003624
  471        7.394521  -0.003005
  472        7.405780  -0.002400
  473        7.418044  -0.001862
  474        7.426033  -0.001571
  475        7.434005  -0.001321
  476        7.440060  -0.001155
  477        7.449393  -0.000935
  478        7.460003  -0.000731
  479        7.474067  -0.000522
  480        7.480989  -0.000441
  481        7.494797  -0.000312
  482        7.502354  -0.000257
  483        7.514468  -0.000187
  484        7.522474  -0.000151
  485        7.533144  -0.000113
  486        7.538958  -0.000096
  487        7.549145  -0.000072
  488        7.557799  -0.000056
  489        7.561314  -0.000051
  490        7.569253  -0.000040
  491        7.578968  -0.000030
  492        7.585928  -0.000024
  493        7.591568  -0.000021
  494        7.594373  -0.000019
  495        7.597918  -0.000017
  496        7.610630  -0.000011
  497        7.624344  -0.000007
  498        7.630167  -0.000006
  499        7.640438  -0.000004
  500        7.650655  -0.000003
  501        7.657479  -0.000002
  502        7.663747  -0.000002
  503        7.667206  -0.000002
  504        7.676623  -0.000001
  505        7.683161  -0.000001
  506        7.694825  -0.000001
  507        7.701698  -0.000001
  508        7.709871  -0.000000
  509        7.712889  -0.000000
  510        7.724968  -0.000000
  511        7.732306  -0.000000
  512        7.750816  -0.000000
  513        7.763164  -0.000000
 
  0.3750000E+00  0.1250000E+00  0.1250000E+00  0.3125000E-01
    1       -6.920647   1.000000
    2       -1.536989   1.000000
    3       -1.174600   1.000000
    4       -0.738140   1.000000
    5       -0.599655   1.000000
    6       -0.498501   1.000000
    7       -0.272518   1.000000
    8       -0.045140   1.000000
    9        0.049059   1.000000
   10        0.179682   1.000000
   11        0.351783   1.000000
   12        0.440531   1.000000
   13        0.610044   1.000000
   14        0.662147   1.000000
   15        0.852952   1.000000
   16        0.939533   1.000000
   17        1.105866   1.000000
   18        1.166585   1.000000
   19        1.196363   1.000000
   20        1.349886   1.000000
   21        1.539079   1.000000
   22        1.584505   1.000000
   23        1.648643   1.000000
   24        1.704004   1.000000
   25        1.749119   1.000000
   26        1.868058   1.000000
   27        1.957031   1.000000
   28        2.025193   1.000000
   29        2.029057   1.000000
   30        2.038142   1.000000
   31        2.080231   1.000000
   32        2.101064   1.000000
   33        2.131191   1.000000
   34        2.143826   1.000000
   35        2.168647   1.000000
   36        2.175838   1.000000
   37        2.196128   1.000000
   38        2.239260   1.000000
   39        2.248594   1.000000
   40        2.254650   1.000000
   41        2.281103   1.000000
   42        2.297650   1.000000
   43        2.301404   1.000000
   44        2.342429   1.000000
   45        2.364626   1.000000
   46        2.376604   1.000000
   47        2.388759   1.000000
   48        2.431807   1.000000
   49        2.440950   1.000000
   50        2.453217   1.000000
   51        2.526240   1.000000
   52        2.543930   1.000000
   53        2.563704   1.000000
   54        2.611399   1.000000
   55        2.619538   1.000000
   56        2.639654   1.000000
   57        2.650506   1.000000
   58        2.669711   1.000000
   59        2.693232   1.000000
   60        2.697742   1.000000
   61        2.706342   1.000000
   62        2.720699   1.000000
   63        2.736787   1.000000
   64        2.750701   1.000000
   65        2.768711   1.000000
   66        2.775475   1.000000
   67        2.798566   1.000000
   68        2.809291   1.000000
   69        2.822021   1.000000
   70        2.846187   1.000000
   71        2.851085   1.000000
   72        2.858471   1.000000
   73        2.864984   1.000000
   74        2.883370   1.000000
   75        2.891064   1.000000
   76        2.900522   1.000000
   77        2.905114   1.000000
   78        2.923970   1.000000
   79        2.928229   1.000000
   80        2.949178   1.000000
   81        2.966940   1.000000
   82        2.988726   1.000000
   83        2.989838   1.000000
   84        3.013651   1.000000
   85        3.027035   1.000000
   86        3.038665   1.000000
   87        3.048914   1.000000
   88        3.057026   1.000000
   89        3.064348   1.000000
   90        3.073111   1.000000
   91        3.087425   1.000000
   92        3.095819   1.000000
   93        3.119385   1.000000
   94        3.126952   1.000000
   95        3.138949   1.000000
   96        3.151967   1.000000
   97        3.168295   1.000000
   98        3.182794   1.000000
   99        3.193985   1.000000
  100        3.217194   1.000000
  101        3.235605   1.000000
  102        3.254714   1.000000
  103        3.272821   1.000000
  104        3.283523   1.000000
  105        3.290609   1.000000
  106        3.315339   1.000000
  107        3.331369   1.000000
  108        3.337796   1.000000
  109        3.346412   1.000000
  110        3.354895   1.000000
  111        3.362845   1.000000
  112        3.373450   1.000000
  113        3.387390   1.000000
  114        3.404997   1.000000
  115        3.414019   1.000000
  116        3.421688   1.000000
  117        3.441051   1.000000
  118        3.455703   1.000000
  119        3.465756   1.000000
  120        3.477051   1.000000
  121        3.491096   1.000000
  122        3.517956   1.000000
  123        3.527430   1.000000
  124        3.536031   1.000000
  125        3.552202   1.000000
  126        3.573297   1.000000
  127        3.586623   1.000000
  128        3.605368   1.000000
  129        3.616548   1.000000
  130        3.624681   1.000000
  131        3.641397   1.000000
  132        3.661690   1.000000
  133        3.668666   1.000000
  134        3.677604   1.000000
  135        3.689476   1.000000
  136        3.694844   1.000000
  137        3.707294   1.000000
  138        3.714805   1.000000
  139        3.730081   1.000000
  140        3.745362   1.000000
  141        3.749151   1.000000
  142        3.764832   1.000000
  143        3.778647   1.000000
  144        3.791337   1.000000
  145        3.804167   1.000000
  146        3.815528   1.000000
  147        3.825042   1.000000
  148        3.837649   1.000000
  149        3.856730   1.000000
  150        3.869490   1.000000
  151        3.888679   1.000000
  152        3.922424   1.000000
  153        3.937632   1.000000
  154        3.948231   1.000000
  155        3.957393   1.000000
  156        3.978068   1.000000
  157        4.001716   1.000000
  158        4.015826   1.000000
  159        4.027259   1.000000
  160        4.044064   1.000000
  161        4.051632   1.000000
  162        4.060805   1.000000
  163        4.063864   1.000000
  164        4.086436   1.000000
  165        4.098256   1.000000
  166        4.108347   1.000000
  167        4.116933   1.000000
  168        4.129562   1.000000
  169        4.139960   1.000000
  170        4.154423   1.000000
  171        4.174096   1.000000
  172        4.184607   1.000000
  173        4.198340   1.000000
  174        4.215882   1.000000
  175        4.225376   1.000000
  176        4.252172   1.000000
  177        4.256857   1.000000
  178        4.278197   1.000000
  179        4.294306   1.000000
  180        4.302163   1.000000
  181        4.322142   1.000000
  182        4.337243   1.000000
  183        4.351225   1.000000
  184        4.361157   1.000000
  185        4.394041   1.000000
  186        4.407309   1.000000
  187        4.416919   1.000000
  188        4.438970   1.000000
  189        4.446869   1.000000
  190        4.457884   1.000000
  191        4.472771   1.000000
  192        4.477143   1.000000
  193        4.495507   1.000000
  194        4.508784   1.000000
  195        4.527121   1.000000
  196        4.562557   1.000000
  197        4.568840   1.000000
  198        4.577421   1.000000
  199        4.588235   1.000000
  200        4.599259   1.000000
  201        4.611829   1.000000
  202        4.629416   1.000000
  203        4.649181   1.000000
  204        4.652074   1.000000
  205        4.661434   1.000000
  206        4.672077   1.000000
  207        4.682537   1.000000
  208        4.692872   1.000000
  209        4.702693   1.000000
  210        4.715040   1.000000
  211        4.725793   1.000000
  212        4.732210   1.000000
  213        4.748250   1.000000
  214        4.752860   1.000000
  215        4.776015   1.000000
  216        4.787803   1.000000
  217        4.797950   1.000000
  218        4.809094   1.000000
  219        4.816147   1.000000
  220        4.831635   1.000000
  221        4.842592   1.000000
  222        4.851625   1.000000
  223        4.866512   1.000000
  224        4.875980   1.000000
  225        4.895397   1.000000
  226        4.911061   1.000000
  227        4.926830   1.000000
  228        4.939747   1.000000
  229        4.946536   1.000000
  230        4.967301   1.000000
  231        4.977973   1.000000
  232        4.991066   1.000000
  233        5.001233   1.000000
  234        5.010623   1.000000
  235        5.015877   1.000000
  236        5.023730   1.000000
  237        5.032849   1.000000
  238        5.034947   1.000000
  239        5.046018   1.000000
  240        5.050174   1.000000
  241        5.061244   1.000000
  242        5.064510   1.000000
  243        5.077279   1.000000
  244        5.086856   1.000000
  245        5.092621   1.000000
  246        5.099517   1.000000
  247        5.107287   1.000000
  248        5.117617   1.000000
  249        5.127730   1.000000
  250        5.134661   1.000000
  251        5.143568   1.000000
  252        5.155548   1.000000
  253        5.162901   1.000000
  254        5.176748   1.000000
  255        5.183859   1.000000
  256        5.186820   1.000000
  257        5.194822   1.000000
  258        5.204586   1.000000
  259        5.213178   1.000000
  260        5.220333   1.000000
  261        5.240326   1.000000
  262        5.250569   1.000000
  263        5.259352   1.000000
  264        5.270554   1.000000
  265        5.282999   1.000000
  266        5.297403   1.000000
  267        5.302712   1.000000
  268        5.317532   1.000000
  269        5.320593   1.000000
  270        5.328892   1.000000
  271        5.341579   1.000000
  272        5.347229   1.000000
  273        5.356424   1.000000
  274        5.361168   1.000000
  275        5.365632   1.000000
  276        5.378564   1.000000
  277        5.390727   1.000000
  278        5.393439   1.000000
  279        5.400396   1.000000
  280        5.412450   1.000000
  281        5.420854   1.000000
  282        5.426347   1.000000
  283        5.434023   1.000000
  284        5.446940   1.000000
  285        5.451475   1.000000
  286        5.459811   1.000000
  287        5.466616   1.000000
  288        5.469675   1.000000
  289        5.481453   1.000000
  290        5.490324   1.000000
  291        5.495601   1.000000
  292        5.508201   1.000000
  293        5.517466   1.000000
  294        5.521548   1.000000
  295        5.530379   1.000000
  296        5.540335   1.000000
  297        5.548521   1.000000
  298        5.558467   1.000000
  299        5.562881   1.000000
  300        5.570629   1.000000
  301        5.572745   1.000000
  302        5.583346   1.000000
  303        5.591934   1.000000
  304        5.597106   1.000000
  305        5.604277   1.000000
  306        5.607811   1.000000
  307        5.618682   1.000000
  308        5.621368   1.000000
  309        5.627714   1.000000
  310        5.634367   1.000000
  311        5.642786   1.000000
  312        5.654233   1.000000
  313        5.657265   1.000000
  314        5.661881   1.000000
  315        5.671094   1.000000
  316        5.680664   1.000000
  317        5.685347   1.000000
  318        5.693482   1.000000
  319        5.704298   1.000000
  320        5.711412   1.000000
  321        5.714744   1.000000
  322        5.725013   1.000000
  323        5.728640   1.000000
  324        5.740626   1.000000
  325        5.752946   1.000000
  326        5.762441   1.000000
  327        5.769069   1.000000
  328        5.774452   1.000000
  329        5.786059   1.000000
  330        5.799008   1.000000
  331        5.809246   1.000000
  332        5.824481   1.000000
  333        5.844014   1.000000
  334        5.854100   1.000000
  335        5.863412   1.000000
  336        5.874879   1.000000
  337        5.885749   1.000000
  338        5.906513   1.000000
  339        5.914963   1.000000
  340        5.923515   1.000000
  341        5.933927   1.000000
  342        5.944063   1.000000
  343        5.965266   1.000000
  344        5.968262   1.000000
  345        5.994128   1.000000
  346        6.006734   1.000000
  347        6.016969   1.000000
  348        6.038188   1.000000
  349        6.048758   1.000000
  350        6.083383   1.000000
  351        6.099278   1.000000
  352        6.127621   1.000000
  353        6.140887   1.000000
  354        6.158333   1.000000
  355        6.173521   1.000000
  356        6.187248   1.000001
  357        6.201149   1.000001
  358        6.215335   1.000002
  359        6.229160   1.000003
  360        6.237986   1.000004
  361        6.249153   1.000006
  362        6.275875   1.000014
  363        6.285661   1.000019
  364        6.288329   1.000021
  365        6.300393   1.000030
  366        6.313618   1.000044
  367        6.321640   1.000055
  368        6.330798   1.000072
  369        6.341420   1.000097
  370        6.345357   1.000109
  371        6.358360   1.000155
  372        6.370057   1.000211
  373        6.374449   1.000237
  374        6.381039   1.000281
  375        6.398282   1.000434
  376        6.398704   1.000439
  377        6.409867   1.000576
  378        6.416374   1.000673
  379        6.430351   1.000932
  380        6.439958   1.001158
  381        6.443125   1.001243
  382        6.451346   1.001488
  383        6.456234   1.001653
  384        6.465794   1.002023
  385        6.473246   1.002359
  386        6.484304   1.002944