 running on   12 total cores
 distrk:  each k-point on   12 cores,    1 groups
 distr:  one band on    4 cores,    3 groups
 using from now: INCAR     
 vasp.5.4.1 24Jun15 (build Jun 21 2019 17:19:10) complex                        
  
 POSCAR found type information on POSCAR  Fe Te
 POSCAR found :  2 types and     107 ions
 scaLAPACK will be used
 LDA part: xc-table for Pade appr. of Perdew
 POSCAR found type information on POSCAR  Fe Te
 POSCAR found :  2 types and     107 ions
 POSCAR, INCAR and KPOINTS ok, starting setup
 FFT: planning ...
 WAVECAR not read
 entering main loop
       N       E                     dE             d eps       ncg     rms          rms(c)
DAV:   1     0.750421030808E+04    0.75042E+04   -0.28527E+05 32913   0.182E+03
DAV:   2    -0.132690878033E+02   -0.75175E+04   -0.73488E+04 32832   0.456E+02
DAV:   3    -0.831689934980E+03   -0.81842E+03   -0.69990E+03 32913   0.191E+02
DAV:   4    -0.100637996656E+04   -0.17469E+03   -0.16377E+03 59940   0.570E+01
DAV:   5    -0.102123488501E+04   -0.14855E+02   -0.14040E+02 52857   0.217E+01    0.922E+01
RMM:   6    -0.881160048010E+03    0.14007E+03   -0.14101E+03 32832   0.112E+02    0.468E+01
RMM:   7    -0.116630179308E+04   -0.28514E+03   -0.52982E+02 41415   0.419E+01    0.174E+02
RMM:   8    -0.889006892726E+03    0.27729E+03   -0.23920E+02 32832   0.451E+01    0.641E+01
RMM:   9    -0.861550611370E+03    0.27456E+02   -0.63302E+01 32946   0.180E+01    0.190E+01
RMM:  10    -0.863737226027E+03   -0.21866E+01   -0.39260E+01 46088   0.823E+00    0.183E+01
RMM:  11    -0.863546098936E+03    0.19113E+00   -0.11781E+01 38280   0.595E+00    0.175E+01
RMM:  12    -0.862292029087E+03    0.12541E+01   -0.43583E+00 38346   0.381E+00    0.987E+00
RMM:  13    -0.862120971389E+03    0.17106E+00   -0.25304E+00 41328   0.256E+00    0.100E+01
RMM:  14    -0.861657320207E+03    0.46365E+00   -0.15337E+00 34511   0.293E+00    0.806E+00
RMM:  15    -0.861603125080E+03    0.54195E-01   -0.10860E+00 44735   0.131E+00    0.751E+00
RMM:  16    -0.861349062252E+03    0.25406E+00   -0.44345E-01 33974   0.170E+00    0.470E+00
RMM:  17    -0.861275475405E+03    0.73587E-01   -0.23230E-01 35914   0.985E-01    0.279E+00
RMM:  18    -0.861297400354E+03   -0.21925E-01   -0.29244E-01 42871   0.829E-01    0.310E+00
RMM:  19    -0.861254504557E+03    0.42896E-01   -0.11597E-01 36045   0.684E-01    0.122E+00
RMM:  20    -0.861256532114E+03   -0.20276E-02   -0.82998E-02 48621   0.300E-01    0.116E+00
RMM:  21    -0.861256521014E+03    0.11099E-04   -0.23945E-02 36932   0.320E-01    0.125E+00
RMM:  22    -0.861253761862E+03    0.27592E-02   -0.13373E-02 36609   0.235E-01    0.100E+00
RMM:  23    -0.861252899538E+03    0.86232E-03   -0.82510E-03 43141   0.142E-01    0.913E-01
RMM:  24    -0.861249165342E+03    0.37342E-02   -0.35622E-03 34380   0.149E-01    0.353E-01
RMM:  25    -0.861249003160E+03    0.16218E-03   -0.26353E-03 47446   0.583E-02    0.217E-01
RMM:  26    -0.861248949485E+03    0.53676E-04   -0.17773E-03 43091   0.581E-02    0.179E-01
RMM:  27    -0.861248827263E+03    0.12222E-03   -0.61462E-04 39905   0.428E-02    0.959E-02
RMM:  28    -0.861248821668E+03    0.55949E-05   -0.21196E-04 46032   0.217E-02    0.986E-02
RMM:  29    -0.861248755673E+03    0.65995E-04   -0.14175E-05 34552   0.211E-02    0.335E-02
RMM:  30    -0.861248746358E+03    0.93146E-05    0.17908E-05 45058   0.892E-03    0.273E-02
RMM:  31    -0.861248731493E+03    0.14865E-04    0.27238E-05 37495   0.722E-03    0.290E-02
RMM:  32    -0.861248719085E+03    0.12407E-04    0.35226E-05 29034   0.586E-03    0.925E-03
RMM:  33    -0.861248714931E+03    0.41546E-05    0.33779E-05 22297   0.309E-03    0.101E-02
RMM:  34    -0.861248710013E+03    0.49176E-05    0.31001E-05 21284   0.401E-03    0.418E-03
RMM:  35    -0.861248706973E+03    0.30399E-05    0.28650E-05 19961   0.208E-03    0.291E-03
RMM:  36    -0.861248704704E+03    0.22697E-05    0.25142E-05 19580   0.193E-03    0.417E-03
RMM:  37    -0.861248702340E+03    0.23639E-05    0.24446E-05 19336   0.145E-03    0.121E-03
RMM:  38    -0.861248700149E+03    0.21903E-05    0.22174E-05 18001   0.904E-04    0.158E-03
RMM:  39    -0.861248698486E+03    0.16636E-05    0.18923E-05 17862   0.981E-04    0.758E-04
RMM:  40    -0.861248696678E+03    0.18078E-05    0.18375E-05 13194   0.578E-04    0.655E-04
RMM:  41    -0.861248695178E+03    0.14996E-05    0.16885E-05 13486   0.655E-04    0.617E-04
RMM:  42    -0.861248693788E+03    0.13903E-05    0.14294E-05  9606   0.425E-04    0.256E-04
RMM:  43    -0.861248692513E+03    0.12754E-05    0.12838E-05  9588   0.463E-04    0.374E-04
RMM:  44    -0.861248691240E+03    0.12728E-05    0.12902E-05  8230   0.391E-04    0.194E-04
RMM:  45    -0.861248690167E+03    0.10726E-05    0.10572E-05  7705   0.396E-04    0.222E-04
RMM:  46    -0.861248689186E+03    0.98100E-06    0.96944E-06  7310   0.367E-04
   1 F= -.86124869E+03 E0= -.86124291E+03  d E =-.861249E+03
 curvature:   0.00 expect dE= 0.000E+00 dE for cont linesearch  0.000E+00
 trial: gam= 0.00000 g(F)=  0.238E+01 g(S)=  0.000E+00 ort = 0.000E+00 (trialstep = 0.100E+01)
 search vector abs. value=  0.238E+01
 bond charge predicted
       N       E                     dE             d eps       ncg     rms          rms(c)
DAV:   1    -0.862271247466E+03   -0.10226E+01   -0.46981E+02 32832   0.312E+01    0.115E+01
RMM:   2    -0.910810204637E+03   -0.48539E+02   -0.22992E+02 38745   0.334E+01    0.635E+01
RMM:   3    -0.865387518836E+03    0.45423E+02   -0.41165E+01 32832   0.197E+01    0.248E+01
RMM:   4    -0.863000973552E+03    0.23865E+01   -0.62191E+00 36195   0.448E+00    0.111E+01
RMM:   5    -0.862924750753E+03    0.76223E-01   -0.28570E+00 46956   0.189E+00    0.758E+00
RMM:   6    -0.862825907058E+03    0.98844E-01   -0.23137E+00 42393   0.222E+00    0.494E+00
RMM:   7    -0.862883950926E+03   -0.58044E-01   -0.79253E-01 46895   0.120E+00    0.607E+00
RMM:   8    -0.862692446700E+03    0.19150E+00   -0.24824E-01 33258   0.117E+00    0.249E+00
RMM:   9    -0.862689471749E+03    0.29750E-02   -0.21631E-01 37825   0.870E-01    0.221E+00
RMM:  10    -0.862750083974E+03   -0.60612E-01   -0.35255E-01 42984   0.949E-01    0.406E+00
RMM:  11    -0.862694329567E+03    0.55754E-01   -0.98182E-02 33018   0.746E-01    0.247E+00
RMM:  12    -0.862684349633E+03    0.99799E-02   -0.67290E-02 44568   0.368E-01    0.214E+00
RMM:  13    -0.862663729277E+03    0.20620E-01   -0.21704E-02 35042   0.307E-01    0.950E-01
RMM:  14    -0.862662715998E+03    0.10133E-02   -0.18159E-02 46821   0.153E-01    0.638E-01
RMM:  15    -0.862661548415E+03    0.11676E-02   -0.93421E-03 43087   0.139E-01    0.342E-01
RMM:  16    -0.862661266969E+03    0.28145E-03   -0.39297E-03 44777   0.875E-02    0.168E-01
RMM:  17    -0.862661498986E+03   -0.23202E-03   -0.15211E-03 45186   0.508E-02    0.270E-01
RMM:  18    -0.862661283339E+03    0.21565E-03   -0.31037E-04 35816   0.383E-02    0.182E-01
RMM:  19    -0.862661254202E+03    0.29136E-04   -0.18896E-04 44417   0.182E-02    0.166E-01
RMM:  20    -0.862661171783E+03    0.82419E-04   -0.12706E-04 35852   0.231E-02    0.113E-01
RMM:  21    -0.862661118112E+03    0.53672E-04   -0.16617E-04 40693   0.220E-02    0.313E-02
RMM:  22    -0.862661122195E+03   -0.40834E-05   -0.62346E-05 47918   0.895E-03    0.299E-02
RMM:  23    -0.862661120557E+03    0.16387E-05   -0.23011E-05 40014   0.771E-03    0.219E-02
RMM:  24    -0.862661119215E+03    0.13413E-05   -0.37161E-06 27877   0.453E-03    0.164E-02
RMM:  25    -0.862661118667E+03    0.54797E-06   -0.13420E-06 20850   0.408E-03
   2 F= -.86266112E+03 E0= -.86265851E+03  d E =-.141243E+01
 trial-energy change:   -1.412429  1 .order   -1.423919   -2.379692   -0.468146
 step:   1.2565(harm=  1.2449)  dis= 0.08918  next Energy=  -862.720971 (dE=-0.147E+01)
 bond charge predicted
       N       E                     dE             d eps       ncg     rms          rms(c)
DAV:   1    -0.862704836405E+03   -0.43717E-01   -0.29988E+01 32886   0.774E+00    0.214E+00
RMM:   2    -0.864823319955E+03   -0.21185E+01   -0.61089E+00 35138   0.571E+00    0.182E+01
RMM:   3    -0.862770029541E+03    0.20533E+01   -0.14054E+00 32832   0.367E+00    0.318E+00
RMM:   4    -0.862723838702E+03    0.46191E-01   -0.29393E-01 44435   0.721E-01    0.107E+00
RMM:   5    -0.862739244146E+03   -0.15405E-01   -0.12693E-01 42826   0.538E-01    0.189E+00
RMM:   6    -0.862722780965E+03    0.16463E-01   -0.50999E-02 36034   0.436E-01    0.722E-01
RMM:   7    -0.862728595183E+03   -0.58142E-02   -0.41692E-02 42838   0.313E-01    0.126E+00
RMM:   8    -0.862722389729E+03    0.62055E-02   -0.11478E-02 33285   0.245E-01    0.739E-01
RMM:   9    -0.862720119575E+03    0.22702E-02   -0.68143E-03 36888   0.161E-01    0.312E-01
RMM:  10    -0.862720612427E+03   -0.49285E-03   -0.48292E-03 41674   0.112E-01    0.430E-01
RMM:  11    -0.862719674064E+03    0.93836E-03   -0.13830E-03 34233   0.895E-02    0.103E-01
RMM:  12    -0.862719740483E+03   -0.66418E-04   -0.10945E-03 46329   0.395E-02    0.114E-01
RMM:  13    -0.862719746002E+03   -0.55189E-05   -0.28874E-04 38941   0.270E-02    0.114E-01
RMM:  14    -0.862719685876E+03    0.60126E-04   -0.10993E-04 35166   0.227E-02    0.367E-02
RMM:  15    -0.862719702689E+03   -0.16814E-04   -0.11873E-04 43772   0.161E-02    0.642E-02
RMM:  16    -0.862719685985E+03    0.16704E-04   -0.30626E-05 34825   0.127E-02    0.281E-02
RMM:  17    -0.862719686016E+03   -0.31272E-07   -0.22869E-05 41060   0.694E-03    0.255E-02
RMM:  18    -0.862719685346E+03    0.67058E-06   -0.90858E-06 32553   0.633E-03
   3 F= -.86271969E+03 E0= -.86271695E+03  d E =-.147100E+01
 curvature:  -0.62 expect dE=-0.672E-01 dE for cont linesearch -0.668E-04
 trial: gam= 0.05219 g(F)=  0.108E+00 g(S)=  0.000E+00 ort =-0.160E-01 (trialstep = 0.105E+01)
 search vector abs. value=  0.113E+00
 bond charge predicted
       N       E                     dE             d eps       ncg     rms          rms(c)
DAV:   1    -0.862793689921E+03   -0.74004E-01   -0.23245E+01 32832   0.690E+00    0.180E+00
RMM:   2    -0.865112058613E+03   -0.23184E+01   -0.49774E+00 36895   0.447E+00    0.206E+01
RMM:   3    -0.862835651430E+03    0.22764E+01   -0.12498E+00 32832   0.321E+00    0.252E+00
RMM:   4    -0.862800799539E+03    0.34852E-01   -0.47394E-01 43849   0.741E-01    0.102E+00
RMM:   5    -0.862815652300E+03   -0.14853E-01   -0.15918E-01 44823   0.457E-01    0.161E+00
RMM:   6    -0.862804210882E+03    0.11441E-01   -0.42222E-02 36803   0.371E-01    0.563E-01
RMM:   7    -0.862809004880E+03   -0.47940E-02   -0.34117E-02 43846   0.267E-01    0.111E+00
RMM:   8    -0.862803240560E+03    0.57643E-02   -0.76973E-03 33272   0.204E-01    0.573E-01
RMM:   9    -0.862801918615E+03    0.13219E-02   -0.54066E-03 34250   0.164E-01    0.295E-01
RMM:  10    -0.862803042463E+03   -0.11238E-02   -0.66661E-03 41260   0.134E-01    0.531E-01
RMM:  11    -0.862801617789E+03    0.14247E-02   -0.18295E-03 33307   0.107E-01    0.120E-01
RMM:  12    -0.862801677877E+03   -0.60088E-04   -0.12561E-03 47545   0.379E-02    0.125E-01
RMM:  13    -0.862801654853E+03    0.23024E-04   -0.26171E-04 38833   0.265E-02    0.979E-02
RMM:  14    -0.862801615527E+03    0.39326E-04   -0.10139E-04 37154   0.194E-02    0.440E-02
RMM:  15    -0.862801627091E+03   -0.11564E-04   -0.88158E-05 42204   0.149E-02    0.618E-02
RMM:  16    -0.862801610748E+03    0.16343E-04   -0.27713E-05 34374   0.124E-02    0.214E-02
RMM:  17    -0.862801612527E+03   -0.17792E-05   -0.24392E-05 42332   0.741E-03    0.252E-02
RMM:  18    -0.862801611576E+03    0.95162E-06   -0.62158E-06 28521   0.552E-03
   4 F= -.86280161E+03 E0= -.86279776E+03  d E =-.819262E-01
 trial-energy change:   -0.081926  1 .order   -0.081874   -0.112874   -0.050875
 step:   1.9140(harm=  1.9140)  dis= 0.03248  next Energy=  -862.822433 (dE=-0.103E+00)
 bond charge predicted
       N       E                     dE             d eps       ncg     rms          rms(c)
DAV:   1    -0.862817221847E+03   -0.15609E-01   -0.15650E+01 32850   0.566E+00    0.147E+00
RMM:   2    -0.864364531768E+03   -0.15473E+01   -0.33233E+00 36927   0.364E+00    0.169E+01
RMM:   3    -0.862845894279E+03    0.15186E+01   -0.83149E-01 32832   0.262E+00    0.206E+00
RMM:   4    -0.862821712855E+03    0.24181E-01   -0.32064E-01 43665   0.609E-01    0.824E-01
RMM:   5    -0.862831911641E+03   -0.10199E-01   -0.10880E-01 45770   0.368E-01    0.132E+00
RMM:   6    -0.862824130134E+03    0.77815E-02   -0.28056E-02 36842   0.300E-01    0.456E-01
RMM:   7    -0.862827707671E+03   -0.35775E-02   -0.23161E-02 43805   0.222E-01    0.954E-01
RMM:   8    -0.862823329479E+03    0.43782E-02   -0.51093E-03 33149   0.168E-01    0.439E-01
RMM:   9    -0.862822644564E+03    0.68492E-03   -0.40105E-03 35034   0.134E-01    0.256E-01
RMM:  10    -0.862823243191E+03   -0.59863E-03   -0.40334E-03 41519   0.104E-01    0.410E-01
RMM:  11    -0.862822406127E+03    0.83706E-03   -0.10787E-03 33543   0.809E-02    0.956E-02
RMM:  12    -0.862822445236E+03   -0.39110E-04   -0.79965E-04 46551   0.312E-02    0.102E-01
RMM:  13    -0.862822428870E+03    0.16366E-04   -0.16487E-04 38239   0.213E-02    0.797E-02
RMM:  14    -0.862822402999E+03    0.25871E-04   -0.67535E-05 37573   0.154E-02    0.359E-02
RMM:  15    -0.862822410176E+03   -0.71770E-05   -0.56417E-05 41781   0.123E-02    0.495E-02
RMM:  16    -0.862822399356E+03    0.10820E-04   -0.17610E-05 34133   0.101E-02    0.164E-02
RMM:  17    -0.862822401018E+03   -0.16618E-05   -0.15489E-05 38287   0.625E-03    0.219E-02
RMM:  18    -0.862822399482E+03    0.15361E-05   -0.35531E-06 23504   0.486E-03    0.107E-02
RMM:  19    -0.862822399091E+03    0.39067E-06   -0.14490E-06 18944   0.321E-03
   5 F= -.86282240E+03 E0= -.86281773E+03  d E =-.102714E+00
 curvature:  -1.01 expect dE=-0.118E-01 dE for cont linesearch -0.195E-06
 trial: gam= 0.12766 g(F)=  0.117E-01 g(S)=  0.000E+00 ort = 0.148E-03 (trialstep = 0.122E+01)
 search vector abs. value=  0.136E-01
 bond charge predicted
       N       E                     dE             d eps       ncg     rms          rms(c)
DAV:   1    -0.862829703326E+03   -0.73038E-02   -0.35164E+00 33498   0.267E+00    0.608E-01
RMM:   2    -0.863082171218E+03   -0.25247E+00   -0.55736E-01 36797   0.153E+00    0.685E+00
RMM:   3    -0.862837464383E+03    0.24471E+00   -0.13672E-01 32832   0.106E+00    0.915E-01
RMM:   4    -0.862832061815E+03    0.54026E-02   -0.50507E-02 42724   0.261E-01    0.327E-01
RMM:   5    -0.862834354353E+03   -0.22925E-02   -0.19235E-02 45747   0.166E-01    0.654E-01
RMM:   6    -0.862832404615E+03    0.19497E-02   -0.56222E-03 36532   0.136E-01    0.207E-01
RMM:   7    -0.862833104347E+03   -0.69973E-03   -0.47569E-03 44302   0.984E-02    0.423E-01
RMM:   8    -0.862832340840E+03    0.76351E-03   -0.12022E-03 33246   0.793E-02    0.226E-01
RMM:   9    -0.862832111453E+03    0.22939E-03   -0.70907E-04 33975   0.629E-02    0.109E-01
RMM:  10    -0.862832221470E+03   -0.11002E-03   -0.72459E-04 41051   0.443E-02    0.172E-01
RMM:  11    -0.862832074065E+03    0.14741E-03   -0.19317E-04 33697   0.334E-02    0.366E-02
RMM:  12    -0.862832080396E+03   -0.63314E-05   -0.14620E-04 46827   0.130E-02    0.358E-02
RMM:  13    -0.862832081361E+03   -0.96530E-06   -0.30557E-05 38349   0.879E-03    0.364E-02
RMM:  14    -0.862832075429E+03    0.59326E-05   -0.10537E-05 32288   0.689E-03    0.141E-02
RMM:  15    -0.862832076641E+03   -0.12127E-05   -0.86185E-06 32193   0.537E-03    0.198E-02
RMM:  16    -0.862832074874E+03    0.17678E-05   -0.27603E-06 20819   0.480E-03    0.655E-03
RMM:  17    -0.862832074987E+03   -0.11376E-06   -0.14518E-06 18738   0.286E-03
   6 F= -.86283207E+03 E0= -.86282745E+03  d E =-.967590E-02
 trial-energy change:   -0.009676  1 .order   -0.009651   -0.014323   -0.004979
 step:   1.8608(harm=  1.8760)  dis= 0.01178  next Energy=  -862.833374 (dE=-0.110E-01)
 bond charge predicted
       N       E                     dE             d eps       ncg     rms          rms(c)
DAV:   1    -0.862832776557E+03   -0.70168E-03   -0.95238E-01 33678   0.139E+00    0.317E-01
RMM:   2    -0.862901169916E+03   -0.68393E-01   -0.15250E-01 36816   0.796E-01    0.356E+00
RMM:   3    -0.862834831065E+03    0.66339E-01   -0.37101E-02 32836   0.554E-01    0.473E-01
RMM:   4    -0.862833409805E+03    0.14213E-02   -0.13785E-02 42931   0.135E-01    0.171E-01
RMM:   5    -0.862834030619E+03   -0.62081E-03   -0.52413E-03 45726   0.861E-02    0.339E-01
RMM:   6    -0.862833507051E+03    0.52357E-03   -0.14974E-03 36600   0.694E-02    0.111E-01
RMM:   7    -0.862833679702E+03   -0.17265E-03   -0.12624E-03 44222   0.509E-02    0.214E-01
RMM:   8    -0.862833484388E+03    0.19531E-03   -0.33046E-04 33246   0.414E-02    0.117E-01
RMM:   9    -0.862833423967E+03    0.60421E-04   -0.18559E-04 33950   0.324E-02    0.566E-02
RMM:  10    -0.862833454543E+03   -0.30576E-04   -0.19031E-04 40623   0.230E-02    0.907E-02
RMM:  11    -0.862833413085E+03    0.41458E-04   -0.51551E-05 33524   0.175E-02    0.182E-02
RMM:  12    -0.862833414651E+03   -0.15653E-05   -0.37335E-05 42447   0.660E-03    0.175E-02
RMM:  13    -0.862833415052E+03   -0.40099E-06   -0.69561E-06 26640   0.463E-03
   7 F= -.86283342E+03 E0= -.86282881E+03  d E =-.110160E-01
 curvature:  -1.09 expect dE=-0.256E-02 dE for cont linesearch -0.163E-05
 trial: gam= 0.19376 g(F)=  0.236E-02 g(S)=  0.000E+00 ort = 0.143E-03 (trialstep = 0.135E+01)
 search vector abs. value=  0.292E-02
 bond charge predicted
       N       E                     dE             d eps       ncg     rms          rms(c)
DAV:   1    -0.862834717306E+03   -0.13027E-02   -0.95280E-01 33192   0.138E+00    0.256E-01
RMM:   2    -0.862865485101E+03   -0.30768E-01   -0.80484E-02 35065   0.663E-01    0.236E+00
RMM:   3    -0.862836338167E+03    0.29147E-01   -0.20547E-02 32856   0.438E-01    0.316E-01
RMM:   4    -0.862835711896E+03    0.62627E-03   -0.43469E-03 46029   0.860E-02    0.141E-01
RMM:   5    -0.862835909513E+03   -0.19762E-03   -0.17599E-03 42862   0.603E-02    0.251E-01
RMM:   6    -0.862835562116E+03    0.34740E-03   -0.68111E-04 34850   0.556E-02    0.834E-02
RMM:   7    -0.862835810347E+03   -0.24823E-03   -0.12157E-03 39288   0.613E-02    0.233E-01
RMM:   8    -0.862835546460E+03    0.26389E-03   -0.31983E-04 32881   0.445E-02    0.943E-02
RMM:   9    -0.862835511087E+03    0.35372E-04   -0.16334E-04 39504   0.223E-02    0.384E-02
RMM:  10    -0.862835525118E+03   -0.14030E-04   -0.96193E-05 42887   0.153E-02    0.625E-02
RMM:  11    -0.862835506096E+03    0.19022E-04   -0.28357E-05 34105   0.123E-02    0.168E-02
RMM:  12    -0.862835506246E+03   -0.14993E-06   -0.19979E-05 38392   0.529E-03    0.117E-02
RMM:  13    -0.862835506355E+03   -0.10950E-06   -0.33361E-06 22693   0.415E-03
   8 F= -.86283551E+03 E0= -.86283090E+03  d E =-.209130E-02
 trial-energy change:   -0.002091  1 .order   -0.002108   -0.003221   -0.000996
 step:   1.9999(harm=  1.9561)  dis= 0.00919  next Energy=  -862.835744 (dE=-0.233E-02)
 bond charge predicted
       N       E                     dE             d eps       ncg     rms          rms(c)
DAV:   1    -0.862835552100E+03   -0.45854E-04   -0.21959E-01 33786   0.662E-01    0.124E-01
RMM:   2    -0.862842833651E+03   -0.72816E-02   -0.19063E-02 35199   0.320E-01    0.115E+00
RMM:   3    -0.862835924236E+03    0.69094E-02   -0.49189E-03 32854   0.214E-01    0.156E-01
RMM:   4    -0.862835776850E+03    0.14739E-03   -0.10646E-03 45984   0.421E-02    0.674E-02
RMM:   5    -0.862835826649E+03   -0.49799E-04   -0.42956E-04 43100   0.294E-02    0.123E-01
RMM:   6    -0.862835744437E+03    0.82213E-04   -0.16347E-04 35009   0.268E-02    0.414E-02
RMM:   7    -0.862835798724E+03   -0.54288E-04   -0.27650E-04 39430   0.291E-02    0.110E-01
RMM:   8    -0.862835740629E+03    0.58095E-04   -0.72661E-05 32947   0.210E-02    0.461E-02
RMM:   9    -0.862835732077E+03    0.85521E-05   -0.36594E-05 39522   0.106E-02    0.185E-02
RMM:  10    -0.862835734916E+03   -0.28389E-05   -0.20522E-05 40409   0.713E-03    0.288E-02
RMM:  11    -0.862835730865E+03    0.40514E-05   -0.59593E-06 27632   0.583E-03    0.772E-03
RMM:  12    -0.862835730683E+03    0.18198E-06   -0.21669E-06 20791   0.273E-03
   9 F= -.86283573E+03 E0= -.86283113E+03  d E =-.231563E-02
 curvature:  -1.19 expect dE=-0.135E-02 dE for cont linesearch -0.730E-06
 trial: gam= 0.50448 g(F)=  0.113E-02 g(S)=  0.000E+00 ort =-0.423E-04 (trialstep = 0.148E+01)
 search vector abs. value=  0.183E-02
 bond charge predicted
       N       E                     dE             d eps       ncg     rms          rms(c)
DAV:   1    -0.862836234116E+03   -0.50325E-03   -0.66576E-01 32994   0.116E+00    0.159E-01
RMM:   2    -0.862850671601E+03   -0.14437E-01   -0.35525E-02 35864   0.429E-01    0.159E+00
RMM:   3    -0.862837347844E+03    0.13324E-01   -0.75519E-03 32858   0.253E-01    0.231E-01
RMM:   4    -0.862836992854E+03    0.35499E-03   -0.26295E-03 43635   0.678E-02    0.992E-02
RMM:   5    -0.862837074332E+03   -0.81478E-04   -0.10794E-03 44037   0.453E-02    0.182E-01
RMM:   6    -0.862836894072E+03    0.18026E-03   -0.41170E-04 35614   0.412E-02    0.616E-02
RMM:   7    -0.862837087327E+03   -0.19325E-03   -0.79616E-04 39943   0.479E-02    0.205E-01
RMM:   8    -0.862836883741E+03    0.20359E-03   -0.21605E-04 32832   0.367E-02    0.798E-02
RMM:   9    -0.862836853430E+03    0.30311E-04   -0.99805E-05 36845   0.200E-02    0.295E-02
RMM:  10    -0.862836863027E+03   -0.95970E-05   -0.74431E-05 43722   0.122E-02    0.470E-02
RMM:  11    -0.862836852745E+03    0.10282E-04   -0.19019E-05 34323   0.915E-03    0.138E-02
RMM:  12    -0.862836852918E+03   -0.17353E-06   -0.11534E-05 33352   0.386E-03    0.115E-02
RMM:  13    -0.862836853020E+03   -0.10127E-06   -0.23688E-06 20072   0.364E-03
  10 F= -.86283685E+03 E0= -.86283218E+03  d E =-.112234E-02
 trial-energy change:   -0.001122  1 .order   -0.001109   -0.001647   -0.000570
 step:   2.1857(harm=  2.2652)  dis= 0.00554  next Energy=  -862.836990 (dE=-0.126E-02)
 bond charge predicted
       N       E                     dE             d eps       ncg     rms          rms(c)
DAV:   1    -0.862836860871E+03   -0.79528E-05   -0.15077E-01 33336   0.551E-01    0.780E-02
RMM:   2    -0.862840282988E+03   -0.34221E-02   -0.83943E-03 35784   0.209E-01    0.775E-01
RMM:   3    -0.862837122132E+03    0.31609E-02   -0.17864E-03 32858   0.124E-01    0.116E-01
RMM:   4    -0.862837031853E+03    0.90278E-04   -0.60818E-04 43044   0.335E-02    0.483E-02
RMM:   5    -0.862837053304E+03   -0.21451E-04   -0.26193E-04 44725   0.221E-02    0.893E-02
RMM:   6    -0.862837010037E+03    0.43267E-04   -0.95406E-05 35601   0.196E-02    0.296E-02
RMM:   7    -0.862837052772E+03   -0.42735E-04   -0.18139E-04 40105   0.228E-02    0.968E-02
RMM:   8    -0.862837008109E+03    0.44662E-04   -0.49160E-05 32837   0.173E-02    0.391E-02
RMM:   9    -0.862837000763E+03    0.73460E-05   -0.22206E-05 35938   0.965E-03    0.146E-02
RMM:  10    -0.862837002713E+03   -0.19494E-05   -0.15915E-05 37192   0.583E-03    0.216E-02
RMM:  11    -0.862837000485E+03    0.22279E-05   -0.34064E-06 22850   0.460E-03    0.635E-03
RMM:  12    -0.862837000418E+03    0.66429E-07   -0.15856E-06 18878   0.224E-03
  11 F= -.86283700E+03 E0= -.86283230E+03  d E =-.126974E-02
 curvature:  -1.85 expect dE=-0.348E-03 dE for cont linesearch -0.108E-05
 trial: gam= 0.11434 g(F)=  0.188E-03 g(S)=  0.000E+00 ort = 0.328E-04 (trialstep = 0.162E+01)
 search vector abs. value=  0.220E-03
 bond charge predicted
       N       E                     dE             d eps       ncg     rms          rms(c)
DAV:   1    -0.862837130032E+03   -0.12955E-03   -0.10581E-01 33390   0.462E-01    0.820E-02
RMM:   2    -0.862840924571E+03   -0.37945E-02   -0.93362E-03 36113   0.213E-01    0.833E-01
RMM:   3    -0.862837324608E+03    0.36000E-02   -0.22337E-03 32832   0.139E-01    0.130E-01
RMM:   4    -0.862837222932E+03    0.10168E-03   -0.68726E-04 44542   0.325E-02    0.475E-02
RMM:   5    -0.862837252401E+03   -0.29470E-04   -0.27739E-04 42825   0.236E-02    0.890E-02
RMM:   6    -0.862837210987E+03    0.41414E-04   -0.11013E-04 35953   0.208E-02    0.271E-02
RMM:   7    -0.862837245750E+03   -0.34763E-04   -0.14612E-04 39590   0.207E-02    0.870E-02
RMM:   8    -0.862837210344E+03    0.35406E-04   -0.37624E-05 32820   0.151E-02    0.342E-02
RMM:   9    -0.862837205461E+03    0.48825E-05   -0.22721E-05 38603   0.807E-03    0.135E-02
RMM:  10    -0.862837206511E+03   -0.10495E-05   -0.89012E-06 32361   0.515E-03    0.187E-02
RMM:  11    -0.862837204775E+03    0.17363E-05   -0.25273E-06 21015   0.430E-03    0.457E-03
RMM:  12    -0.862837204765E+03    0.98953E-08   -0.11627E-06 18235   0.200E-03
  12 F= -.86283720E+03 E0= -.86283250E+03  d E =-.204346E-03
 trial-energy change:   -0.000204  1 .order   -0.000199   -0.000312   -0.000087
 step:   2.1521(harm=  2.2477)  dis= 0.00144  next Energy=  -862.837219 (dE=-0.219E-03)
 reached required accuracy - stopping structural energy minimisation
