<?xml version="1.0" encoding="ISO-8859-1"?>
<modeling>
 <generator>
  <i name="program" type="string">vasp </i>
  <i name="version" type="string">5.4.1  </i>
  <i name="subversion" type="string">24Jun15 (build Jun 21 2019 17:19:10) complex                          parallel </i>
  <i name="platform" type="string">IFC91_ompi </i>
  <i name="date" type="string">2019 08 26 </i>
  <i name="time" type="string">23:27:07 </i>
 </generator>
 <incar>
  <i type="string" name="SYSTEM">Opt</i>
  <i type="int" name="ISTART">     0</i>
  <i type="string" name="PREC">normal</i>
  <i type="string" name="ALGO"> Fast</i>
  <i type="int" name="ISPIN">     1</i>
  <i type="int" name="ICHARG">     2</i>
  <i type="int" name="NELM">   400</i>
  <i type="int" name="IBRION">     2</i>
  <i name="EDIFF">      0.00000100</i>
  <i name="EDIFFG">     -0.01000000</i>
  <i type="int" name="NSW">   100</i>
  <i type="int" name="ISIF">     2</i>
  <i type="int" name="ISYM">     0</i>
  <i name="ENCUT">    400.00000000</i>
  <i type="int" name="NGX">    72</i>
  <i type="int" name="NGY">    72</i>
  <i type="int" name="NGZ">    72</i>
  <i name="POTIM">      0.50000000</i>
  <i type="string" name="LREAL">Auto</i>
  <i type="logical" name="LWAVE"> F  </i>
  <i type="logical" name="LCHARG"> F  </i>
  <v type="int" name="KPOINT_BSE">    -1     0     0     0</v>
  <i type="int" name="NELM">   400</i>
 </incar>
 <kpoints>
  <generation param="Monkhorst-Pack">
   <v type="int" name="divisions">       4        4        4 </v>
   <v name="usershift">      0.00000000       0.00000000       0.00000000 </v>
   <v name="genvec1">      0.25000000       0.00000000       0.00000000 </v>
   <v name="genvec2">      0.00000000       0.25000000       0.00000000 </v>
   <v name="genvec3">      0.00000000       0.00000000       0.25000000 </v>
   <v name="shift">      0.50000000       0.50000000       0.50000000 </v>
  </generation>
  <varray name="kpointlist" >
   <v>       0.12500000       0.12500000       0.12500000 </v>
   <v>       0.37500000       0.12500000       0.12500000 </v>
   <v>      -0.37500000       0.12500000       0.12500000 </v>
   <v>      -0.12500000       0.12500000       0.12500000 </v>
   <v>       0.12500000       0.37500000       0.12500000 </v>
   <v>       0.37500000       0.37500000       0.12500000 </v>
   <v>      -0.37500000       0.37500000       0.12500000 </v>
   <v>      -0.12500000       0.37500000       0.12500000 </v>
   <v>       0.12500000      -0.37500000       0.12500000 </v>
   <v>       0.37500000      -0.37500000       0.12500000 </v>
   <v>      -0.37500000      -0.37500000       0.12500000 </v>
   <v>      -0.12500000      -0.37500000       0.12500000 </v>
   <v>       0.12500000      -0.12500000       0.12500000 </v>
   <v>       0.37500000      -0.12500000       0.12500000 </v>
   <v>      -0.37500000      -0.12500000       0.12500000 </v>
   <v>      -0.12500000      -0.12500000       0.12500000 </v>
   <v>       0.12500000       0.12500000       0.37500000 </v>
   <v>       0.37500000       0.12500000       0.37500000 </v>
   <v>      -0.37500000       0.12500000       0.37500000 </v>
   <v>      -0.12500000       0.12500000       0.37500000 </v>
   <v>       0.12500000       0.37500000       0.37500000 </v>
   <v>       0.37500000       0.37500000       0.37500000 </v>
   <v>      -0.37500000       0.37500000       0.37500000 </v>
   <v>      -0.12500000       0.37500000       0.37500000 </v>
   <v>       0.12500000      -0.37500000       0.37500000 </v>
   <v>       0.37500000      -0.37500000       0.37500000 </v>
   <v>      -0.37500000      -0.37500000       0.37500000 </v>
   <v>      -0.12500000      -0.37500000       0.37500000 </v>
   <v>       0.12500000      -0.12500000       0.37500000 </v>
   <v>       0.37500000      -0.12500000       0.37500000 </v>
   <v>      -0.37500000      -0.12500000       0.37500000 </v>
   <v>      -0.12500000      -0.12500000       0.37500000 </v>
  </varray>
  <varray name="weights" >
   <v>       0.03125000 </v>
   <v>       0.03125000 </v>
   <v>       0.03125000 </v>
   <v>       0.03125000 </v>
   <v>       0.03125000 </v>
   <v>       0.03125000 </v>
   <v>       0.03125000 </v>
   <v>       0.03125000 </v>
   <v>       0.03125000 </v>
   <v>       0.03125000 </v>
   <v>       0.03125000 </v>
   <v>       0.03125000 </v>
   <v>       0.03125000 </v>
   <v>       0.03125000 </v>
   <v>       0.03125000 </v>
   <v>       0.03125000 </v>
   <v>       0.03125000 </v>
   <v>       0.03125000 </v>
   <v>       0.03125000 </v>
   <v>       0.03125000 </v>
   <v>       0.03125000 </v>
   <v>       0.03125000 </v>
   <v>       0.03125000 </v>
   <v>       0.03125000 </v>
   <v>       0.03125000 </v>
   <v>       0.03125000 </v>
   <v>       0.03125000 </v>
   <v>       0.03125000 </v>
   <v>       0.03125000 </v>
   <v>       0.03125000 </v>
   <v>       0.03125000 </v>
   <v>       0.03125000 </v>
  </varray>
 </kpoints>
 <parameters>
  <separator name="general" >
   <i type="string" name="SYSTEM">Opt</i>
   <i type="logical" name="LCOMPAT"> F  </i>
  </separator>
  <separator name="electronic" >
   <i type="string" name="PREC">normal</i>
   <i name="ENMAX">    400.00000000</i>
   <i name="ENAUG">    511.36800000</i>
   <i name="EDIFF">      0.00000100</i>
   <i type="int" name="IALGO">    68</i>
   <i type="int" name="IWAVPR">    11</i>
   <i type="int" name="NBANDS">   513</i>
   <i name="NELECT">    854.00000000</i>
   <i type="int" name="TURBO">     0</i>
   <i type="int" name="IRESTART">     0</i>
   <i type="int" name="NREBOOT">     0</i>
   <i type="int" name="NMIN">     0</i>
   <i name="EREF">      0.00000000</i>
   <separator name="electronic smearing" >
    <i type="int" name="ISMEAR">     1</i>
    <i name="SIGMA">      0.20000000</i>
    <i name="KSPACING">      0.50000000</i>
    <i type="logical" name="KGAMMA"> T  </i>
   </separator>
   <separator name="electronic projectors" >
    <i type="logical" name="LREAL"> T  </i>
    <v name="ROPT">     -0.00050000     -0.00050000</v>
    <i type="int" name="LMAXPAW">  -100</i>
    <i type="int" name="LMAXMIX">     2</i>
    <i type="logical" name="NLSPLINE"> F  </i>
   </separator>
   <separator name="electronic startup" >
    <i type="int" name="ISTART">     0</i>
    <i type="int" name="ICHARG">     2</i>
    <i type="int" name="INIWAV">     1</i>
   </separator>
   <separator name="electronic spin" >
    <i type="int" name="ISPIN">     1</i>
    <i type="logical" name="LNONCOLLINEAR"> F  </i>
    <v name="MAGMOM">      1.00000000      1.00000000      1.00000000      1.00000000      1.00000000      1.00000000      1.00000000      1.00000000      1.00000000      1.00000000      1.00000000      1.00000000      1.00000000      1.00000000      1.00000000      1.00000000      1.00000000      1.00000000      1.00000000      1.00000000
      1.00000000      1.00000000      1.00000000      1.00000000      1.00000000      1.00000000      1.00000000      1.00000000      1.00000000      1.00000000      1.00000000      1.00000000      1.00000000      1.00000000      1.00000000      1.00000000      1.00000000      1.00000000      1.00000000      1.00000000
      1.00000000      1.00000000      1.00000000      1.00000000      1.00000000      1.00000000      1.00000000      1.00000000      1.00000000      1.00000000      1.00000000      1.00000000      1.00000000      1.00000000      1.00000000      1.00000000      1.00000000      1.00000000      1.00000000      1.00000000
      1.00000000      1.00000000      1.00000000      1.00000000      1.00000000      1.00000000      1.00000000      1.00000000      1.00000000      1.00000000      1.00000000      1.00000000      1.00000000      1.00000000      1.00000000      1.00000000      1.00000000      1.00000000      1.00000000      1.00000000
      1.00000000      1.00000000      1.00000000      1.00000000      1.00000000      1.00000000      1.00000000      1.00000000      1.00000000      1.00000000      1.00000000      1.00000000      1.00000000      1.00000000      1.00000000      1.00000000      1.00000000      1.00000000      1.00000000      1.00000000
      1.00000000      1.00000000      1.00000000      1.00000000      1.00000000      1.00000000      1.00000000</v>
    <i name="NUPDOWN">     -1.00000000</i>
    <i type="logical" name="LSORBIT"> F  </i>
    <v name="SAXIS">      0.00000000      0.00000000      1.00000000</v>
    <i type="logical" name="LSPIRAL"> F  </i>
    <v name="QSPIRAL">      0.00000000      0.00000000      0.00000000</v>
    <i type="logical" name="LZEROZ"> F  </i>
   </separator>
   <separator name="electronic exchange-correlation" >
    <i type="logical" name="LASPH"> F  </i>
    <i type="logical" name="LMETAGGA"> F  </i>
   </separator>
   <separator name="electronic convergence" >
    <i type="int" name="NELM">   400</i>
    <i type="int" name="NELMDL">    -5</i>
    <i type="int" name="NELMIN">     2</i>
    <i name="ENINI">    400.00000000</i>
    <separator name="electronic convergence detail" >
     <i type="logical" name="LDIAG"> T  </i>
     <i type="logical" name="LSUBROT"> F  </i>
     <i name="WEIMIN">      0.00100000</i>
     <i name="EBREAK">      0.00000000</i>
     <i name="DEPER">      0.30000000</i>
     <i type="int" name="NRMM">     4</i>
     <i name="TIME">      0.40000000</i>
    </separator>
   </separator>
   <separator name="electronic mixer" >
    <i name="AMIX">      0.40000000</i>
    <i name="BMIX">      1.00000000</i>
    <i name="AMIN">      0.10000000</i>
    <i name="AMIX_MAG">      1.60000000</i>
    <i name="BMIX_MAG">      1.00000000</i>
    <separator name="electronic mixer details" >
     <i type="int" name="IMIX">     4</i>
     <i type="logical" name="MIXFIRST"> F  </i>
     <i type="int" name="MAXMIX">   -45</i>
     <i name="WC">    100.00000000</i>
     <i type="int" name="INIMIX">     1</i>
     <i type="int" name="MIXPRE">     1</i>
     <i type="int" name="MREMOVE">     5</i>
    </separator>
   </separator>
   <separator name="electronic dipolcorrection" >
    <i type="logical" name="LDIPOL"> F  </i>
    <i type="logical" name="LMONO"> F  </i>
    <i type="int" name="IDIPOL">     0</i>
    <i name="EPSILON">      1.00000000</i>
    <v name="DIPOL">   -100.00000000   -100.00000000   -100.00000000</v>
    <i name="EFIELD">      0.00000000</i>
   </separator>
  </separator>
  <separator name="grids" >
   <i type="int" name="NGX">    72</i>
   <i type="int" name="NGY">    72</i>
   <i type="int" name="NGZ">    72</i>
   <i type="int" name="NGXF">   144</i>
   <i type="int" name="NGYF">   144</i>
   <i type="int" name="NGZF">   144</i>
   <i type="logical" name="ADDGRID"> F  </i>
  </separator>
  <separator name="ionic" >
   <i type="int" name="NSW">   100</i>
   <i type="int" name="IBRION">     2</i>
   <i type="int" name="ISIF">     2</i>
   <i name="PSTRESS">      0.00000000</i>
   <i name="EDIFFG">     -0.01000000</i>
   <i type="int" name="NFREE">     1</i>
   <i name="POTIM">      0.50000000</i>
   <i name="SMASS">     -3.00000000</i>
   <i name="SCALEE">      1.00000000</i>
  </separator>
  <separator name="ionic md" >
   <i name="TEBEG">      0.00010000</i>
   <i name="TEEND">      0.00010000</i>
   <i type="int" name="NBLOCK">     1</i>
   <i type="int" name="KBLOCK">   100</i>
   <i type="int" name="NPACO">   256</i>
   <i name="APACO">     16.00000000</i>
  </separator>
  <separator name="symmetry" >
   <i type="int" name="ISYM">     0</i>
   <i name="SYMPREC">      0.00001000</i>
  </separator>
  <separator name="dos" >
   <i type="logical" name="LORBIT"> F  </i>
   <v name="RWIGS">     -1.00000000     -1.00000000</v>
   <i type="int" name="NEDOS">   301</i>
   <i name="EMIN">     10.00000000</i>
   <i name="EMAX">    -10.00000000</i>
   <i name="EFERMI">      0.00000000</i>
  </separator>
  <separator name="writing" >
   <i type="int" name="NWRITE">     2</i>
   <i type="logical" name="LWAVE"> F  </i>
   <i type="logical" name="LCHARG"> F  </i>
   <i type="logical" name="LPARD"> F  </i>
   <i type="logical" name="LVTOT"> F  </i>
   <i type="logical" name="LVHAR"> F  </i>
   <i type="logical" name="LELF"> F  </i>
   <i type="logical" name="LOPTICS"> F  </i>
   <v name="STM">      0.00000000      0.00000000      0.00000000      0.00000000      0.00000000      0.00000000      0.00000000</v>
  </separator>
  <separator name="performance" >
   <i type="int" name="NPAR">     3</i>
   <i type="int" name="NSIM">     4</i>
   <i type="int" name="NBLK">    -1</i>
   <i type="logical" name="LPLANE"> T  </i>
   <i type="logical" name="LSCALAPACK"> T  </i>
   <i type="logical" name="LSCAAWARE"> F  </i>
   <i type="logical" name="LSCALU"> F  </i>
   <i type="logical" name="LASYNC"> F  </i>
   <i type="logical" name="LORBITALREAL"> F  </i>
  </separator>
  <separator name="miscellaneous" >
   <i type="int" name="IDIOT">     3</i>
   <i type="logical" name="LMUSIC"> F  </i>
   <v name="POMASS">     55.84700000    127.60000000</v>
   <v name="DARWINR">      0.00000000      0.00000000</v>
   <v name="DARWINV">      1.00000000      1.00000000</v>
   <i type="logical" name="LCORR"> T  </i>
  </separator>
  <i type="logical" name="GGA_COMPAT"> T  </i>
  <i type="logical" name="LBERRY"> F  </i>
  <i type="int" name="ICORELEVEL">     0</i>
  <i type="logical" name="LDAU"> F  </i>
  <i type="int" name="I_CONSTRAINED_M">     0</i>
  <separator name="electronic exchange-correlation" >
   <i type="string" name="GGA">--</i>
   <i type="int" name="VOSKOWN">     0</i>
   <i type="logical" name="LHFCALC"> F  </i>
   <i type="string" name="PRECFOCK"></i>
   <i type="logical" name="LSYMGRAD"> F  </i>
   <i type="logical" name="LHFONE"> F  </i>
   <i type="logical" name="LRHFCALC"> F  </i>
   <i type="logical" name="LTHOMAS"> F  </i>
   <i type="logical" name="LMODELHF"> F  </i>
   <i name="ENCUT4O">     -1.00000000</i>
   <i type="int" name="EXXOEP">     0</i>
   <i type="int" name="FOURORBIT">     0</i>
   <i name="AEXX">      0.00000000</i>
   <i name="HFALPHA">      0.00000000</i>
   <i name="MCALPHA">      0.00000000</i>
   <i name="ALDAX">      1.00000000</i>
   <i name="AGGAX">      1.00000000</i>
   <i name="ALDAC">      1.00000000</i>
   <i name="AGGAC">      1.00000000</i>
   <i type="int" name="NKREDX">     1</i>
   <i type="int" name="NKREDY">     1</i>
   <i type="int" name="NKREDZ">     1</i>
   <i type="logical" name="SHIFTRED"> F  </i>
   <i type="logical" name="ODDONLY"> F  </i>
   <i type="logical" name="EVENONLY"> F  </i>
   <i type="int" name="LMAXFOCK">     0</i>
   <i type="int" name="NMAXFOCKAE">     0</i>
   <i type="logical" name="LFOCKAEDFT"> F  </i>
   <i name="HFSCREEN">      0.00000000</i>
   <i name="HFSCREENC">      0.00000000</i>
   <i type="int" name="NBANDSGWLOW">     0</i>
  </separator>
  <separator name="vdW DFT" >
   <i type="logical" name="LUSE_VDW"> F  </i>
   <i name="Zab_VDW">     -0.84910000</i>
   <i name="PARAM1">      0.12340000</i>
   <i name="PARAM2">      1.00000000</i>
   <i name="PARAM3">      0.00000000</i>
  </separator>
  <separator name="model GW" >
   <i type="int" name="MODEL_GW">     0</i>
   <i name="MODEL_EPS0">      6.18984300</i>
   <i name="MODEL_ALPHA">      1.00000000</i>
  </separator>
  <separator name="linear response parameters" >
   <i type="logical" name="LEPSILON"> F  </i>
   <i type="logical" name="LRPA"> F  </i>
   <i type="logical" name="LNABLA"> F  </i>
   <i type="logical" name="LVEL"> F  </i>
   <i type="int" name="KINTER">     0</i>
   <i name="CSHIFT">      0.10000000</i>
   <i name="OMEGAMAX">     -1.00000000</i>
   <i name="DEG_THRESHOLD">      0.00200000</i>
  </separator>
  <separator name="orbital magnetization" >
   <i type="logical" name="NUCIND"> F  </i>
   <v name="MAGPOS">      0.00000000      0.00000000      0.00000000</v>
   <i type="logical" name="LNICSALL"> T  </i>
   <i type="logical" name="ORBITALMAG"> F  </i>
   <i type="logical" name="LMAGBLOCH"> F  </i>
   <i type="logical" name="LCHIMAG"> F  </i>
   <i type="logical" name="LGAUGE"> T  </i>
   <i type="int" name="MAGATOM">     0</i>
   <v name="MAGDIPOL">      0.00000000      0.00000000      0.00000000</v>
   <v name="AVECCONST">      0.00000000      0.00000000      0.00000000</v>
  </separator>
  <separator name="response functions" >
   <i type="logical" name="LADDER"> F  </i>
   <i type="logical" name="LFXC"> F  </i>
   <i type="logical" name="LHARTREE"> T  </i>
   <i type="int" name="IBSE">     0</i>
   <v type="int" name="KPOINT">    -1     0     0     0</v>
   <i type="logical" name="LTCTE"> F  </i>
   <i type="logical" name="LTETE"> F  </i>
   <i type="logical" name="LTRIPLET"> F  </i>
   <i type="logical" name="LFXCEPS"> F  </i>
   <i type="logical" name="LFXHEG"> F  </i>
   <i type="int" name="NATURALO">     0</i>
   <i type="logical" name="L2ORDER"> F  </i>
   <i type="logical" name="LUSEW"> F  </i>
   <i name="ENCUTGW">     -2.00000000</i>
   <i name="ENCUTGWSOFT">     -2.00000000</i>
   <i name="ENCUTLF">     -1.00000000</i>
   <i type="int" name="LMAXMP2">    -1</i>
   <i name="SCISSOR">      0.00000000</i>
   <i type="int" name="NOMEGA">     0</i>
   <i type="int" name="NOMEGAR">     0</i>
   <i type="int" name="NBANDSGW">    -1</i>
   <i type="int" name="NBANDSO">    -1</i>
   <i type="int" name="NBANDSV">    -1</i>
   <i type="int" name="NELM">   400</i>
   <i type="int" name="NELMHF">     1</i>
   <i type="int" name="DIM">     3</i>
   <i type="int" name="ANTIRES">     0</i>
   <i name="OMEGAMAX">    -30.00000000</i>
   <i name="OMEGAMIN">    -30.00000000</i>
   <i name="OMEGATL">   -200.00000000</i>
   <i type="int" name="OMEGAGRID">     0</i>
   <i name="CSHIFT">     -0.10000000</i>
   <i type="logical" name="SELFENERGY"> F  </i>
   <i type="logical" name="LSPECTRAL"> F  </i>
   <i type="logical" name="LSPECTRALGW"> F  </i>
   <i type="logical" name="LSINGLES"> F  </i>
   <i type="logical" name="LFERMIGW"> F  </i>
   <i type="logical" name="ODDONLYGW"> F  </i>
   <i type="logical" name="EVENONLYGW"> F  </i>
   <i type="int" name="NKREDLFX">     1</i>
   <i type="int" name="NKREDLFY">     1</i>
   <i type="int" name="NKREDLFZ">     1</i>
   <i type="int" name="MAXMEM">  1800</i>
   <i type="int" name="TELESCOPE">     0</i>
   <i type="int" name="TAUPAR">     1</i>
   <i type="int" name="OMEGAPAR">    -1</i>
   <i name="LAMBDA">      1.00000000</i>
  </separator>
  <separator name="External order field" >
   <i name="OFIELD_KAPPA">      0.00000000</i>
   <v name="OFIELD_K">      0.00000000      0.00000000      0.00000000</v>
   <i name="OFIELD_Q6_NEAR">      0.00000000</i>
   <i name="OFIELD_Q6_FAR">      0.00000000</i>
   <i name="OFIELD_A">      0.00000000</i>
  </separator>
 </parameters>
 <atominfo>
  <atoms>     107 </atoms>
  <types>       2 </types>
  <array name="atoms" >
   <dimension dim="1">ion</dimension>
   <field type="string">element</field>
   <field type="int">atomtype</field>
   <set>
    <rc><c>Fe</c><c>   1</c></rc>
    <rc><c>Fe</c><c>   1</c></rc>
    <rc><c>Fe</c><c>   1</c></rc>
    <rc><c>Fe</c><c>   1</c></rc>
    <rc><c>Fe</c><c>   1</c></rc>
    <rc><c>Fe</c><c>   1</c></rc>
    <rc><c>Fe</c><c>   1</c></rc>
    <rc><c>Fe</c><c>   1</c></rc>
    <rc><c>Fe</c><c>   1</c></rc>
    <rc><c>Fe</c><c>   1</c></rc>
    <rc><c>Fe</c><c>   1</c></rc>
    <rc><c>Fe</c><c>   1</c></rc>
    <rc><c>Fe</c><c>   1</c></rc>
    <rc><c>Fe</c><c>   1</c></rc>
    <rc><c>Fe</c><c>   1</c></rc>
    <rc><c>Fe</c><c>   1</c></rc>
    <rc><c>Fe</c><c>   1</c></rc>
    <rc><c>Fe</c><c>   1</c></rc>
    <rc><c>Fe</c><c>   1</c></rc>
    <rc><c>Fe</c><c>   1</c></rc>
    <rc><c>Fe</c><c>   1</c></rc>
    <rc><c>Fe</c><c>   1</c></rc>
    <rc><c>Fe</c><c>   1</c></rc>
    <rc><c>Fe</c><c>   1</c></rc>
    <rc><c>Fe</c><c>   1</c></rc>
    <rc><c>Fe</c><c>   1</c></rc>
    <rc><c>Fe</c><c>   1</c></rc>
    <rc><c>Fe</c><c>   1</c></rc>
    <rc><c>Fe</c><c>   1</c></rc>
    <rc><c>Fe</c><c>   1</c></rc>
    <rc><c>Fe</c><c>   1</c></rc>
    <rc><c>Fe</c><c>   1</c></rc>
    <rc><c>Fe</c><c>   1</c></rc>
    <rc><c>Fe</c><c>   1</c></rc>
    <rc><c>Fe</c><c>   1</c></rc>
    <rc><c>Fe</c><c>   1</c></rc>
    <rc><c>Fe</c><c>   1</c></rc>
    <rc><c>Fe</c><c>   1</c></rc>
    <rc><c>Fe</c><c>   1</c></rc>
    <rc><c>Fe</c><c>   1</c></rc>
    <rc><c>Fe</c><c>   1</c></rc>
    <rc><c>Fe</c><c>   1</c></rc>
    <rc><c>Fe</c><c>   1</c></rc>
    <rc><c>Fe</c><c>   1</c></rc>
    <rc><c>Fe</c><c>   1</c></rc>
    <rc><c>Fe</c><c>   1</c></rc>
    <rc><c>Fe</c><c>   1</c></rc>
    <rc><c>Fe</c><c>   1</c></rc>
    <rc><c>Fe</c><c>   1</c></rc>
    <rc><c>Fe</c><c>   1</c></rc>
    <rc><c>Fe</c><c>   1</c></rc>
    <rc><c>Fe</c><c>   1</c></rc>
    <rc><c>Fe</c><c>   1</c></rc>
    <rc><c>Fe</c><c>   1</c></rc>
    <rc><c>Fe</c><c>   1</c></rc>
    <rc><c>Fe</c><c>   1</c></rc>
    <rc><c>Fe</c><c>   1</c></rc>
    <rc><c>Fe</c><c>   1</c></rc>
    <rc><c>Fe</c><c>   1</c></rc>
    <rc><c>Fe</c><c>   1</c></rc>
    <rc><c>Fe</c><c>   1</c></rc>
    <rc><c>Fe</c><c>   1</c></rc>
    <rc><c>Fe</c><c>   1</c></rc>
    <rc><c>Fe</c><c>   1</c></rc>
    <rc><c>Fe</c><c>   1</c></rc>
    <rc><c>Fe</c><c>   1</c></rc>
    <rc><c>Fe</c><c>   1</c></rc>
    <rc><c>Fe</c><c>   1</c></rc>
    <rc><c>Fe</c><c>   1</c></rc>
    <rc><c>Fe</c><c>   1</c></rc>
    <rc><c>Fe</c><c>   1</c></rc>
    <rc><c>Fe</c><c>   1</c></rc>
    <rc><c>Fe</c><c>   1</c></rc>
    <rc><c>Fe</c><c>   1</c></rc>
    <rc><c>Fe</c><c>   1</c></rc>
    <rc><c>Fe</c><c>   1</c></rc>
    <rc><c>Fe</c><c>   1</c></rc>
    <rc><c>Fe</c><c>   1</c></rc>
    <rc><c>Fe</c><c>   1</c></rc>
    <rc><c>Fe</c><c>   1</c></rc>
    <rc><c>Fe</c><c>   1</c></rc>
    <rc><c>Fe</c><c>   1</c></rc>
    <rc><c>Fe</c><c>   1</c></rc>
    <rc><c>Fe</c><c>   1</c></rc>
    <rc><c>Fe</c><c>   1</c></rc>
    <rc><c>Fe</c><c>   1</c></rc>
    <rc><c>Fe</c><c>   1</c></rc>
    <rc><c>Fe</c><c>   1</c></rc>
    <rc><c>Fe</c><c>   1</c></rc>
    <rc><c>Fe</c><c>   1</c></rc>
    <rc><c>Fe</c><c>   1</c></rc>
    <rc><c>Fe</c><c>   1</c></rc>
    <rc><c>Fe</c><c>   1</c></rc>
    <rc><c>Fe</c><c>   1</c></rc>
    <rc><c>Fe</c><c>   1</c></rc>
    <rc><c>Fe</c><c>   1</c></rc>
    <rc><c>Fe</c><c>   1</c></rc>
    <rc><c>Fe</c><c>   1</c></rc>
    <rc><c>Fe</c><c>   1</c></rc>
    <rc><c>Fe</c><c>   1</c></rc>
    <rc><c>Fe</c><c>   1</c></rc>
    <rc><c>Fe</c><c>   1</c></rc>
    <rc><c>Fe</c><c>   1</c></rc>
    <rc><c>Fe</c><c>   1</c></rc>
    <rc><c>Fe</c><c>   1</c></rc>
    <rc><c>Fe</c><c>   1</c></rc>
    <rc><c>Te</c><c>   2</c></rc>
   </set>
  </array>
  <array name="atomtypes" >
   <dimension dim="1">type</dimension>
   <field type="int">atomspertype</field>
   <field type="string">element</field>
   <field>mass</field>
   <field>valence</field>
   <field type="string">pseudopotential</field>
   <set>
    <rc><c> 106</c><c>Fe</c><c>     55.84700000</c><c>      8.00000000</c><c> PAW_PBE Fe 06Sep2000                   </c></rc>
    <rc><c>   1</c><c>Te</c><c>    127.60000000</c><c>      6.00000000</c><c> PAW_PBE Te 08Apr2002                   </c></rc>
   </set>
  </array>
 </atominfo>
 <structure name="initialpos" >
  <crystal>
   <varray name="basis" >
    <v>      10.33484705       0.00000000       0.00000000 </v>
    <v>       0.00000000      10.33484705       0.00000000 </v>
    <v>       0.00000000       0.00000000      10.33484705 </v>
   </varray>
   <i name="volume">   1103.85533447 </i>
   <varray name="rec_basis" >
    <v>       0.09676002       0.00000000       0.00000000 </v>
    <v>       0.00000000       0.09676002       0.00000000 </v>
    <v>       0.00000000       0.00000000       0.09676002 </v>
   </varray>
  </crystal>
  <varray name="positions" >
   <v>       0.00000000       0.00000000       0.00000000 </v>
   <v>       0.00000000       0.16666893       0.16666893 </v>
   <v>       0.00000000       0.33333106       0.00000000 </v>
   <v>       0.00000000       0.50000000       0.16666894 </v>
   <v>       0.00000000       0.66666897       0.00000000 </v>
   <v>       0.00000000       0.83333104       0.16666893 </v>
   <v>       0.00000000       0.00000000       0.33333106 </v>
   <v>       0.00000000       0.16666894       0.50000000 </v>
   <v>       0.00000000       0.33333107       0.33333107 </v>
   <v>       0.00000000       0.50000000       0.50000000 </v>
   <v>       0.00000000       0.66666896       0.33333107 </v>
   <v>       0.00000000       0.83333103       0.50000000 </v>
   <v>       0.00000000       0.00000000       0.66666897 </v>
   <v>       0.00000000       0.16666893       0.83333104 </v>
   <v>       0.00000000       0.33333107       0.66666896 </v>
   <v>       0.00000000       0.50000000       0.83333103 </v>
   <v>       0.00000000       0.66666896       0.66666896 </v>
   <v>       0.00000000       0.83333104       0.83333104 </v>
   <v>       0.16666893       0.00000000       0.16666893 </v>
   <v>       0.16666893       0.16666893       0.00000000 </v>
   <v>       0.16666893       0.83333104       0.00000000 </v>
   <v>       0.16666893       0.33333107       0.50000000 </v>
   <v>       0.16666893       0.50000000       0.33333107 </v>
   <v>       0.16666893       0.66666896       0.50000000 </v>
   <v>       0.16666893       0.00000000       0.83333104 </v>
   <v>       0.16666893       0.50000000       0.66666896 </v>
   <v>       0.16666893       0.33333107       0.16666893 </v>
   <v>       0.16666893       0.66666896       0.16666893 </v>
   <v>       0.16666893       0.16666893       0.33333107 </v>
   <v>       0.16666893       0.83333104       0.33333107 </v>
   <v>       0.16666893       0.16666893       0.66666896 </v>
   <v>       0.16666893       0.33333107       0.83333104 </v>
   <v>       0.16666893       0.66666896       0.83333104 </v>
   <v>       0.16666893       0.83333104       0.66666896 </v>
   <v>       0.16666894       0.50000000       0.00000000 </v>
   <v>       0.16666894       0.00000000       0.50000000 </v>
   <v>       0.33333106       0.00000000       0.00000000 </v>
   <v>       0.33333107       0.16666893       0.16666893 </v>
   <v>       0.33333107       0.83333104       0.16666893 </v>
   <v>       0.33333107       0.33333107       0.33333107 </v>
   <v>       0.33333107       0.66666896       0.33333107 </v>
   <v>       0.33333107       0.16666893       0.83333104 </v>
   <v>       0.33333107       0.33333107       0.66666896 </v>
   <v>       0.33333107       0.66666896       0.66666896 </v>
   <v>       0.33333107       0.83333104       0.83333104 </v>
   <v>       0.33333107       0.33333107       0.00000000 </v>
   <v>       0.33333107       0.50000000       0.16666893 </v>
   <v>       0.33333107       0.66666896       0.00000000 </v>
   <v>       0.33333107       0.00000000       0.33333107 </v>
   <v>       0.33333107       0.16666893       0.50000000 </v>
   <v>       0.33333107       0.83333104       0.50000000 </v>
   <v>       0.33333107       0.00000000       0.66666896 </v>
   <v>       0.33333107       0.50000000       0.83333104 </v>
   <v>       0.50000000       0.00000000       0.16666894 </v>
   <v>       0.50000000       0.16666894       0.00000000 </v>
   <v>       0.50000000       0.33333107       0.16666893 </v>
   <v>       0.50000000       0.50000000       0.00000000 </v>
   <v>       0.50000000       0.66666896       0.16666893 </v>
   <v>       0.50000000       0.83333103       0.00000000 </v>
   <v>       0.50000000       0.00000000       0.50000000 </v>
   <v>       0.50000000       0.16666893       0.33333107 </v>
   <v>       0.50000000       0.33333106       0.50000000 </v>
   <v>       0.50000000       0.50000000       0.33333106 </v>
   <v>       0.50000000       0.66666897       0.50000000 </v>
   <v>       0.50000000       0.83333104       0.33333107 </v>
   <v>       0.50000000       0.00000000       0.83333103 </v>
   <v>       0.50000000       0.16666893       0.66666896 </v>
   <v>       0.50000000       0.33333107       0.83333104 </v>
   <v>       0.50000000       0.66666896       0.83333104 </v>
   <v>       0.50000000       0.83333104       0.66666896 </v>
   <v>       0.66666896       0.33333107       0.00000000 </v>
   <v>       0.66666896       0.50000000       0.16666893 </v>
   <v>       0.66666896       0.66666896       0.00000000 </v>
   <v>       0.66666896       0.00000000       0.33333107 </v>
   <v>       0.66666896       0.16666893       0.50000000 </v>
   <v>       0.66666896       0.83333104       0.50000000 </v>
   <v>       0.66666896       0.00000000       0.66666896 </v>
   <v>       0.66666896       0.50000000       0.83333104 </v>
   <v>       0.66666896       0.16666893       0.16666893 </v>
   <v>       0.66666896       0.83333104       0.16666893 </v>
   <v>       0.66666896       0.33333107       0.33333107 </v>
   <v>       0.50000000       0.50000000       0.66666667 </v>
   <v>       0.66666896       0.16666893       0.83333104 </v>
   <v>       0.66666896       0.33333107       0.66666896 </v>
   <v>       0.66666896       0.66666896       0.66666896 </v>
   <v>       0.66666896       0.83333104       0.83333104 </v>
   <v>       0.66666897       0.00000000       0.00000000 </v>
   <v>       0.66666897       0.50000000       0.50000000 </v>
   <v>       0.83333103       0.50000000       0.00000000 </v>
   <v>       0.83333103       0.00000000       0.50000000 </v>
   <v>       0.83333104       0.33333107       0.16666893 </v>
   <v>       0.83333104       0.66666896       0.16666893 </v>
   <v>       0.83333104       0.16666893       0.33333107 </v>
   <v>       0.83333104       0.83333104       0.33333107 </v>
   <v>       0.83333104       0.16666893       0.66666896 </v>
   <v>       0.83333104       0.33333107       0.83333104 </v>
   <v>       0.83333104       0.66666896       0.83333104 </v>
   <v>       0.83333104       0.83333104       0.66666896 </v>
   <v>       0.83333104       0.00000000       0.16666893 </v>
   <v>       0.83333104       0.16666893       0.00000000 </v>
   <v>       0.83333104       0.83333104       0.00000000 </v>
   <v>       0.83333104       0.33333107       0.50000000 </v>
   <v>       0.83333104       0.50000000       0.33333107 </v>
   <v>       0.83333104       0.66666896       0.50000000 </v>
   <v>       0.83333104       0.00000000       0.83333104 </v>
   <v>       0.83333104       0.50000000       0.66666896 </v>
   <v>       0.33333106       0.50000000       0.50000000 </v>
  </varray>
 </structure>
 <calculation>
  <scstep>
   <time name="dav">  274.10  274.17</time>
   <time name="total">  274.42  274.49</time>
   <energy>
    <i name="alphaZ">   7085.54738553 </i>
    <i name="ewald"> -64835.43503785 </i>
    <i name="hartreedc"> -11377.75005768 </i>
    <i name="XCdc">    411.95139492 </i>
    <i name="pawpsdc">  50869.49801454 </i>
    <i name="pawaedc"> -51640.13888436 </i>
    <i name="eentropy">     -0.00172450 </i>
    <i name="bandstr">  13754.51717927 </i>
    <i name="atom">  63236.02203821 </i>
    <i name="e_fr_energy">   7504.21030808 </i>
    <i name="e_wo_entrp">   7504.21203258 </i>
    <i name="e_0_energy">   7504.21088292 </i>
   </energy>
  </scstep>
  <scstep>
   <time name="dav">  284.41  284.43</time>
   <time name="total">  284.44  284.46</time>
   <energy>
    <i name="e_fr_energy">    -13.26908780 </i>
    <i name="e_wo_entrp">    -13.27100654 </i>
    <i name="e_0_energy">    -13.26972738 </i>
   </energy>
  </scstep>
  <scstep>
   <time name="dav">  268.87  268.88</time>
   <time name="total">  268.90  268.91</time>
   <energy>
    <i name="e_fr_energy">   -831.68993498 </i>
    <i name="e_wo_entrp">   -831.70434722 </i>
    <i name="e_0_energy">   -831.69473906 </i>
   </energy>
  </scstep>
  <scstep>
   <time name="dav">  457.72  457.75</time>
   <time name="total">  457.76  457.79</time>
   <energy>
    <i name="e_fr_energy">  -1006.37996656 </i>
    <i name="e_wo_entrp">  -1006.38299633 </i>
    <i name="e_0_energy">  -1006.38097648 </i>
   </energy>
  </scstep>
  <scstep>
   <time name="dav">  407.93  408.09</time>
   <time name="total">  417.30  417.46</time>
   <energy>
    <i name="e_fr_energy">  -1021.23488501 </i>
    <i name="e_wo_entrp">  -1021.22212276 </i>
    <i name="e_0_energy">  -1021.23063093 </i>
   </energy>
  </scstep>
  <scstep>
   <time name="diag">   29.01   29.01</time>
   <time name="diis">  118.57  118.62</time>
   <time name="orth">    7.44    7.45</time>
   <time name="total">  165.10  165.15</time>
   <energy>
    <i name="e_fr_energy">   -881.16004801 </i>
    <i name="e_wo_entrp">   -881.16686189 </i>
    <i name="e_0_energy">   -881.16231930 </i>
   </energy>
  </scstep>
  <scstep>
   <time name="diag">   33.89   33.90</time>
   <time name="diis">  167.60  167.66</time>
   <time name="orth">    7.94    7.94</time>
   <time name="total">  219.09  219.17</time>
   <energy>
    <i name="e_fr_energy">  -1166.30179308 </i>
    <i name="e_wo_entrp">  -1166.24664369 </i>
    <i name="e_0_energy">  -1166.28340995 </i>
   </energy>
  </scstep>
  <scstep>
   <time name="diag">   28.98   28.98</time>
   <time name="diis">  126.35  126.39</time>
   <time name="orth">    8.77    8.77</time>
   <time name="total">  174.79  174.83</time>
   <energy>
    <i name="e_fr_energy">   -889.00689273 </i>
    <i name="e_wo_entrp">   -888.97600627 </i>
    <i name="e_0_energy">   -888.99659724 </i>
   </energy>
  </scstep>
  <scstep>
   <time name="diag">   33.89   33.91</time>
   <time name="diis">  136.62  136.67</time>
   <time name="orth">    7.97    7.97</time>
   <time name="total">  188.20  188.28</time>
   <energy>
    <i name="e_fr_energy">   -861.55061137 </i>
    <i name="e_wo_entrp">   -861.51690553 </i>
    <i name="e_0_energy">   -861.53937609 </i>
   </energy>
  </scstep>
  <scstep>
   <time name="diag">   28.96   28.97</time>
   <time name="diis">  170.09  170.15</time>
   <time name="orth">    8.76    8.77</time>
   <time name="total">  218.46  218.53</time>
   <energy>
    <i name="e_fr_energy">   -863.73722603 </i>
    <i name="e_wo_entrp">   -863.74517190 </i>
    <i name="e_0_energy">   -863.73987465 </i>
   </energy>
  </scstep>
  <scstep>
   <time name="diag">   33.92   33.94</time>
   <time name="diis">  144.39  144.47</time>
   <time name="orth">    7.94    7.94</time>
   <time name="total">  195.91  196.02</time>
   <energy>
    <i name="e_fr_energy">   -863.54609894 </i>
    <i name="e_wo_entrp">   -863.54013442 </i>
    <i name="e_0_energy">   -863.54411076 </i>
   </energy>
  </scstep>
  <scstep>
   <time name="diag">   29.11   29.12</time>
   <time name="diis">  161.78  161.85</time>
   <time name="orth">    8.77    8.77</time>
   <time name="total">  210.37  210.45</time>
   <energy>
    <i name="e_fr_energy">   -862.29202909 </i>
    <i name="e_wo_entrp">   -862.27960479 </i>
    <i name="e_0_energy">   -862.28788765 </i>
   </energy>
  </scstep>
  <scstep>
   <time name="diag">   31.56   31.57</time>
   <time name="diis">  144.78  144.83</time>
   <time name="orth">    7.46    7.47</time>
   <time name="total">  193.77  193.83</time>
   <energy>
    <i name="e_fr_energy">   -862.12097139 </i>
    <i name="e_wo_entrp">   -862.11077891 </i>
    <i name="e_0_energy">   -862.11757390 </i>
   </energy>
  </scstep>
  <scstep>
   <time name="diag">   32.30   32.31</time>
   <time name="diis">  153.85  153.88</time>
   <time name="orth">    7.93    7.93</time>
   <time name="total">  203.72  203.77</time>
   <energy>
    <i name="e_fr_energy">   -861.65732021 </i>
    <i name="e_wo_entrp">   -861.63476472 </i>
    <i name="e_0_energy">   -861.64980171 </i>
   </energy>
  </scstep>
  <scstep>
   <time name="diag">   28.96   28.97</time>
   <time name="diis">  159.37  159.47</time>
   <time name="orth">    8.43    8.43</time>
   <time name="total">  207.46  207.56</time>
   <energy>
    <i name="e_fr_energy">   -861.60312508 </i>
    <i name="e_wo_entrp">   -861.57891779 </i>
    <i name="e_0_energy">   -861.59505598 </i>
   </energy>
  </scstep>
  <scstep>
   <time name="diag">   34.00   34.02</time>
   <time name="diis">  136.59  136.62</time>
   <time name="orth">    7.94    7.94</time>
   <time name="total">  188.17  188.22</time>
   <energy>
    <i name="e_fr_energy">   -861.34906225 </i>
    <i name="e_wo_entrp">   -861.32726729 </i>
    <i name="e_0_energy">   -861.34179726 </i>
   </energy>
  </scstep>
  <scstep>
   <time name="diag">   28.97   28.98</time>
   <time name="diis">  143.33  143.36</time>
   <time name="orth">    8.76    8.76</time>
   <time name="total">  191.82  191.86</time>
   <energy>
    <i name="e_fr_energy">   -861.27547541 </i>
    <i name="e_wo_entrp">   -861.25420765 </i>
    <i name="e_0_energy">   -861.26838615 </i>
   </energy>
  </scstep>
  <scstep>
   <time name="diag">   33.99   34.00</time>
   <time name="diis">  154.49  154.53</time>
   <time name="orth">    7.11    7.11</time>
   <time name="total">  205.25  205.30</time>
   <energy>
    <i name="e_fr_energy">   -861.29740035 </i>
    <i name="e_wo_entrp">   -861.27719304 </i>
    <i name="e_0_energy">   -861.29066458 </i>
   </energy>
  </scstep>
  <scstep>
   <time name="diag">   29.97   29.98</time>
   <time name="diis">  146.81  146.84</time>
   <time name="orth">    7.89    7.89</time>
   <time name="total">  194.25  194.29</time>
   <energy>
    <i name="e_fr_energy">   -861.25450456 </i>
    <i name="e_wo_entrp">   -861.23570673 </i>
    <i name="e_0_energy">   -861.24823861 </i>
   </energy>
  </scstep>
  <scstep>
   <time name="diag">   29.00   29.01</time>
   <time name="diis">  186.37  186.42</time>
   <time name="orth">    7.53    7.54</time>
   <time name="total">  233.15  233.20</time>
   <energy>
    <i name="e_fr_energy">   -861.25653211 </i>
    <i name="e_wo_entrp">   -861.23804711 </i>
    <i name="e_0_energy">   -861.25037045 </i>
   </energy>
  </scstep>
  <scstep>
   <time name="diag">   31.65   31.66</time>
   <time name="diis">  147.22  147.28</time>
   <time name="orth">    6.57    6.57</time>
   <time name="total">  194.53  194.60</time>
   <energy>
    <i name="e_fr_energy">   -861.25652101 </i>
    <i name="e_wo_entrp">   -861.23823588 </i>
    <i name="e_0_energy">   -861.25042597 </i>
   </energy>
  </scstep>
  <scstep>
   <time name="diag">   26.26   26.27</time>
   <time name="diis">  142.20  142.23</time>
   <time name="orth">    7.45    7.46</time>
   <time name="total">  185.89  185.93</time>
   <energy>
    <i name="e_fr_energy">   -861.25376186 </i>
    <i name="e_wo_entrp">   -861.23556185 </i>
    <i name="e_0_energy">   -861.24769519 </i>
   </energy>
  </scstep>
  <scstep>
   <time name="diag">   30.49   30.49</time>
   <time name="diis">  187.75  187.80</time>
   <time name="orth">    6.43    6.43</time>
   <time name="total">  235.00  235.06</time>
   <energy>
    <i name="e_fr_energy">   -861.25289954 </i>
    <i name="e_wo_entrp">   -861.23458801 </i>
    <i name="e_0_energy">   -861.24679569 </i>
   </energy>
  </scstep>
  <scstep>
   <time name="diag">   31.21   31.21</time>
   <time name="diis">  174.91  174.92</time>
   <time name="orth">    7.46    7.46</time>
   <time name="total">  224.38  224.39</time>
   <energy>
    <i name="e_fr_energy">   -861.24916534 </i>
    <i name="e_wo_entrp">   -861.23082033 </i>
    <i name="e_0_energy">   -861.24305034 </i>
   </energy>
  </scstep>
  <scstep>
   <time name="diag">   29.16   29.16</time>
   <time name="diis">  230.00  229.99</time>
   <time name="orth">    7.44    7.44</time>
   <time name="total">  276.91  276.90</time>
   <energy>
    <i name="e_fr_energy">   -861.24900316 </i>
    <i name="e_wo_entrp">   -861.23074088 </i>
    <i name="e_0_energy">   -861.24291573 </i>
   </energy>
  </scstep>
  <scstep>
   <time name="diag">   29.19   29.19</time>
   <time name="diis">  220.92  220.92</time>
   <time name="orth">    8.28    8.28</time>
   <time name="total">  269.29  269.29</time>
   <energy>
    <i name="e_fr_energy">   -861.24894948 </i>
    <i name="e_wo_entrp">   -861.23073884 </i>
    <i name="e_0_energy">   -861.24287927 </i>
   </energy>
  </scstep>
  <scstep>
   <time name="diag">   33.66   33.66</time>
   <time name="diis">  183.26  183.26</time>
   <time name="orth">    8.27    8.27</time>
   <time name="total">  237.18  237.19</time>
   <energy>
    <i name="e_fr_energy">   -861.24882726 </i>
    <i name="e_wo_entrp">   -861.23063051 </i>
    <i name="e_0_energy">   -861.24276168 </i>
   </energy>
  </scstep>
  <scstep>
   <time name="diag">   38.33   38.34</time>
   <time name="diis">  208.17  208.22</time>
   <time name="orth">    8.27    8.27</time>
   <time name="total">  266.79  266.86</time>
   <energy>
    <i name="e_fr_energy">   -861.24882167 </i>
    <i name="e_wo_entrp">   -861.23073980 </i>
    <i name="e_0_energy">   -861.24279438 </i>
   </energy>
  </scstep>
  <scstep>
   <time name="diag">   38.34   38.36</time>
   <time name="diis">  162.83  162.91</time>
   <time name="orth">    6.98    6.98</time>
   <time name="total">  218.69  218.79</time>
   <energy>
    <i name="e_fr_energy">   -861.24875567 </i>
    <i name="e_wo_entrp">   -861.23077520 </i>
    <i name="e_0_energy">   -861.24276218 </i>
   </energy>
  </scstep>
  <scstep>
   <time name="diag">   36.46   36.49</time>
   <time name="diis">  228.90  228.98</time>
   <time name="orth">    6.76    6.76</time>
   <time name="total">  281.70  281.85</time>
   <energy>
    <i name="e_fr_energy">   -861.24874636 </i>
    <i name="e_wo_entrp">   -861.23084540 </i>
    <i name="e_0_energy">   -861.24277937 </i>
   </energy>
  </scstep>
  <scstep>
   <time name="diag">   33.62   33.63</time>
   <time name="diis">  198.78  198.86</time>
   <time name="orth">    6.76    6.77</time>
   <time name="total">  249.03  249.13</time>
   <energy>
    <i name="e_fr_energy">   -861.24873149 </i>
    <i name="e_wo_entrp">   -861.23089543 </i>
    <i name="e_0_energy">   -861.24278614 </i>
   </energy>
  </scstep>
  <scstep>
   <time name="diag">   30.21   30.23</time>
   <time name="diis">  153.76  153.80</time>
   <time name="orth">    8.30    8.31</time>
   <time name="total">  205.20  205.27</time>
   <energy>
    <i name="e_fr_energy">   -861.24871909 </i>
    <i name="e_wo_entrp">   -861.23094907 </i>
    <i name="e_0_energy">   -861.24279575 </i>
   </energy>
  </scstep>
  <scstep>
   <time name="diag">   35.38   35.39</time>
   <time name="diis">  100.88  100.92</time>
   <time name="orth">    8.52    8.52</time>
   <time name="total">  158.20  158.26</time>
   <energy>
    <i name="e_fr_energy">   -861.24871493 </i>
    <i name="e_wo_entrp">   -861.23099943 </i>
    <i name="e_0_energy">   -861.24280976 </i>
   </energy>
  </scstep>
  <scstep>
   <time name="diag">   43.19   43.20</time>
   <time name="diis">  126.25  126.29</time>
   <time name="orth">    7.62    7.62</time>
   <time name="total">  188.98  189.04</time>
   <energy>
    <i name="e_fr_energy">   -861.24871001 </i>
    <i name="e_wo_entrp">   -861.23104485 </i>
    <i name="e_0_energy">   -861.24282163 </i>
   </energy>
  </scstep>
  <scstep>
   <time name="diag">   32.89   32.89</time>
   <time name="diis">   95.45   95.49</time>
   <time name="orth">    8.56    8.56</time>
   <time name="total">  150.22  150.27</time>
   <energy>
    <i name="e_fr_energy">   -861.24870697 </i>
    <i name="e_wo_entrp">   -861.23108574 </i>
    <i name="e_0_energy">   -861.24283323 </i>
   </energy>
  </scstep>
  <scstep>
   <time name="diag">   43.54   43.58</time>
   <time name="diis">  110.93  110.98</time>
   <time name="orth">    6.85    6.85</time>
   <time name="total">  171.36  171.47</time>
   <energy>
    <i name="e_fr_energy">   -861.24870470 </i>
    <i name="e_wo_entrp">   -861.23112003 </i>
    <i name="e_0_energy">   -861.24284314 </i>
   </energy>
  </scstep>
  <scstep>
   <time name="diag">   31.42   31.45</time>
   <time name="diis">  109.62  109.68</time>
   <time name="orth">    8.47    8.47</time>
   <time name="total">  162.83  162.92</time>
   <energy>
    <i name="e_fr_energy">   -861.24870234 </i>
    <i name="e_wo_entrp">   -861.23115159 </i>
    <i name="e_0_energy">   -861.24285209 </i>
   </energy>
  </scstep>
  <scstep>
   <time name="diag">   43.40   43.41</time>
   <time name="diis">   98.26   98.28</time>
   <time name="orth">    6.85    6.86</time>
   <time name="total">  158.61  158.66</time>
   <energy>
    <i name="e_fr_energy">   -861.24870015 </i>
    <i name="e_wo_entrp">   -861.23118177 </i>
    <i name="e_0_energy">   -861.24286069 </i>
   </energy>
  </scstep>
  <scstep>
   <time name="diag">   32.62   32.63</time>
   <time name="diis">  108.39  108.44</time>
   <time name="orth">    8.38    8.38</time>
   <time name="total">  161.13  161.18</time>
   <energy>
    <i name="e_fr_energy">   -861.24869849 </i>
    <i name="e_wo_entrp">   -861.23120750 </i>
    <i name="e_0_energy">   -861.24286816 </i>
   </energy>
  </scstep>
  <scstep>
   <time name="diag">   34.32   34.34</time>
   <time name="diis">   87.36   87.37</time>
   <time name="orth">    7.74    7.75</time>
   <time name="total">  139.45  139.50</time>
   <energy>
    <i name="e_fr_energy">   -861.24869668 </i>
    <i name="e_wo_entrp">   -861.23123233 </i>
    <i name="e_0_energy">   -861.24287523 </i>
   </energy>
  </scstep>
  <scstep>
   <time name="diag">   32.53   32.55</time>
   <time name="diis">   85.04   85.08</time>
   <time name="orth">    7.17    7.17</time>
   <time name="total">  135.50  135.58</time>
   <energy>
    <i name="e_fr_energy">   -861.24869518 </i>
    <i name="e_wo_entrp">   -861.23125521 </i>
    <i name="e_0_energy">   -861.24288186 </i>
   </energy>
  </scstep>
  <scstep>
   <time name="diag">   34.48   34.49</time>
   <time name="diis">   74.21   74.23</time>
   <time name="orth">    6.32    6.32</time>
   <time name="total">  124.37  124.40</time>
   <energy>
    <i name="e_fr_energy">   -861.24869379 </i>
    <i name="e_wo_entrp">   -861.23127473 </i>
    <i name="e_0_energy">   -861.24288744 </i>
   </energy>
  </scstep>
  <scstep>
   <time name="diag">   28.08   28.11</time>
   <time name="diis">   69.44   69.45</time>
   <time name="orth">    7.23    7.23</time>
   <time name="total">  115.93  115.97</time>
   <energy>
    <i name="e_fr_energy">   -861.24869251 </i>
    <i name="e_wo_entrp">   -861.23129236 </i>
    <i name="e_0_energy">   -861.24289246 </i>
   </energy>
  </scstep>
  <scstep>
   <time name="diag">   34.81   34.81</time>
   <time name="diis">   81.95   81.96</time>
   <time name="orth">    7.31    7.31</time>
   <time name="total">  136.18  136.20</time>
   <energy>
    <i name="e_fr_energy">   -861.24869124 </i>
    <i name="e_wo_entrp">   -861.23130971 </i>
    <i name="e_0_energy">   -861.24289740 </i>
   </energy>
  </scstep>
  <scstep>
   <time name="diag">   36.40   36.42</time>
   <time name="diis">   82.61   82.62</time>
   <time name="orth">    7.31    7.32</time>
   <time name="total">  138.52  138.57</time>
   <energy>
    <i name="e_fr_energy">   -861.24869017 </i>
    <i name="e_wo_entrp">   -861.23132438 </i>
    <i name="e_0_energy">   -861.24290157 </i>
   </energy>
  </scstep>
  <scstep>
   <time name="diag">   34.63   34.63</time>
   <time name="diis">   89.48   89.51</time>
   <time name="orth">    8.07    8.07</time>
   <time name="total">  132.52  132.55</time>
   <energy>
    <i name="alphaZ">   7085.54738553 </i>
    <i name="ewald"> -64835.43503785 </i>
    <i name="hartreedc">  -9593.65491947 </i>
    <i name="XCdc">    328.90970118 </i>
    <i name="pawpsdc">  57142.14988358 </i>
    <i name="pawaedc"> -58022.58909284 </i>
    <i name="eentropy">     -0.01735146 </i>
    <i name="bandstr">   3797.81870393 </i>
    <i name="atom">  63236.02203821 </i>
    <i name="e_fr_energy">   -861.24868919 </i>
    <i name="e_wo_entrp">   -861.23133773 </i>
    <i name="e_0_energy">   -861.24290537 </i>
   </energy>
  </scstep>
  <structure>
   <crystal>
    <varray name="basis" >
     <v>      10.33484705       0.00000000       0.00000000 </v>
     <v>       0.00000000      10.33484705       0.00000000 </v>
     <v>       0.00000000       0.00000000      10.33484705 </v>
    </varray>
    <i name="volume">   1103.85533447 </i>
    <varray name="rec_basis" >
     <v>       0.09676002       0.00000000       0.00000000 </v>
     <v>       0.00000000       0.09676002       0.00000000 </v>
     <v>       0.00000000       0.00000000       0.09676002 </v>
    </varray>
   </crystal>
   <varray name="positions" >
    <v>       0.00000000       0.00000000       0.00000000 </v>
    <v>       0.00000000       0.16666893       0.16666893 </v>
    <v>       0.00000000       0.33333106       0.00000000 </v>
    <v>       0.00000000       0.50000000       0.16666894 </v>
    <v>       0.00000000       0.66666897       0.00000000 </v>
    <v>       0.00000000       0.83333104       0.16666893 </v>
    <v>       0.00000000       0.00000000       0.33333106 </v>
    <v>       0.00000000       0.16666894       0.50000000 </v>
    <v>       0.00000000       0.33333107       0.33333107 </v>
    <v>       0.00000000       0.50000000       0.50000000 </v>
    <v>       0.00000000       0.66666896       0.33333107 </v>
    <v>       0.00000000       0.83333103       0.50000000 </v>
    <v>       0.00000000       0.00000000       0.66666897 </v>
    <v>       0.00000000       0.16666893       0.83333104 </v>
    <v>       0.00000000       0.33333107       0.66666896 </v>
    <v>       0.00000000       0.50000000       0.83333103 </v>
    <v>       0.00000000       0.66666896       0.66666896 </v>
    <v>       0.00000000       0.83333104       0.83333104 </v>
    <v>       0.16666893       0.00000000       0.16666893 </v>
    <v>       0.16666893       0.16666893       0.00000000 </v>
    <v>       0.16666893       0.83333104       0.00000000 </v>
    <v>       0.16666893       0.33333107       0.50000000 </v>
    <v>       0.16666893       0.50000000       0.33333107 </v>
    <v>       0.16666893       0.66666896       0.50000000 </v>
    <v>       0.16666893       0.00000000       0.83333104 </v>
    <v>       0.16666893       0.50000000       0.66666896 </v>
    <v>       0.16666893       0.33333107       0.16666893 </v>
    <v>       0.16666893       0.66666896       0.16666893 </v>
    <v>       0.16666893       0.16666893       0.33333107 </v>
    <v>       0.16666893       0.83333104       0.33333107 </v>
    <v>       0.16666893       0.16666893       0.66666896 </v>
    <v>       0.16666893       0.33333107       0.83333104 </v>
    <v>       0.16666893       0.66666896       0.83333104 </v>
    <v>       0.16666893       0.83333104       0.66666896 </v>
    <v>       0.16666894       0.50000000       0.00000000 </v>
    <v>       0.16666894       0.00000000       0.50000000 </v>
    <v>       0.33333106       0.00000000       0.00000000 </v>
    <v>       0.33333107       0.16666893       0.16666893 </v>
    <v>       0.33333107       0.83333104       0.16666893 </v>
    <v>       0.33333107       0.33333107       0.33333107 </v>
    <v>       0.33333107       0.66666896       0.33333107 </v>
    <v>       0.33333107       0.16666893       0.83333104 </v>
    <v>       0.33333107       0.33333107       0.66666896 </v>
    <v>       0.33333107       0.66666896       0.66666896 </v>
    <v>       0.33333107       0.83333104       0.83333104 </v>
    <v>       0.33333107       0.33333107       0.00000000 </v>
    <v>       0.33333107       0.50000000       0.16666893 </v>
    <v>       0.33333107       0.66666896       0.00000000 </v>
    <v>       0.33333107       0.00000000       0.33333107 </v>
    <v>       0.33333107       0.16666893       0.50000000 </v>
    <v>       0.33333107       0.83333104       0.50000000 </v>
    <v>       0.33333107       0.00000000       0.66666896 </v>
    <v>       0.33333107       0.50000000       0.83333104 </v>
    <v>       0.50000000       0.00000000       0.16666894 </v>
    <v>       0.50000000       0.16666894       0.00000000 </v>
    <v>       0.50000000       0.33333107       0.16666893 </v>
    <v>       0.50000000       0.50000000       0.00000000 </v>
    <v>       0.50000000       0.66666896       0.16666893 </v>
    <v>       0.50000000       0.83333103       0.00000000 </v>
    <v>       0.50000000       0.00000000       0.50000000 </v>
    <v>       0.50000000       0.16666893       0.33333107 </v>
    <v>       0.50000000       0.33333106       0.50000000 </v>
    <v>       0.50000000       0.50000000       0.33333106 </v>
    <v>       0.50000000       0.66666897       0.50000000 </v>
    <v>       0.50000000       0.83333104       0.33333107 </v>
    <v>       0.50000000       0.00000000       0.83333103 </v>
    <v>       0.50000000       0.16666893       0.66666896 </v>
    <v>       0.50000000       0.33333107       0.83333104 </v>
    <v>       0.50000000       0.66666896       0.83333104 </v>
    <v>       0.50000000       0.83333104       0.66666896 </v>
    <v>       0.66666896       0.33333107       0.00000000 </v>
    <v>       0.66666896       0.50000000       0.16666893 </v>
    <v>       0.66666896       0.66666896       0.00000000 </v>
    <v>       0.66666896       0.00000000       0.33333107 </v>
    <v>       0.66666896       0.16666893       0.50000000 </v>
    <v>       0.66666896       0.83333104       0.50000000 </v>
    <v>       0.66666896       0.00000000       0.66666896 </v>
    <v>       0.66666896       0.50000000       0.83333104 </v>
    <v>       0.66666896       0.16666893       0.16666893 </v>
    <v>       0.66666896       0.83333104       0.16666893 </v>
    <v>       0.66666896       0.33333107       0.33333107 </v>
    <v>       0.50000000       0.50000000       0.66666667 </v>
    <v>       0.66666896       0.16666893       0.83333104 </v>
    <v>       0.66666896       0.33333107       0.66666896 </v>
    <v>       0.66666896       0.66666896       0.66666896 </v>
    <v>       0.66666896       0.83333104       0.83333104 </v>
    <v>       0.66666897       0.00000000       0.00000000 </v>
    <v>       0.66666897       0.50000000       0.50000000 </v>
    <v>       0.83333103       0.50000000       0.00000000 </v>
    <v>       0.83333103       0.00000000       0.50000000 </v>
    <v>       0.83333104       0.33333107       0.16666893 </v>
    <v>       0.83333104       0.66666896       0.16666893 </v>
    <v>       0.83333104       0.16666893       0.33333107 </v>
    <v>       0.83333104       0.83333104       0.33333107 </v>
    <v>       0.83333104       0.16666893       0.66666896 </v>
    <v>       0.83333104       0.33333107       0.83333104 </v>
    <v>       0.83333104       0.66666896       0.83333104 </v>
    <v>       0.83333104       0.83333104       0.66666896 </v>
    <v>       0.83333104       0.00000000       0.16666893 </v>
    <v>       0.83333104       0.16666893       0.00000000 </v>
    <v>       0.83333104       0.83333104       0.00000000 </v>
    <v>       0.83333104       0.33333107       0.50000000 </v>
    <v>       0.83333104       0.50000000       0.33333107 </v>
    <v>       0.83333104       0.66666896       0.50000000 </v>
    <v>       0.83333104       0.00000000       0.83333104 </v>
    <v>       0.83333104       0.50000000       0.66666896 </v>
    <v>       0.33333106       0.50000000       0.50000000 </v>
   </varray>
  </structure>
  <varray name="forces" >
   <v>      -0.03071106       0.02938739      -0.02938797 </v>
   <v>      -0.00736102       0.01437694       0.01199651 </v>
   <v>       0.01674071      -0.01344066      -0.02479396 </v>
   <v>       0.15467830      -0.01647347       0.16085924 </v>
   <v>      -0.21081875      -0.00786200       0.20084094 </v>
   <v>      -0.00181932       0.00440757      -0.00440663 </v>
   <v>      -0.21081816      -0.20084391       0.00786297 </v>
   <v>       0.16006692       0.16940584      -0.00274567 </v>
   <v>      -0.17787577       0.17195610      -0.03993450 </v>
   <v>      -0.07541712      -0.02272738       0.02272488 </v>
   <v>      -0.18567941       0.03593650      -0.03593634 </v>
   <v>       0.15467790      -0.16084880       0.01647374 </v>
   <v>       0.01674105       0.02479202       0.01343928 </v>
   <v>       0.05563829       0.00314325      -0.00314505 </v>
   <v>       0.05715961      -0.05790772       0.05790145 </v>
   <v>       0.16006414       0.00274604      -0.16940703 </v>
   <v>      -0.17787487       0.03993611      -0.17195887 </v>
   <v>      -0.00736080      -0.01199446      -0.01437658 </v>
   <v>       0.02023436      -0.02375284      -0.00063541 </v>
   <v>       0.01299812      -0.00728034      -0.05714879 </v>
   <v>       0.02023401       0.00063764       0.02375273 </v>
   <v>      -1.44183313      -1.42433241      -0.00368988 </v>
   <v>      -1.40441254       0.01377643      -1.40692547 </v>
   <v>      -1.40440758       1.40692072      -0.01377704 </v>
   <v>       0.01299900       0.05714807       0.00727577 </v>
   <v>      -1.44183477       0.00369137       1.42432930 </v>
   <v>      -0.04013848      -0.01739255       0.03179306 </v>
   <v>      -0.03160248       0.03344803       0.02518912 </v>
   <v>      -0.01160761       0.02966884      -0.03352387 </v>
   <v>      -0.03160321      -0.02518456      -0.03344676 </v>
   <v>      -0.03390368       0.02205582       0.08688761 </v>
   <v>      -0.03390281      -0.08689086      -0.02205711 </v>
   <v>      -0.01160539       0.03352627      -0.02967162 </v>
   <v>      -0.04013783      -0.03178886       0.01739085 </v>
   <v>      -0.00615332       0.00435069       0.00388844 </v>
   <v>      -0.00616207      -0.00389767      -0.00434811 </v>
   <v>      -0.03230253       0.03254170      -0.03254717 </v>
   <v>       0.01896091       0.15620513       0.18028035 </v>
   <v>       0.00174481      -0.15614522       0.15614547 </v>
   <v>       0.18934700      -1.24959949      -1.42253576 </v>
   <v>       0.17941654       1.44096442      -1.44096455 </v>
   <v>      -0.05432967       0.16053133      -0.16053205 </v>
   <v>      -0.01431768      -1.42502866       1.42502074 </v>
   <v>       0.18934059       1.42254765       1.24960701 </v>
   <v>       0.01895951      -0.18027698      -0.15620599 </v>
   <v>      -0.02977051      -0.03321672      -0.03147951 </v>
   <v>       0.00164513      -0.00311524      -0.10207431 </v>
   <v>       0.18415007       0.01133883       0.19527482 </v>
   <v>       0.18414744      -0.19528105      -0.01134119 </v>
   <v>       0.00930615      -0.08415834      -0.00652413 </v>
   <v>       0.00164357       0.10208538       0.00311682 </v>
   <v>      -0.02977283       0.03147199       0.03321685 </v>
   <v>       0.00932696       0.00652514       0.08414366 </v>
   <v>      -0.02259846      -0.00653597      -0.01927521 </v>
   <v>      -0.00800508      -0.01219451       0.01194753 </v>
   <v>       0.02564835      -0.00971309       0.02210843 </v>
   <v>      -0.00338921      -0.01302876       0.00695073 </v>
   <v>       0.07196906       0.04285197       0.06547149 </v>
   <v>      -0.02259698       0.01927205       0.00652316 </v>
   <v>      -0.00339146      -0.00696582       0.01302924 </v>
   <v>       0.04844134       0.02424484      -0.03716078 </v>
   <v>       1.42036926      -1.43189054       0.03253935 </v>
   <v>       1.47124530       0.20598756      -1.30340788 </v>
   <v>       1.47124452       1.30343099      -0.20600412 </v>
   <v>       0.07197188      -0.06545960      -0.04286074 </v>
   <v>      -0.00800704      -0.01195992       0.01220228 </v>
   <v>       0.04126732       0.02012746       0.01719275 </v>
   <v>       0.04127107      -0.01717692      -0.02013674 </v>
   <v>       0.04844470       0.03713526      -0.02426176 </v>
   <v>       0.02564801      -0.02210218       0.00971068 </v>
   <v>       0.00086570       0.21958028       0.19599946 </v>
   <v>      -0.14846078       0.02939306       0.16002536 </v>
   <v>       0.00916459      -0.01085432       0.19022536 </v>
   <v>       0.00916669      -0.19023506       0.01085152 </v>
   <v>      -0.16350085       0.17069348      -0.01635156 </v>
   <v>      -0.14846431      -0.16002199      -0.02939564 </v>
   <v>       0.00086979      -0.19600714      -0.21957812 </v>
   <v>      -0.16351470       0.01635163      -0.17070420 </v>
   <v>      -0.00014003       0.00326949       0.03151976 </v>
   <v>      -0.00155081      -0.04937472       0.04937671 </v>
   <v>      -0.01579496       0.15412419      -0.02430445 </v>
   <v>       1.42041429      -0.03255652       1.43215345 </v>
   <v>       0.00164549       0.00297513      -0.00297162 </v>
   <v>      -0.03120601       0.17027929      -0.17028397 </v>
   <v>      -0.01579642       0.02429980      -0.15412973 </v>
   <v>      -0.00013988      -0.03151928      -0.00326689 </v>
   <v>       0.05927197      -0.19829136       0.19828693 </v>
   <v>       0.12267402       0.01325111      -0.01327132 </v>
   <v>       0.00261880      -0.00846472       0.01770653 </v>
   <v>       0.00263381      -0.01771947       0.00846640 </v>
   <v>       0.01505184       0.01366987      -0.01850402 </v>
   <v>      -0.04845364      -0.00592884       0.03314924 </v>
   <v>      -0.01902487      -0.01070547       0.01160139 </v>
   <v>      -0.04845487      -0.03314687       0.00592955 </v>
   <v>      -0.00594505      -0.00175598      -0.02452982 </v>
   <v>      -0.00594909       0.02452678       0.00175612 </v>
   <v>      -0.01902865      -0.01159803       0.01070584 </v>
   <v>       0.01505301       0.01850573      -0.01367382 </v>
   <v>       0.00483618      -0.01218827      -0.06596657 </v>
   <v>      -0.00374137      -0.05964563       0.00908957 </v>
   <v>       0.00483513       0.06596789       0.01218596 </v>
   <v>       0.00309007      -0.01008549       0.01015431 </v>
   <v>      -0.06325146       0.05744245      -0.00282536 </v>
   <v>      -0.06326077       0.00281298      -0.05744044 </v>
   <v>      -0.00374168      -0.00909076       0.05964366 </v>
   <v>       0.00308595      -0.01015252       0.01008425 </v>
   <v>      -0.02007643      -0.00990665       0.00982746 </v>
  </varray>
  <varray name="stress" >
   <v>      18.34684100      -0.23600788       0.23600949 </v>
   <v>      -0.23600784      18.00025406      -0.34224581 </v>
   <v>       0.23600940      -0.34224578      18.00029026 </v>
  </varray>
  <energy>
   <i name="e_fr_energy">   -861.24868919 </i>
   <i name="e_wo_entrp">   -861.24290537 </i>
   <i name="e_0_energy">     -0.01735146 </i>
  </energy>
  <time name="totalsc">10031.8410034.66</time>
 </calculation>
 <calculation>
  <scstep>
   <time name="dav">  313.44  313.53</time>
   <time name="total">  323.90  323.99</time>
   <energy>
    <i name="alphaZ">   7085.54738553 </i>
    <i name="ewald"> -64769.35464330 </i>
    <i name="hartreedc">  -9664.75324548 </i>
    <i name="XCdc">    329.15707993 </i>
    <i name="pawpsdc">  57142.14866513 </i>
    <i name="pawaedc"> -58022.58784874 </i>
    <i name="eentropy">      0.01150883 </i>
    <i name="bandstr">   3801.53781243 </i>
    <i name="atom">  63236.02203821 </i>
    <i name="e_fr_energy">   -862.27124747 </i>
    <i name="e_wo_entrp">   -862.28275629 </i>
    <i name="e_0_energy">   -862.27508374 </i>
   </energy>
  </scstep>
  <scstep>
   <time name="diag">   37.75   37.75</time>
   <time name="diis">  236.09  236.17</time>
   <time name="orth">    6.50    6.51</time>
   <time name="total">  289.92  290.02</time>
   <energy>
    <i name="e_fr_energy">   -910.81020464 </i>
    <i name="e_wo_entrp">   -910.78990135 </i>
    <i name="e_0_energy">   -910.80343687 </i>
   </energy>
  </scstep>
  <scstep>
   <time name="diag">   30.64   30.64</time>
   <time name="diis">  194.36  194.39</time>
   <time name="orth">    7.14    7.14</time>
   <time name="total">  243.26  243.30</time>
   <energy>
    <i name="e_fr_energy">   -865.38751884 </i>
    <i name="e_wo_entrp">   -865.37898602 </i>
    <i name="e_0_energy">   -865.38467456 </i>
   </energy>
  </scstep>
  <scstep>
   <time name="diag">   32.34   32.36</time>
   <time name="diis">  198.06  198.21</time>
   <time name="orth">    7.94    7.94</time>
   <time name="total">  250.86  251.03</time>
   <energy>
    <i name="e_fr_energy">   -863.00097355 </i>
    <i name="e_wo_entrp">   -862.98428305 </i>
    <i name="e_0_energy">   -862.99541005 </i>
   </energy>
  </scstep>
  <scstep>
   <time name="diag">   38.74   38.75</time>
   <time name="diis">  242.29  242.41</time>
   <time name="orth">    7.92    7.92</time>
   <time name="total">  300.40  300.53</time>
   <energy>
    <i name="e_fr_energy">   -862.92475075 </i>
    <i name="e_wo_entrp">   -862.91088765 </i>
    <i name="e_0_energy">   -862.92012972 </i>
   </energy>
  </scstep>
  <scstep>
   <time name="diag">   34.24   34.24</time>
   <time name="diis">  228.32  228.32</time>
   <time name="orth">    6.49    6.49</time>
   <time name="total">  278.61  278.62</time>
   <energy>
    <i name="e_fr_energy">   -862.82590706 </i>
    <i name="e_wo_entrp">   -862.82695299 </i>
    <i name="e_0_energy">   -862.82625570 </i>
   </energy>
  </scstep>
  <scstep>
   <time name="diag">   32.45   32.47</time>
   <time name="diis">  248.98  249.04</time>
   <time name="orth">    6.48    6.48</time>
   <time name="total">  297.15  297.23</time>
   <energy>
    <i name="e_fr_energy">   -862.88395093 </i>
    <i name="e_wo_entrp">   -862.88492615 </i>
    <i name="e_0_energy">   -862.88427600 </i>
   </energy>
  </scstep>
  <scstep>
   <time name="diag">   33.39   33.40</time>
   <time name="diis">  182.87  182.90</time>
   <time name="orth">    6.94    6.94</time>
   <time name="total">  232.49  232.53</time>
   <energy>
    <i name="e_fr_energy">   -862.69244670 </i>
    <i name="e_wo_entrp">   -862.68385255 </i>
    <i name="e_0_energy">   -862.68958198 </i>
   </energy>
  </scstep>
  <scstep>
   <time name="diag">   28.91   28.90</time>
   <time name="diis">  184.83  184.83</time>
   <time name="orth">    7.21    7.22</time>
   <time name="total">  232.12  232.15</time>
   <energy>
    <i name="e_fr_energy">   -862.68947175 </i>
    <i name="e_wo_entrp">   -862.68336060 </i>
    <i name="e_0_energy">   -862.68743470 </i>
   </energy>
  </scstep>
  <scstep>
   <time name="diag">   36.13   36.13</time>
   <time name="diis">  222.59  222.61</time>
   <time name="orth">    7.38    7.38</time>
   <time name="total">  278.59  278.63</time>
   <energy>
    <i name="e_fr_energy">   -862.75008397 </i>
    <i name="e_wo_entrp">   -862.73843776 </i>
    <i name="e_0_energy">   -862.74620190 </i>
   </energy>
  </scstep>
  <scstep>
   <time name="diag">   41.22   41.25</time>
   <time name="diis">  182.00  182.05</time>
   <time name="orth">    6.30    6.29</time>
   <time name="total">  240.57  240.64</time>
   <energy>
    <i name="e_fr_energy">   -862.69432957 </i>
    <i name="e_wo_entrp">   -862.68257265 </i>
    <i name="e_0_energy">   -862.69041059 </i>
   </energy>
  </scstep>
  <scstep>
   <time name="diag">   34.82   34.82</time>
   <time name="diis">  243.55  243.59</time>
   <time name="orth">    6.73    6.72</time>
   <time name="total">  296.56  296.60</time>
   <energy>
    <i name="e_fr_energy">   -862.68434963 </i>
    <i name="e_wo_entrp">   -862.67426776 </i>
    <i name="e_0_energy">   -862.68098901 </i>
   </energy>
  </scstep>
  <scstep>
   <time name="diag">   39.29   39.31</time>
   <time name="diis">  208.46  208.52</time>
   <time name="orth">    6.45    6.45</time>
   <time name="total">  263.83  263.92</time>
   <energy>
    <i name="e_fr_energy">   -862.66372928 </i>
    <i name="e_wo_entrp">   -862.65508361 </i>
    <i name="e_0_energy">   -862.66084739 </i>
   </energy>
  </scstep>
  <scstep>
   <time name="diag">   30.22   30.22</time>
   <time name="diis">  274.90  274.94</time>
   <time name="orth">    6.45    6.45</time>
   <time name="total">  321.18  321.23</time>
   <energy>
    <i name="e_fr_energy">   -862.66271600 </i>
    <i name="e_wo_entrp">   -862.65415400 </i>
    <i name="e_0_energy">   -862.65986200 </i>
   </energy>
  </scstep>
  <scstep>
   <time name="diag">   29.46   29.47</time>
   <time name="diis">  247.69  247.73</time>
   <time name="orth">    6.45    6.46</time>
   <time name="total">  293.20  293.24</time>
   <energy>
    <i name="e_fr_energy">   -862.66154842 </i>
    <i name="e_wo_entrp">   -862.65376450 </i>
    <i name="e_0_energy">   -862.65895378 </i>
   </energy>
  </scstep>
  <scstep>
   <time name="diag">   29.91   29.91</time>
   <time name="diis">  261.64  261.71</time>
   <time name="orth">    6.44    6.44</time>
   <time name="total">  307.58  307.66</time>
   <energy>
    <i name="e_fr_energy">   -862.66126697 </i>
    <i name="e_wo_entrp">   -862.65368331 </i>
    <i name="e_0_energy">   -862.65873908 </i>
   </energy>
  </scstep>
  <scstep>
   <time name="diag">   30.01   30.02</time>
   <time name="diis">  251.61  251.64</time>
   <time name="orth">    6.47    6.47</time>
   <time name="total">  297.82  297.87</time>
   <energy>
    <i name="e_fr_energy">   -862.66149899 </i>
    <i name="e_wo_entrp">   -862.65396188 </i>
    <i name="e_0_energy">   -862.65898662 </i>
   </energy>
  </scstep>
  <scstep>
   <time name="diag">   32.10   32.10</time>
   <time name="diis">  210.82  210.90</time>
   <time name="orth">    6.47    6.47</time>
   <time name="total">  258.95  259.05</time>
   <energy>
    <i name="e_fr_energy">   -862.66128334 </i>
    <i name="e_wo_entrp">   -862.65369157 </i>
    <i name="e_0_energy">   -862.65875275 </i>
   </energy>
  </scstep>
  <scstep>
   <time name="diag">   30.10   30.11</time>
   <time name="diis">  255.57  255.59</time>
   <time name="orth">    6.47    6.47</time>
   <time name="total">  301.71  301.75</time>
   <energy>
    <i name="e_fr_energy">   -862.66125420 </i>
    <i name="e_wo_entrp">   -862.65364099 </i>
    <i name="e_0_energy">   -862.65871647 </i>
   </energy>
  </scstep>
  <scstep>
   <time name="diag">   29.48   29.48</time>
   <time name="diis">  201.97  202.00</time>
   <time name="orth">    6.46    6.46</time>
   <time name="total">  247.47  247.50</time>
   <energy>
    <i name="e_fr_energy">   -862.66117178 </i>
    <i name="e_wo_entrp">   -862.65345239 </i>
    <i name="e_0_energy">   -862.65859865 </i>
   </energy>
  </scstep>
  <scstep>
   <time name="diag">   30.65   30.66</time>
   <time name="diis">  215.83  215.86</time>
   <time name="orth">    7.15    7.15</time>
   <time name="total">  264.57  264.61</time>
   <energy>
    <i name="e_fr_energy">   -862.66111811 </i>
    <i name="e_wo_entrp">   -862.65330087 </i>
    <i name="e_0_energy">   -862.65851236 </i>
   </energy>
  </scstep>
  <scstep>
   <time name="diag">   33.44   33.45</time>
   <time name="diis">  250.28  250.30</time>
   <time name="orth">    6.33    6.33</time>
   <time name="total">  299.49  299.52</time>
   <energy>
    <i name="e_fr_energy">   -862.66112220 </i>
    <i name="e_wo_entrp">   -862.65330010 </i>
    <i name="e_0_energy">   -862.65851483 </i>
   </energy>
  </scstep>
  <scstep>
   <time name="diag">   28.92   28.92</time>
   <time name="diis">  201.51  201.56</time>
   <time name="orth">    7.27    7.27</time>
   <time name="total">  249.24  249.29</time>
   <energy>
    <i name="e_fr_energy">   -862.66112056 </i>
    <i name="e_wo_entrp">   -862.65327079 </i>
    <i name="e_0_energy">   -862.65850397 </i>
   </energy>
  </scstep>
  <scstep>
   <time name="diag">   36.25   36.26</time>
   <time name="diis">  150.67  150.75</time>
   <time name="orth">    6.75    6.75</time>
   <time name="total">  204.74  204.83</time>
   <energy>
    <i name="e_fr_energy">   -862.66111922 </i>
    <i name="e_wo_entrp">   -862.65327648 </i>
    <i name="e_0_energy">   -862.65850497 </i>
   </energy>
  </scstep>
  <scstep>
   <time name="diag">   37.61   37.62</time>
   <time name="diis">  136.18  136.27</time>
   <time name="orth">    7.13    7.13</time>
   <time name="total">  181.21  181.31</time>
   <energy>
    <i name="alphaZ">   7085.54738553 </i>
    <i name="ewald"> -64769.35464330 </i>
    <i name="hartreedc">  -9663.85453392 </i>
    <i name="XCdc">    328.83534775 </i>
    <i name="pawpsdc">  57161.16156392 </i>
    <i name="pawaedc"> -58042.01611162 </i>
    <i name="eentropy">     -0.00783581 </i>
    <i name="bandstr">   3801.00567058 </i>
    <i name="atom">  63236.02203821 </i>
    <i name="e_fr_energy">   -862.66111867 </i>
    <i name="e_wo_entrp">   -862.65328286 </i>
    <i name="e_0_energy">   -862.65850673 </i>
   </energy>
  </scstep>
  <structure>
   <crystal>
    <varray name="basis" >
     <v>      10.33484705       0.00000000       0.00000000 </v>
     <v>       0.00000000      10.33484705       0.00000000 </v>
     <v>       0.00000000       0.00000000      10.33484705 </v>
    </varray>
    <i name="volume">   1103.85533447 </i>
    <varray name="rec_basis" >
     <v>       0.09676002       0.00000000       0.00000000 </v>
     <v>       0.00000000       0.09676002       0.00000000 </v>
     <v>       0.00000000       0.00000000       0.09676002 </v>
    </varray>
   </crystal>
   <varray name="positions" >
    <v>      -0.00014336       0.00013718      -0.00013718 </v>
    <v>      -0.00003436       0.16673604       0.16672493 </v>
    <v>       0.00007814       0.33326832      -0.00011574 </v>
    <v>       0.00072203       0.49992310       0.16741982 </v>
    <v>      -0.00098409       0.66663227       0.00093752 </v>
    <v>      -0.00000849       0.83335161       0.16664836 </v>
    <v>      -0.00098409      -0.00093753       0.33336777 </v>
    <v>       0.00074719       0.16745972       0.49998718 </v>
    <v>      -0.00083032       0.33413375       0.33314465 </v>
    <v>      -0.00035204       0.49989391       0.50010608 </v>
    <v>      -0.00086674       0.66683671       0.33316332 </v>
    <v>       0.00072203       0.83258020       0.50007690 </v>
    <v>       0.00007815       0.00011573       0.66673170 </v>
    <v>       0.00025972       0.16668361       0.83331636 </v>
    <v>       0.00026682       0.33306076       0.66693924 </v>
    <v>       0.00074717       0.50001282       0.83254025 </v>
    <v>      -0.00083031       0.66685538       0.66586626 </v>
    <v>      -0.00003436       0.83327505       0.83326393 </v>
    <v>       0.16676339      -0.00011088       0.16666597 </v>
    <v>       0.16672961       0.16663495      -0.00026677 </v>
    <v>       0.16676338       0.83333401       0.00011088 </v>
    <v>       0.15993851       0.32668234       0.49998278 </v>
    <v>       0.16011319       0.50006431       0.32676359 </v>
    <v>       0.16011321       0.67323641       0.49993569 </v>
    <v>       0.16672961       0.00026676       0.83336500 </v>
    <v>       0.15993851       0.50001723       0.67331767 </v>
    <v>       0.16648157       0.33324988       0.16681734 </v>
    <v>       0.16652141       0.66682510       0.16678652 </v>
    <v>       0.16661475       0.16680743       0.33317458 </v>
    <v>       0.16652141       0.83321348       0.33317494 </v>
    <v>       0.16651067       0.16677189       0.66707455 </v>
    <v>       0.16651068       0.33292546       0.83322808 </v>
    <v>       0.16661476       0.66682546       0.83319253 </v>
    <v>       0.16648157       0.83318265       0.66675014 </v>
    <v>       0.16664021       0.50002031       0.00001815 </v>
    <v>       0.16664017      -0.00001819       0.49997970 </v>
    <v>       0.33318028       0.00015190      -0.00015193 </v>
    <v>       0.33341957       0.16739809       0.16751048 </v>
    <v>       0.33333921       0.83260216       0.16739781 </v>
    <v>       0.33421493       0.32749799       0.32669073 </v>
    <v>       0.33416858       0.67339533       0.32660470 </v>
    <v>       0.33307746       0.16741829       0.83258168 </v>
    <v>       0.33326423       0.32667909       0.67332090 </v>
    <v>       0.33421490       0.67330936       0.67250208 </v>
    <v>       0.33341957       0.83248951       0.83260187 </v>
    <v>       0.33319210       0.33317601      -0.00014695 </v>
    <v>       0.33333875       0.49998546       0.16619245 </v>
    <v>       0.33419067       0.66672189       0.00091154 </v>
    <v>       0.33419066      -0.00091156       0.33327813 </v>
    <v>       0.33337451       0.16627609       0.49996955 </v>
    <v>       0.33333874       0.83380757       0.50001455 </v>
    <v>       0.33319209       0.00014691       0.66682402 </v>
    <v>       0.33337460       0.50003046       0.83372382 </v>
    <v>       0.49989451      -0.00003051       0.16657896 </v>
    <v>       0.49996263       0.16661201       0.00005577 </v>
    <v>       0.50011973       0.33328573       0.16677213 </v>
    <v>       0.49998418       0.49993918       0.00003245 </v>
    <v>       0.50033595       0.66686899       0.16697455 </v>
    <v>       0.49989452       0.83342099       0.00003045 </v>
    <v>       0.49998417      -0.00003252       0.50006082 </v>
    <v>       0.50022612       0.16678211       0.33315760 </v>
    <v>       0.50663023       0.32664705       0.50015189 </v>
    <v>       0.50686771       0.50096154       0.32724681 </v>
    <v>       0.50686771       0.67275333       0.49903838 </v>
    <v>       0.50033596       0.83302548       0.33313099 </v>
    <v>       0.49996262      -0.00005583       0.83338799 </v>
    <v>       0.50019263       0.16676289       0.66674922 </v>
    <v>       0.50019265       0.33325089       0.83323704 </v>
    <v>       0.50022614       0.66684231       0.83321779 </v>
    <v>       0.50011972       0.83322787       0.66671429 </v>
    <v>       0.66667300       0.33435606       0.00091492 </v>
    <v>       0.66597595       0.50013721       0.16741592 </v>
    <v>       0.66671174       0.66661829       0.00088796 </v>
    <v>       0.66671175      -0.00088801       0.33338172 </v>
    <v>       0.66590575       0.16746572       0.49992367 </v>
    <v>       0.66597594       0.83258406       0.49986278 </v>
    <v>       0.66667302      -0.00091495       0.66564398 </v>
    <v>       0.66590568       0.50007633       0.83253420 </v>
    <v>       0.66666831       0.16668420       0.16681607 </v>
    <v>       0.66666172       0.83310056       0.16689942 </v>
    <v>       0.66659523       0.33405051       0.33321761 </v>
    <v>       0.50663044       0.49984803       0.67335190 </v>
    <v>       0.66667664       0.16668282       0.83331717 </v>
    <v>       0.66652329       0.33412592       0.66587408 </v>
    <v>       0.66659523       0.66678239       0.66594949 </v>
    <v>       0.66666831       0.83318391       0.83331579 </v>
    <v>       0.66694565      -0.00092562       0.00092560 </v>
    <v>       0.66724160       0.50006186       0.49993805 </v>
    <v>       0.83334326       0.49996049       0.00008265 </v>
    <v>       0.83334333      -0.00008271       0.50003952 </v>
    <v>       0.83340130       0.33339488       0.16658256 </v>
    <v>       0.83310486       0.66664129       0.16682367 </v>
    <v>       0.83324223       0.16661896       0.33338522 </v>
    <v>       0.83310485       0.83317631       0.33335874 </v>
    <v>       0.83330329       0.16666074       0.66655446 </v>
    <v>       0.83330327       0.33344556       0.83333923 </v>
    <v>       0.83324221       0.66661482       0.83338101 </v>
    <v>       0.83340130       0.83341742       0.66660513 </v>
    <v>       0.83335361      -0.00005689       0.16636100 </v>
    <v>       0.83331357       0.16639051       0.00004243 </v>
    <v>       0.83335361       0.83363897       0.00005688 </v>
    <v>       0.83334546       0.33328399       0.50004740 </v>
    <v>       0.83303578       0.50026814       0.33331788 </v>
    <v>       0.83303574       0.66668209       0.49973187 </v>
    <v>       0.83331357      -0.00004244       0.83360945 </v>
    <v>       0.83334544       0.49995261       0.66671603 </v>
    <v>       0.33323735       0.49995376       0.50004587 </v>
[...]
       <r>    -6.1092    -0.0000     2.0000 </r>
       <r>    -6.0467    -0.0000     2.0000 </r>
       <r>    -5.9842    -0.0000     2.0000 </r>
       <r>    -5.9217    -0.0000     2.0000 </r>
       <r>    -5.8592    -0.0000     2.0000 </r>
       <r>    -5.7967    -0.0000     2.0000 </r>
       <r>    -5.7343    -0.0000     2.0000 </r>
       <r>    -5.6718    -0.0000     2.0000 </r>
       <r>    -5.6093     0.0000     2.0000 </r>
       <r>    -5.5468     0.0000     2.0000 </r>
       <r>    -5.4843     0.0000     2.0000 </r>
       <r>    -5.4218     0.0000     2.0000 </r>
       <r>    -5.3594     0.0000     2.0000 </r>
       <r>    -5.2969     0.0000     2.0000 </r>
       <r>    -5.2344     0.0000     2.0000 </r>
       <r>    -5.1719     0.0000     2.0000 </r>
       <r>    -5.1094     0.0000     2.0000 </r>
       <r>    -5.0469     0.0000     2.0000 </r>
       <r>    -4.9845     0.0000     2.0000 </r>
       <r>    -4.9220     0.0000     2.0000 </r>
       <r>    -4.8595     0.0000     2.0000 </r>
       <r>    -4.7970     0.0000     2.0000 </r>
       <r>    -4.7345     0.0000     2.0000 </r>
       <r>    -4.6720     0.0000     2.0000 </r>
       <r>    -4.6096     0.0000     2.0000 </r>
       <r>    -4.5471     0.0000     2.0000 </r>
       <r>    -4.4846     0.0000     2.0000 </r>
       <r>    -4.4221     0.0000     2.0000 </r>
       <r>    -4.3596     0.0000     2.0000 </r>
       <r>    -4.2971     0.0000     2.0000 </r>
       <r>    -4.2347     0.0000     2.0000 </r>
       <r>    -4.1722     0.0000     2.0000 </r>
       <r>    -4.1097     0.0000     2.0000 </r>
       <r>    -4.0472     0.0000     2.0000 </r>
       <r>    -3.9847     0.0000     2.0000 </r>
       <r>    -3.9223     0.0000     2.0000 </r>
       <r>    -3.8598     0.0000     2.0000 </r>
       <r>    -3.7973     0.0000     2.0000 </r>
       <r>    -3.7348     0.0000     2.0000 </r>
       <r>    -3.6723     0.0000     2.0000 </r>
       <r>    -3.6098     0.0000     2.0000 </r>
       <r>    -3.5474     0.0000     2.0000 </r>
       <r>    -3.4849     0.0000     2.0000 </r>
       <r>    -3.4224     0.0000     2.0000 </r>
       <r>    -3.3599     0.0000     2.0000 </r>
       <r>    -3.2974    -0.0000     2.0000 </r>
       <r>    -3.2349    -0.0000     2.0000 </r>
       <r>    -3.1725    -0.0000     2.0000 </r>
       <r>    -3.1100    -0.0000     2.0000 </r>
       <r>    -3.0475    -0.0000     2.0000 </r>
       <r>    -2.9850    -0.0000     2.0000 </r>
       <r>    -2.9225    -0.0000     2.0000 </r>
       <r>    -2.8600    -0.0000     2.0000 </r>
       <r>    -2.7976    -0.0000     2.0000 </r>
       <r>    -2.7351    -0.0000     2.0000 </r>
       <r>    -2.6726    -0.0000     2.0000 </r>
       <r>    -2.6101    -0.0000     2.0000 </r>
       <r>    -2.5476    -0.0000     2.0000 </r>
       <r>    -2.4851    -0.0000     2.0000 </r>
       <r>    -2.4227    -0.0000     2.0000 </r>
       <r>    -2.3602    -0.0000     2.0000 </r>
       <r>    -2.2977    -0.0002     2.0000 </r>
       <r>    -2.2352    -0.0012     1.9999 </r>
       <r>    -2.1727    -0.0049     1.9996 </r>
       <r>    -2.1102    -0.0167     1.9986 </r>
       <r>    -2.0478    -0.0448     1.9958 </r>
       <r>    -1.9853    -0.0911     1.9901 </r>
       <r>    -1.9228    -0.1280     1.9821 </r>
       <r>    -1.8603    -0.0717     1.9776 </r>
       <r>    -1.7978     0.2135     1.9909 </r>
       <r>    -1.7353     0.8515     2.0441 </r>
       <r>    -1.6729     1.8478     2.1596 </r>
       <r>    -1.6104     3.0127     2.3479 </r>
       <r>    -1.5479     4.0093     2.5984 </r>
       <r>    -1.4854     4.5492     2.8826 </r>
       <r>    -1.4229     4.6290     3.1718 </r>
       <r>    -1.3604     4.6209     3.4606 </r>
       <r>    -1.2980     5.0473     3.7759 </r>
       <r>    -1.2355     6.0549     4.1543 </r>
       <r>    -1.1730     7.0898     4.5973 </r>
       <r>    -1.1105     7.3887     5.0589 </r>
       <r>    -1.0480     6.9197     5.4913 </r>
       <r>    -0.9855     6.5479     5.9004 </r>
       <r>    -0.9231     7.1268     6.3457 </r>
       <r>    -0.8606     8.6404     6.8856 </r>
       <r>    -0.7981    10.3260     7.5308 </r>
       <r>    -0.7356    11.4503     8.2463 </r>
       <r>    -0.6731    11.8426     8.9862 </r>
       <r>    -0.6106    11.7325     9.7193 </r>
       <r>    -0.5482    11.3027    10.4255 </r>
       <r>    -0.4857    10.7379    11.0965 </r>
       <r>    -0.4232    10.6303    11.7607 </r>
       <r>    -0.3607    11.6066    12.4859 </r>
       <r>    -0.2982    13.1740    13.3091 </r>
       <r>    -0.2357    13.6774    14.1637 </r>
       <r>    -0.1733    12.1340    14.9218 </r>
       <r>    -0.1108     9.6197    15.5229 </r>
       <r>    -0.0483     8.1495    16.0321 </r>
       <r>     0.0142     8.6103    16.5701 </r>
       <r>     0.0767    10.4110    17.2206 </r>
       <r>     0.1392    12.6475    18.0109 </r>
       <r>     0.2016    14.7769    18.9342 </r>
       <r>     0.2641    16.3689    19.9570 </r>
       <r>     0.3266    16.9725    21.0174 </r>
       <r>     0.3891    16.3937    22.0418 </r>
       <r>     0.4516    14.8798    22.9715 </r>
       <r>     0.5140    13.0684    23.7881 </r>
       <r>     0.5765    11.7460    24.5220 </r>
       <r>     0.6390    11.3867    25.2335 </r>
       <r>     0.7015    11.8770    25.9756 </r>
       <r>     0.7640    12.8382    26.7778 </r>
       <r>     0.8265    14.0722    27.6570 </r>
       <r>     0.8889    15.5029    28.6257 </r>
       <r>     0.9514    16.9736    29.6863 </r>
       <r>     1.0139    18.4064    30.8364 </r>
       <r>     1.0764    19.8476    32.0765 </r>
       <r>     1.1389    21.0731    33.3932 </r>
       <r>     1.2014    21.5419    34.7392 </r>
       <r>     1.2638    21.0363    36.0536 </r>
       <r>     1.3263    20.0053    37.3036 </r>
       <r>     1.3888    19.1725    38.5016 </r>
       <r>     1.4513    19.2263    39.7029 </r>
       <r>     1.5138    20.8237    41.0040 </r>
       <r>     1.5763    24.1178    42.5110 </r>
       <r>     1.6387    27.9683    44.2585 </r>
       <r>     1.7012    30.3246    46.1533 </r>
       <r>     1.7637    30.2009    48.0403 </r>
       <r>     1.8262    29.2827    49.8700 </r>
       <r>     1.8887    31.0951    51.8129 </r>
       <r>     1.9512    38.2996    54.2060 </r>
       <r>     2.0136    50.7397    57.3764 </r>
       <r>     2.0761    65.8796    61.4928 </r>
       <r>     2.1386    80.6000    66.5289 </r>
       <r>     2.2011    92.3549    72.2995 </r>
       <r>     2.2636    99.5088    78.5171 </r>
       <r>     2.3261   101.9276    84.8859 </r>
       <r>     2.3885   101.3902    91.2211 </r>
       <r>     2.4510   100.5455    97.5035 </r>
       <r>     2.5135   101.1118   103.8212 </r>
       <r>     2.5760   103.2392   110.2719 </r>
       <r>     2.6385   106.4637   116.9241 </r>
       <r>     2.7010   110.9695   123.8578 </r>
       <r>     2.7634   117.6047   131.2062 </r>
       <r>     2.8259   126.3866   139.1032 </r>
       <r>     2.8884   135.4650   147.5674 </r>
       <r>     2.9509   142.5633   156.4752 </r>
       <r>     3.0134   147.4159   165.6862 </r>
       <r>     3.0759   151.7685   175.1692 </r>
       <r>     3.1383   156.8444   184.9693 </r>
       <r>     3.2008   161.7389   195.0753 </r>
       <r>     3.2633   164.5343   205.3559 </r>
       <r>     3.3258   164.2154   215.6166 </r>
       <r>     3.3883   161.2215   225.6902 </r>
       <r>     3.4508   156.8832   235.4928 </r>
       <r>     3.5132   152.8669   245.0444 </r>
       <r>     3.5757   150.5821   254.4532 </r>
       <r>     3.6382   150.1835   263.8371 </r>
       <r>     3.7007   150.0850   273.2149 </r>
       <r>     3.7632   148.1076   282.4691 </r>
       <r>     3.8257   143.4718   291.4337 </r>
       <r>     3.8881   137.6338   300.0335 </r>
       <r>     3.9506   133.1457   308.3528 </r>
       <r>     4.0131   131.5026   316.5695 </r>
       <r>     4.0756   131.7982   324.8047 </r>
       <r>     4.1381   131.6644   333.0315 </r>
       <r>     4.2006   129.9867   341.1534 </r>
       <r>     4.2630   128.5541   349.1859 </r>
       <r>     4.3255   130.4368   357.3360 </r>
       <r>     4.3880   136.8408   365.8862 </r>
       <r>     4.4505   146.3293   375.0293 </r>
       <r>     4.5130   156.9104   384.8336 </r>
       <r>     4.5755   167.3283   395.2888 </r>
       <r>     4.6379   175.8199   406.2746 </r>
       <r>     4.7004   179.5855   417.4956 </r>
       <r>     4.7629   177.4871   428.5856 </r>
       <r>     4.8254   172.8325   439.3847 </r>
       <r>     4.8879   171.8641   450.1233 </r>
       <r>     4.9503   178.7867   461.2944 </r>
       <r>     5.0128   192.3172   473.3110 </r>
       <r>     5.0753   206.9737   486.2434 </r>
       <r>     5.1378   217.5638   499.8374 </r>
       <r>     5.2003   222.6583   513.7498 </r>
       <r>     5.2628   224.4529   527.7743 </r>
       <r>     5.3252   226.2484   541.9110 </r>
       <r>     5.3877   230.3925   556.3067 </r>
       <r>     5.4502   237.5034   571.1466 </r>
       <r>     5.5127   245.8457   586.5078 </r>
       <r>     5.5752   251.0140   602.1920 </r>
       <r>     5.6377   247.8208   617.6766 </r>
       <r>     5.7001   234.2428   632.3128 </r>
       <r>     5.7626   213.6562   645.6627 </r>
       <r>     5.8251   192.4185   657.6856 </r>
       <r>     5.8876   175.0795   668.6251 </r>
       <r>     5.9501   162.2585   678.7635 </r>
       <r>     6.0126   152.7659   688.3088 </r>
       <r>     6.0750   146.5353   697.4648 </r>
       <r>     6.1375   144.8059   706.5127 </r>
       <r>     6.2000   148.1609   715.7703 </r>
       <r>     6.2625   155.3397   725.4764 </r>
       <r>     6.3250   163.9613   735.7212 </r>
       <r>     6.3875   172.1438   746.4773 </r>
       <r>     6.4499   179.6681   757.7035 </r>
       <r>     6.5124   187.5109   769.4197 </r>
       <r>     6.5749   195.6898   781.6470 </r>
       <r>     6.6374   201.9446   794.2652 </r>
       <r>     6.6999   203.7340   806.9951 </r>
       <r>     6.7624   201.3775   819.5778 </r>
       <r>     6.8248   197.6298   831.9263 </r>
       <r>     6.8873   193.8938   844.0414 </r>
       <r>     6.9498   188.7295   855.8338 </r>
       <r>     7.0123   181.1129   867.1503 </r>
       <r>     7.0748   173.5533   877.9945 </r>
       <r>     7.1373   170.1764   888.6276 </r>
       <r>     7.1997   172.1699   899.3853 </r>
       <r>     7.2622   176.6054   910.4202 </r>
       <r>     7.3247   179.9366   921.6632 </r>
       <r>     7.3872   181.7395   933.0188 </r>
       <r>     7.4497   184.8898   944.5713 </r>
       <r>     7.5122   192.7939   956.6177 </r>
       <r>     7.5746   205.9182   969.4841 </r>
       <r>     7.6371   218.9062   983.1620 </r>
       <r>     7.6996   220.4183   996.9344 </r>
       <r>     7.7621   198.7699  1009.3542 </r>
       <r>     7.8246   151.7737  1018.8375 </r>
       <r>     7.8871    91.7758  1024.5719 </r>
       <r>     7.9495    38.5538  1026.9809 </r>
       <r>     8.0120     5.5883  1027.3301 </r>
       <r>     8.0745    -6.9267  1026.8973 </r>
       <r>     8.1370    -7.4299  1026.4330 </r>
       <r>     8.1995    -4.3419  1026.1617 </r>
       <r>     8.2620    -1.8183  1026.0481 </r>
       <r>     8.3244    -0.5851  1026.0116 </r>
       <r>     8.3869    -0.1488  1026.0023 </r>
       <r>     8.4494    -0.0303  1026.0004 </r>
       <r>     8.5119    -0.0050  1026.0000 </r>
       <r>     8.5744    -0.0007  1026.0000 </r>
       <r>     8.6369    -0.0001  1026.0000 </r>
       <r>     8.6993    -0.0000  1026.0000 </r>
       <r>     8.7618    -0.0000  1026.0000 </r>
       <r>     8.8243    -0.0000  1026.0000 </r>
       <r>     8.8868    -0.0000  1026.0000 </r>
       <r>     8.9493    -0.0000  1026.0000 </r>
       <r>     9.0118    -0.0000  1026.0000 </r>
       <r>     9.0742    -0.0000  1026.0000 </r>
       <r>     9.1367     0.0000  1026.0000 </r>
       <r>     9.1992     0.0000  1026.0000 </r>
       <r>     9.2617     0.0000  1026.0000 </r>
       <r>     9.3242     0.0000  1026.0000 </r>
       <r>     9.3866     0.0000  1026.0000 </r>
       <r>     9.4491     0.0000  1026.0000 </r>
       <r>     9.5116     0.0000  1026.0000 </r>
       <r>     9.5741     0.0000  1026.0000 </r>
       <r>     9.6366     0.0000  1026.0000 </r>
       <r>     9.6991     0.0000  1026.0000 </r>
       <r>     9.7615     0.0000  1026.0000 </r>
       <r>     9.8240     0.0000  1026.0000 </r>
      </set>
     </set>
    </array>
   </total>
  </dos>
 </calculation>
 <structure name="finalpos" >
  <crystal>
   <varray name="basis" >
    <v>      10.33484705       0.00000000       0.00000000 </v>
    <v>       0.00000000      10.33484705       0.00000000 </v>
    <v>       0.00000000       0.00000000      10.33484705 </v>
   </varray>
   <i name="volume">   1103.85533447 </i>
   <varray name="rec_basis" >
    <v>       0.09676002       0.00000000       0.00000000 </v>
    <v>       0.00000000       0.09676002       0.00000000 </v>
    <v>       0.00000000       0.00000000       0.09676002 </v>
   </varray>
  </crystal>
  <varray name="positions" >
   <v>      -0.00010545       0.00017146      -0.00017161 </v>
   <v>      -0.00043097       0.16640784       0.16705180 </v>
   <v>      -0.00095561       0.33275538      -0.00017055 </v>
   <v>      -0.00061995       0.49974775       0.16616997 </v>
   <v>      -0.00365828       0.66705190       0.00218148 </v>
   <v>      -0.00019509       0.83347906       0.16652088 </v>
   <v>      -0.00365833      -0.00218162       0.33294798 </v>
   <v>      -0.00072565       0.16603743       0.49958078 </v>
   <v>      -0.00348067       0.33522716       0.33288473 </v>
   <v>       0.00033957       0.49972439       0.50027552 </v>
   <v>      -0.00263189       0.66711908       0.33288089 </v>
   <v>      -0.00061995       0.83382999       0.50025222 </v>
   <v>      -0.00095566       0.00017048       0.66724450 </v>
   <v>      -0.00017532       0.16628122       0.83371853 </v>
   <v>      -0.00042338       0.33231051       0.66768927 </v>
   <v>      -0.00072525       0.50041905       0.83396222 </v>
   <v>      -0.00348041       0.66711500       0.66477289 </v>
   <v>      -0.00043098       0.83294806       0.83359207 </v>
   <v>       0.16627991      -0.00044014       0.16599647 </v>
   <v>       0.16608166       0.16537618      -0.00013811 </v>
   <v>       0.16627992       0.83400335       0.00044011 </v>
   <v>       0.15761536       0.32477697       0.49964908 </v>
   <v>       0.15791754       0.50038880       0.32476169 </v>
   <v>       0.15791752       0.67523821       0.49961115 </v>
   <v>       0.16608211       0.00013754       0.83462329 </v>
   <v>       0.15761543       0.50035047       0.67522271 </v>
   <v>       0.16609393       0.33319221       0.16642753 </v>
   <v>       0.16604701       0.66743947       0.16634506 </v>
   <v>       0.16655087       0.16625017       0.33254077 </v>
   <v>       0.16604700       0.83365496       0.33256054 </v>
   <v>       0.16606708       0.16589398       0.66747043 </v>
   <v>       0.16606712       0.33252944       0.83410590 </v>
   <v>       0.16655083       0.66745876       0.83374945 </v>
   <v>       0.16609394       0.83357219       0.66680758 </v>
   <v>       0.16664457       0.50047198       0.00053722 </v>
   <v>       0.16664459      -0.00053724       0.49952796 </v>
   <v>       0.33291866       0.00037011      -0.00037005 </v>
   <v>       0.33373036       0.16620859       0.16665637 </v>
   <v>       0.33347260       0.83408706       0.16591301 </v>
   <v>       0.33478769       0.32599355       0.32501483 </v>
   <v>       0.33499591       0.67560222       0.32439785 </v>
   <v>       0.33318423       0.16609091       0.83390900 </v>
   <v>       0.33330881       0.32466442       0.67533548 </v>
   <v>       0.33478905       0.67498561       0.67400699 </v>
   <v>       0.33373046       0.83334346       0.83379139 </v>
   <v>       0.33284203       0.33284440       0.00000508 </v>
   <v>       0.33336732       0.49998883       0.16680150 </v>
   <v>       0.33505722       0.66696634       0.00194381 </v>
   <v>       0.33505725      -0.00194378       0.33303370 </v>
   <v>       0.33341567       0.16677327       0.49973323 </v>
   <v>       0.33336732       0.83319850       0.50001112 </v>
   <v>       0.33284212      -0.00000511       0.66715538 </v>
   <v>       0.33341568       0.50026677       0.83322675 </v>
   <v>       0.50019950       0.00026925       0.16501599 </v>
   <v>       0.50067916       0.16579376       0.00063041 </v>
   <v>       0.50043073       0.33241087       0.16595186 </v>
   <v>       0.50002714       0.49986282       0.00005991 </v>
   <v>       0.50259661       0.66745313       0.16682425 </v>
   <v>       0.50019949       0.83498408      -0.00026916 </v>
   <v>       0.50002722      -0.00005988       0.50013711 </v>
   <v>       0.50085682       0.16612652       0.33260769 </v>
   <v>       0.50826813       0.32422870       0.50012091 </v>
   <v>       0.51440358       0.50589430       0.32450572 </v>
   <v>       0.51440357       0.67549423       0.49410573 </v>
   <v>       0.50259663       0.83317583       0.33254698 </v>
   <v>       0.50067923      -0.00063041       0.83420625 </v>
   <v>       0.50090307       0.16593715       0.66707106 </v>
   <v>       0.50090299       0.33292893       0.83406281 </v>
   <v>       0.50085693       0.66739225       0.83387360 </v>
   <v>       0.50043076       0.83404810       0.66758916 </v>
   <v>       0.66781434       0.33449983       0.00154810 </v>
   <v>       0.66717935       0.50042927       0.16562642 </v>
   <v>       0.66795470       0.66715210       0.00137541 </v>
   <v>       0.66795467      -0.00137537       0.33284795 </v>
   <v>       0.66729325       0.16641633       0.49962626 </v>
   <v>       0.66717963       0.83437400       0.49957233 </v>
   <v>       0.66781475      -0.00154655       0.66550080 </v>
   <v>       0.66729325       0.50037378       0.83358372 </v>
   <v>       0.66688596       0.16652883       0.16691766 </v>
   <v>       0.66673471       0.83254299       0.16745698 </v>
   <v>       0.66721651       0.33376994       0.33279553 </v>
   <v>       0.50826811       0.49987913       0.67577132 </v>
   <v>       0.66690790       0.16627342       0.83372652 </v>
   <v>       0.66717792       0.33387065       0.66612937 </v>
   <v>       0.66721650       0.66720446       0.66623009 </v>
   <v>       0.66688593       0.83308228       0.83347118 </v>
   <v>       0.66699456      -0.00202397       0.00202389 </v>
   <v>       0.66605894       0.49994964       0.50005036 </v>
   <v>       0.83347868       0.49991630      -0.00003814 </v>
   <v>       0.83347860       0.00003801       0.50008365 </v>
   <v>       0.83358126       0.33275806       0.16518660 </v>
   <v>       0.83106694       0.66699216       0.16717918 </v>
   <v>       0.83301890       0.16531866       0.33305229 </v>
   <v>       0.83106688       0.83282073       0.33300775 </v>
   <v>       0.83282852       0.16538101       0.66689979 </v>
   <v>       0.83282861       0.33310002       0.83461883 </v>
   <v>       0.83301899       0.66694761       0.83468131 </v>
   <v>       0.83358135       0.83481334       0.66724201 </v>
   <v>       0.83345191       0.00017129       0.16623397 </v>
   <v>       0.83304497       0.16609544       0.00029523 </v>
   <v>       0.83345187       0.83376592      -0.00017130 </v>
   <v>       0.83335610       0.33275297       0.50035707 </v>
   <v>       0.83113354       0.50129620       0.33331713 </v>
   <v>       0.83113360       0.66668290       0.49870382 </v>
   <v>       0.83304501      -0.00029530       0.83390450 </v>
   <v>       0.83335620       0.49964287       0.66724701 </v>
   <v>       0.33417102       0.50061590       0.49938396 </v>
  </varray>
 </structure>
</modeling>
