Opt                                     
           1
    10.334847    0.000000    0.000000
     0.000000   10.334847    0.000000
     0.000000    0.000000   10.334847
   Fe   Te
 106   1
Direct configuration=     1
   0.00000000  0.00000000  0.00000000
   0.00000000  0.16666893  0.16666893
   0.00000000  0.33333106  0.00000000
   0.00000000  0.50000000  0.16666894
   0.00000000  0.66666897  0.00000000
   0.00000000  0.83333104  0.16666893
   0.00000000  0.00000000  0.33333106
   0.00000000  0.16666894  0.50000000
   0.00000000  0.33333107  0.33333107
   0.00000000  0.50000000  0.50000000
   0.00000000  0.66666896  0.33333107
   0.00000000  0.83333103  0.50000000
   0.00000000  0.00000000  0.66666897
   0.00000000  0.16666893  0.83333104
   0.00000000  0.33333107  0.66666896
   0.00000000  0.50000000  0.83333103
   0.00000000  0.66666896  0.66666896
   0.00000000  0.83333104  0.83333104
   0.16666893  0.00000000  0.16666893
   0.16666893  0.16666893  0.00000000
   0.16666893  0.83333104  0.00000000
   0.16666893  0.33333107  0.50000000
   0.16666893  0.50000000  0.33333107
   0.16666893  0.66666896  0.50000000
   0.16666893  0.00000000  0.83333104
   0.16666893  0.50000000  0.66666896
   0.16666893  0.33333107  0.16666893
   0.16666893  0.66666896  0.16666893
   0.16666893  0.16666893  0.33333107
   0.16666893  0.83333104  0.33333107
   0.16666893  0.16666893  0.66666896
   0.16666893  0.33333107  0.83333104
   0.16666893  0.66666896  0.83333104
   0.16666893  0.83333104  0.66666896
   0.16666894  0.50000000  0.00000000
   0.16666894  0.00000000  0.50000000
   0.33333106  0.00000000  0.00000000
   0.33333107  0.16666893  0.16666893
   0.33333107  0.83333104  0.16666893
   0.33333107  0.33333107  0.33333107
   0.33333107  0.66666896  0.33333107
   0.33333107  0.16666893  0.83333104
   0.33333107  0.33333107  0.66666896
   0.33333107  0.66666896  0.66666896
   0.33333107  0.83333104  0.83333104
   0.33333107  0.33333107  0.00000000
   0.33333107  0.50000000  0.16666893
   0.33333107  0.66666896  0.00000000
   0.33333107  0.00000000  0.33333107
   0.33333107  0.16666893  0.50000000
   0.33333107  0.83333104  0.50000000
   0.33333107  0.00000000  0.66666896
   0.33333107  0.50000000  0.83333104
   0.50000000  0.00000000  0.16666894
   0.50000000  0.16666894  0.00000000
   0.50000000  0.33333107  0.16666893
   0.50000000  0.50000000  0.00000000
   0.50000000  0.66666896  0.16666893
   0.50000000  0.83333103  0.00000000
   0.50000000  0.00000000  0.50000000
   0.50000000  0.16666893  0.33333107
   0.50000000  0.33333106  0.50000000
   0.50000000  0.50000000  0.33333106
   0.50000000  0.66666897  0.50000000
   0.50000000  0.83333104  0.33333107
   0.50000000  0.00000000  0.83333103
   0.50000000  0.16666893  0.66666896
   0.50000000  0.33333107  0.83333104
   0.50000000  0.66666896  0.83333104
   0.50000000  0.83333104  0.66666896
   0.66666896  0.33333107  0.00000000
   0.66666896  0.50000000  0.16666893
   0.66666896  0.66666896  0.00000000
   0.66666896  0.00000000  0.33333107
   0.66666896  0.16666893  0.50000000
   0.66666896  0.83333104  0.50000000
   0.66666896  0.00000000  0.66666896
   0.66666896  0.50000000  0.83333104
   0.66666896  0.16666893  0.16666893
   0.66666896  0.83333104  0.16666893
   0.66666896  0.33333107  0.33333107
   0.50000000  0.50000000  0.66666667
   0.66666896  0.16666893  0.83333104
   0.66666896  0.33333107  0.66666896
   0.66666896  0.66666896  0.66666896
   0.66666896  0.83333104  0.83333104
   0.66666897  0.00000000  0.00000000
   0.66666897  0.50000000  0.50000000
   0.83333103  0.50000000  0.00000000
   0.83333103  0.00000000  0.50000000
   0.83333104  0.33333107  0.16666893
   0.83333104  0.66666896  0.16666893
   0.83333104  0.16666893  0.33333107
   0.83333104  0.83333104  0.33333107
   0.83333104  0.16666893  0.66666896
   0.83333104  0.33333107  0.83333104
   0.83333104  0.66666896  0.83333104
   0.83333104  0.83333104  0.66666896
   0.83333104  0.00000000  0.16666893
   0.83333104  0.16666893  0.00000000
   0.83333104  0.83333104  0.00000000
   0.83333104  0.33333107  0.50000000
   0.83333104  0.50000000  0.33333107
   0.83333104  0.66666896  0.50000000
   0.83333104  0.00000000  0.83333104
   0.83333104  0.50000000  0.66666896
   0.33333106  0.50000000  0.50000000
Direct configuration=     2
  -0.00014336  0.00013718 -0.00013718
  -0.00003436  0.16673604  0.16672493
   0.00007814  0.33326832 -0.00011574
   0.00072203  0.49992310  0.16741982
  -0.00098409  0.66663227  0.00093752
  -0.00000849  0.83335161  0.16664836
  -0.00098409 -0.00093753  0.33336777
   0.00074719  0.16745972  0.49998718
  -0.00083032  0.33413375  0.33314465
  -0.00035204  0.49989391  0.50010608
  -0.00086674  0.66683671  0.33316332
   0.00072203  0.83258020  0.50007690
   0.00007815  0.00011573  0.66673170
   0.00025972  0.16668361  0.83331636
   0.00026682  0.33306076  0.66693924
   0.00074717  0.50001282  0.83254025
  -0.00083031  0.66685538  0.66586626
  -0.00003436  0.83327505  0.83326393
   0.16676339 -0.00011088  0.16666597
   0.16672961  0.16663495 -0.00026677
   0.16676338  0.83333401  0.00011088
   0.15993851  0.32668234  0.49998278
   0.16011319  0.50006431  0.32676359
   0.16011321  0.67323641  0.49993569
   0.16672961  0.00026676  0.83336500
   0.15993851  0.50001723  0.67331767
   0.16648157  0.33324988  0.16681734
   0.16652141  0.66682510  0.16678652
   0.16661475  0.16680743  0.33317458
   0.16652141  0.83321348  0.33317494
   0.16651067  0.16677189  0.66707455
   0.16651068  0.33292546  0.83322808
   0.16661476  0.66682546  0.83319253
   0.16648157  0.83318265  0.66675014
   0.16664021  0.50002031  0.00001815
   0.16664017 -0.00001819  0.49997970
   0.33318028  0.00015190 -0.00015193
   0.33341957  0.16739809  0.16751048
   0.33333921  0.83260216  0.16739781
   0.33421493  0.32749799  0.32669073
   0.33416858  0.67339533  0.32660470
   0.33307746  0.16741829  0.83258168
   0.33326423  0.32667909  0.67332090
   0.33421490  0.67330936  0.67250208
   0.33341957  0.83248951  0.83260187
   0.33319210  0.33317601 -0.00014695
   0.33333875  0.49998546  0.16619245
   0.33419067  0.66672189  0.00091154
   0.33419066 -0.00091156  0.33327813
   0.33337451  0.16627609  0.49996955
   0.33333874  0.83380757  0.50001455
   0.33319209  0.00014691  0.66682402
   0.33337460  0.50003046  0.83372382
   0.49989451 -0.00003051  0.16657896
   0.49996263  0.16661201  0.00005577
   0.50011973  0.33328573  0.16677213
   0.49998418  0.49993918  0.00003245
   0.50033595  0.66686899  0.16697455
   0.49989452  0.83342099  0.00003045
   0.49998417 -0.00003252  0.50006082
   0.50022612  0.16678211  0.33315760
   0.50663023  0.32664705  0.50015189
   0.50686771  0.50096154  0.32724681
   0.50686771  0.67275333  0.49903838
   0.50033596  0.83302548  0.33313099
   0.49996262 -0.00005583  0.83338799
   0.50019263  0.16676289  0.66674922
   0.50019265  0.33325089  0.83323704
   0.50022614  0.66684231  0.83321779
   0.50011972  0.83322787  0.66671429
   0.66667300  0.33435606  0.00091492
   0.66597595  0.50013721  0.16741592
   0.66671174  0.66661829  0.00088796
   0.66671175 -0.00088801  0.33338172
   0.66590575  0.16746572  0.49992367
   0.66597594  0.83258406  0.49986278
   0.66667302 -0.00091495  0.66564398
   0.66590568  0.50007633  0.83253420
   0.66666831  0.16668420  0.16681607
   0.66666172  0.83310056  0.16689942
   0.66659523  0.33405051  0.33321761
   0.50663044  0.49984803  0.67335190
   0.66667664  0.16668282  0.83331717
   0.66652329  0.33412592  0.66587408
   0.66659523  0.66678239  0.66594949
   0.66666831  0.83318391  0.83331579
   0.66694565 -0.00092562  0.00092560
   0.66724160  0.50006186  0.49993805
   0.83334326  0.49996049  0.00008265
   0.83334333 -0.00008271  0.50003952
   0.83340130  0.33339488  0.16658256
   0.83310486  0.66664129  0.16682367
   0.83324223  0.16661896  0.33338522
   0.83310485  0.83317631  0.33335874
   0.83330329  0.16666074  0.66655446
   0.83330327  0.33344556  0.83333923
   0.83324221  0.66661482  0.83338101
   0.83340130  0.83341742  0.66660513
   0.83335361 -0.00005689  0.16636100
   0.83331357  0.16639051  0.00004243
   0.83335361  0.83363897  0.00005688
   0.83334546  0.33328399  0.50004740
   0.83303578  0.50026814  0.33331788
   0.83303574  0.66668209  0.49973187
   0.83331357 -0.00004244  0.83360945
   0.83334544  0.49995261  0.66671603
   0.33323735  0.49995376  0.50004587
Direct configuration=     3
  -0.00018013  0.00017237 -0.00017237
  -0.00004318  0.16675326  0.16673930
   0.00009819  0.33325223 -0.00014543
   0.00090725  0.49990338  0.16761245
  -0.00123654  0.66662285  0.00117802
  -0.00001067  0.83335689  0.16664309
  -0.00123654 -0.00117804  0.33337718
   0.00093886  0.16766258  0.49998390
  -0.00104332  0.33433966  0.33309683
  -0.00044235  0.49986669  0.50013329
  -0.00108909  0.66687974  0.33312029
   0.00090725  0.83238759  0.50009663
   0.00009819  0.00014542  0.66674779
   0.00032634  0.16668737  0.83331259
   0.00033527  0.33299141  0.66700858
   0.00093884  0.50001611  0.83233739
  -0.00104331  0.66690320  0.66566035
  -0.00004317  0.83326069  0.83324671
   0.16678762 -0.00013932  0.16666521
   0.16674517  0.16662623 -0.00033520
   0.16678761  0.83333478  0.00013932
   0.15821197  0.32497675  0.49997836
   0.15843145  0.50008080  0.32507885
   0.15843148  0.67492115  0.49991919
   0.16674518  0.00033520  0.83337371
   0.15821196  0.50002165  0.67502326
   0.16643350  0.33322905  0.16685541
   0.16648357  0.66686515  0.16681668
   0.16660085  0.16684295  0.33313443
   0.16648357  0.83318332  0.33313489
   0.16647007  0.16679830  0.66717860
   0.16647008  0.33282141  0.83320166
   0.16660086  0.66686561  0.83315700
   0.16643351  0.83314458  0.66677097
   0.16663285  0.50002552  0.00002281
   0.16663279 -0.00002286  0.49997450
   0.33314159  0.00019087 -0.00019090
   0.33344228  0.16758514  0.16772636
   0.33334130  0.83241518  0.16758479
   0.33444167  0.32600163  0.32498729
   0.33438342  0.67512083  0.32487919
   0.33301240  0.16761052  0.83238945
   0.33324709  0.32497266  0.67502732
   0.33444163  0.67501281  0.67399844
   0.33344227  0.83227364  0.83241482
   0.33315645  0.33313624 -0.00018464
   0.33334072  0.49998173  0.16607022
   0.33441119  0.66673547  0.00114537
   0.33441117 -0.00114541  0.33326455
   0.33338565  0.16617531  0.49996173
   0.33334071  0.83392981  0.50001828
   0.33315644  0.00018460  0.66686379
   0.33338577  0.50003827  0.83382458
   0.49986745 -0.00003834  0.16655588
   0.49995305  0.16659741  0.00007008
   0.50015044  0.33327410  0.16679861
   0.49998012  0.49992358  0.00004077
   0.50042213  0.66692031  0.16705295
   0.49986746  0.83344407  0.00003826
   0.49998011 -0.00004086  0.50007642
   0.50028413  0.16681114  0.33311310
   0.50833107  0.32493241  0.50019086
   0.50862948  0.50120820  0.32568602
   0.50862948  0.67431415  0.49879170
   0.50042215  0.83294709  0.33307967
   0.49995304 -0.00007015  0.83340260
   0.50024205  0.16678699  0.66676980
   0.50024207  0.33323032  0.83321293
   0.50028415  0.66688678  0.83318873
   0.50015044  0.83320140  0.66672592
   0.66667404  0.33461900  0.00114962
   0.66579818  0.50017240  0.16760755
   0.66672272  0.66660530  0.00111575
   0.66672273 -0.00111581  0.33339472
   0.66570996  0.16767012  0.49990409
   0.66579816  0.83239244  0.49982758
   0.66667406 -0.00114967  0.66538104
   0.66570988  0.50009591  0.83232979
   0.66666814  0.16668811  0.16685381
   0.66665987  0.83304143  0.16695855
   0.66657632  0.33423507  0.33318851
   0.50833134  0.49980904  0.67506686
   0.66667861  0.16668638  0.83331361
   0.66648593  0.33432983  0.66567017
   0.66657631  0.66681149  0.66576493
   0.66666814  0.83314616  0.83331188
   0.66701662 -0.00116306  0.00116304
   0.66738850  0.50007772  0.49992216
   0.83334639  0.49995035  0.00010386
   0.83334648 -0.00010393  0.50004966
   0.83341932  0.33341125  0.16656040
   0.83304684  0.66663419  0.16686337
   0.83321945  0.16660614  0.33339911
   0.83304683  0.83313662  0.33336585
   0.83329617  0.16665863  0.66652509
   0.83329614  0.33347493  0.83334134
   0.83321943  0.66660094  0.83339383
   0.83341933  0.83343958  0.66658876
   0.83335940 -0.00007149  0.16628201
   0.83330909  0.16631909  0.00005331
   0.83335940  0.83371797  0.00007148
   0.83334916  0.33327191  0.50005956
   0.83296004  0.50033692  0.33331450
   0.83295999  0.66668546  0.49966309
   0.83330909 -0.00005332  0.83368087
   0.83334914  0.49994045  0.66672811
   0.33321331  0.49994189  0.50005764
Direct configuration=     4
  -0.00005649  0.00022947 -0.00022948
  -0.00015542  0.16664528  0.16676712
  -0.00052616  0.33318226 -0.00018916
   0.00004262  0.49983599  0.16662179
  -0.00233571  0.66667063  0.00154294
   0.00001509  0.83346684  0.16653305
  -0.00233565 -0.00154302  0.33332940
  -0.00005746  0.16663592  0.49986044
  -0.00199312  0.33461983  0.33297498
   0.00002925  0.49982701  0.50017298
  -0.00182884  0.66697742  0.33302265
   0.00004265  0.83337819  0.50016400
  -0.00052615  0.00018917  0.66681772
   0.00019356  0.16655460  0.83344542
  -0.00010279  0.33271415  0.66728583
  -0.00005782  0.50014030  0.83336323
  -0.00199310  0.66702503  0.66538015
  -0.00015543  0.83323280  0.83335480
   0.16675017 -0.00017315  0.16616674
   0.16667931  0.16595908 -0.00032590
   0.16675014  0.83383321  0.00017310
   0.15798490  0.32481061  0.49984040
   0.15821718  0.50017375  0.32489176
   0.15821721  0.67510817  0.49982621
   0.16667936  0.00032592  0.83404092
   0.15798495  0.50015960  0.67518937
   0.16629600  0.33306050  0.16648566
   0.16628889  0.66712142  0.16642924
   0.16653134  0.16643293  0.33285316
   0.16628887  0.83357074  0.33287863
   0.16627902  0.16629560  0.66733785
   0.16627904  0.33266215  0.83370437
   0.16653130  0.66714685  0.83356712
   0.16629598  0.83351433  0.66693949
   0.16651944  0.50014174  0.00005215
   0.16651938 -0.00005224  0.49985826
   0.33308593  0.00027366 -0.00027367
   0.33354905  0.16670534  0.16695692
   0.33333703  0.83339305  0.16660693
   0.33459354  0.32599623  0.32485574
   0.33456864  0.67529087  0.32470917
   0.33299909  0.16661197  0.83338806
   0.33332530  0.32484780  0.67515224
   0.33459357  0.67514420  0.67400381
   0.33354906  0.83304306  0.83329464
   0.33308680  0.33295026 -0.00023228
   0.33324006  0.49997037  0.16629304
   0.33469080  0.66690138  0.00148052
   0.33469081 -0.00148056  0.33309864
   0.33339206  0.16642526  0.49987217
   0.33324006  0.83370703  0.50002960
   0.33308677  0.00023223  0.66704975
   0.33339221  0.50012780  0.83357459
   0.49992243  0.00001617  0.16586330
   0.50009152  0.16604319  0.00017394
   0.50027458  0.33280566  0.16623900
   0.50009968  0.49992770  0.00003836
   0.50118427  0.66682284  0.16705451
   0.49992248  0.83413663 -0.00001625
   0.50009965 -0.00003850  0.50007227
   0.50061387  0.16636664  0.33284659
   0.50835498  0.32471098  0.50016894
   0.51035567  0.50267120  0.32484804
   0.51035563  0.67515201  0.49732876
   0.50118427  0.83294555  0.33317713
   0.50009149 -0.00017404  0.83395687
   0.50058117  0.16625783  0.66700095
   0.50058122  0.33299920  0.83374213
   0.50061391  0.66715329  0.83363326
   0.50027459  0.83376100  0.66719437
   0.66732527  0.33488652  0.00146597
   0.66628825  0.50058615  0.16713504
   0.66741096  0.66665815  0.00144883
   0.66741089 -0.00144890  0.33334187
   0.66671630  0.16676693  0.49982142
   0.66628817  0.83286490  0.49941382
   0.66732529 -0.00146606  0.66511349
   0.66671617  0.50017853  0.83323302
   0.66674629  0.16659181  0.16691315
   0.66671420  0.83282621  0.16717367
   0.66701766  0.33424372  0.33304997
   0.50835503  0.49983096  0.67528868
   0.66678985  0.16661308  0.83338701
   0.66704700  0.33436168  0.66563835
   0.66701760  0.66695004  0.66575622
   0.66674630  0.83308676  0.83340827
   0.66695143 -0.00157776  0.00157769
   0.66694910  0.50027722  0.49972268
   0.83332450  0.49996027  0.00013614
   0.83332460 -0.00013620  0.50003976
   0.83342203  0.33333430  0.16584991
   0.83247194  0.66663280  0.16662957
   0.83310913  0.16589100  0.33339927
   0.83247195  0.83337028  0.33336724
   0.83314388  0.16599587  0.66655020
   0.83314383  0.33344981  0.83400416
   0.83310912  0.66660077  0.83410910
   0.83342206  0.83415004  0.66666568
   0.83338837  0.00003372  0.16635295
   0.83321199  0.16636536  0.00006682
   0.83338835  0.83364694 -0.00003373
   0.83335385  0.33304592  0.50008166
   0.83260622  0.50061597  0.33317440
   0.83260619  0.66682557  0.49938404
   0.83321198 -0.00006686  0.83363467
   0.83335384  0.49991832  0.66695408
   0.33313771  0.49989684  0.50010311
Direct configuration=     5
   0.00004498  0.00027633 -0.00027633
  -0.00024751  0.16655668  0.16678995
  -0.00103848  0.33312484 -0.00022504
  -0.00066688  0.49978070  0.16580889
  -0.00323764  0.66670984  0.00184239
   0.00003624  0.83355706  0.16644276
  -0.00323755 -0.00184251  0.33329019
  -0.00087500  0.16579348  0.49975913
  -0.00277249  0.33484972  0.33287499
   0.00041624  0.49979444  0.50020554
  -0.00243586  0.66705756  0.33294253
  -0.00066680  0.83419104  0.50021929
  -0.00103847  0.00022507  0.66687510
   0.00008460  0.16644565  0.83355442
  -0.00046224  0.33248664  0.66751333
  -0.00087564  0.50024221  0.83420499
  -0.00277247  0.66712500  0.66515022
  -0.00024753  0.83320991  0.83344350
   0.16671944 -0.00020092  0.16575772
   0.16662527  0.16541164 -0.00031827
   0.16671939  0.83424221  0.00020083
   0.15779857  0.32467427  0.49972720
   0.15804136  0.50025001  0.32473824
   0.15804139  0.67526163  0.49974991
   0.16662535  0.00031831  0.83458841
   0.15779867  0.50027279  0.67532567
   0.16618317  0.33292220  0.16618225
   0.16612913  0.66733170  0.16611133
   0.16647431  0.16609649  0.33262236
   0.16612912  0.83388864  0.33266835
   0.16612225  0.16588310  0.66746853
   0.16612227  0.33253147  0.83411688
   0.16647422  0.66737763  0.83390365
   0.16618313  0.83381773  0.66707777
   0.16642638  0.50023711  0.00007623
   0.16642632 -0.00007635  0.49976288
   0.33304026  0.00034160 -0.00034158
   0.33363666  0.16598341  0.16632555
   0.33333352  0.83419545  0.16580453
   0.33471815  0.32599180  0.32474780
   0.33472063  0.67543039  0.32456965
   0.33298818  0.16579261  0.83420748
   0.33338948  0.32474535  0.67525474
   0.33471824  0.67525202  0.67400822
   0.33363668  0.83367442  0.83401658
   0.33302964  0.33279765 -0.00027137
   0.33315746  0.49996106  0.16647588
   0.33492025  0.66703752  0.00175552
   0.33492027 -0.00175558  0.33296251
   0.33339733  0.16663037  0.49979868
   0.33315748  0.83352423  0.50003889
   0.33302960  0.00027131  0.66720234
   0.33339749  0.50020127  0.83336947
   0.49996755  0.00006090  0.16529499
   0.50020515  0.16558841  0.00025917
   0.50037645  0.33242127  0.16577980
   0.50019779  0.49993108  0.00003639
   0.50180966  0.66674286  0.16705579
   0.49996763  0.83470491 -0.00006098
   0.50019774 -0.00003656  0.50006886
   0.50088444  0.16600190  0.33262790
   0.50837460  0.32452928  0.50015096
   0.51177211  0.50387168  0.32416043
   0.51177204  0.67583953  0.49612832
   0.50180963  0.83294429  0.33325710
   0.50020509 -0.00025928  0.83441168
   0.50085944  0.16582362  0.66719062
   0.50085951  0.33280956  0.83417637
   0.50088451  0.66737198  0.83399802
   0.50037646  0.83422020  0.66757876
   0.66785964  0.33510603  0.00172555
   0.66669038  0.50092565  0.16674731
   0.66797570  0.66670153  0.00172214
   0.66797558 -0.00172221  0.33329851
   0.66754206  0.16602580  0.49975359
   0.66669026  0.83325258  0.49907431
   0.66785967 -0.00172568  0.66489394
   0.66754190  0.50024632  0.83397418
   0.66681041  0.16651278  0.16696185
   0.66675879  0.83264961  0.16735020
   0.66737982  0.33425083  0.33293629
   0.50837447  0.49984895  0.67547070
   0.66688113  0.16655294  0.83344725
   0.66750739  0.33438782  0.66561224
   0.66737970  0.66706373  0.66574908
   0.66681043  0.83303801  0.83348737
   0.66689794 -0.00191805  0.00191794
   0.66658855  0.50044091  0.49955899
   0.83330654  0.49996841  0.00016263
   0.83330665 -0.00016268  0.50003164
   0.83342425  0.33327116  0.16526692
   0.83200019  0.66663167  0.16643773
   0.83301861  0.16530418  0.33339940
   0.83200023  0.83356201  0.33336839
   0.83301892  0.16545203  0.66657081
   0.83301886  0.33342920  0.83454805
   0.83301860  0.66660063  0.83469602
   0.83342429  0.83473301  0.66672879
   0.83341213  0.00012005  0.16641116
   0.83313231  0.16640334  0.00007790
   0.83341211  0.83358866 -0.00012006
   0.83335770  0.33286048  0.50009980
   0.83231588  0.50084495  0.33305944
   0.83231588  0.66694054  0.49915506
   0.83313230 -0.00007798  0.83359676
   0.83335769  0.49990016  0.66713951
   0.33307569  0.49985988  0.50014042
Direct configuration=     6
  -0.00009481  0.00024670 -0.00024675
  -0.00040634  0.16652584  0.16686563
  -0.00107568  0.33280427 -0.00023690
  -0.00060980  0.49973794  0.16591318
  -0.00349126  0.66703145  0.00196608
  -0.00008549  0.83357303  0.16642687
  -0.00349126 -0.00196623  0.33296844
  -0.00090946  0.16580779  0.49966031
  -0.00309395  0.33495371  0.33277736
   0.00049622  0.49977178  0.50022816
  -0.00258542  0.66713973  0.33286031
  -0.00060977  0.83408675  0.50026196
  -0.00107566  0.00023677  0.66719585
  -0.00004752  0.16636642  0.83363370
  -0.00048943  0.33235675  0.66764322
  -0.00090988  0.50034030  0.83419146
  -0.00309392  0.66722269  0.66504621
  -0.00040635  0.83313425  0.83347434
   0.16642678 -0.00029452  0.16581311
   0.16625009  0.16537454 -0.00023870
   0.16642678  0.83418683  0.00029447
   0.15752364  0.32447491  0.49966764
   0.15788856  0.50031382  0.32455917
   0.15788852  0.67544080  0.49968613
   0.16625015  0.00023864  0.83462555
   0.15752372  0.50033229  0.67552504
   0.16611777  0.33294280  0.16623184
   0.16607835  0.66744942  0.16614374
   0.16649707  0.16608268  0.33250315
   0.16607834  0.83385619  0.33255055
   0.16604212  0.16586068  0.66748542
   0.16604208  0.33251462  0.83413934
   0.16649708  0.66749683  0.83391744
   0.16611776  0.83376807  0.66705722
   0.16651977  0.50033422  0.00018197
   0.16651983 -0.00018211  0.49966574
   0.33305011  0.00034747 -0.00034749
   0.33372437  0.16605807  0.16648010
   0.33336566  0.83413748  0.16586249
   0.33477828  0.32589827  0.32472080
   0.33468707  0.67547418  0.32452583
   0.33308456  0.16590403  0.83409606
   0.33344117  0.32448069  0.67551931
   0.33477832  0.67527922  0.67410190
   0.33372439  0.83351986  0.83394197
   0.33299740  0.33283338 -0.00023276
   0.33311075  0.49992725  0.16657657
   0.33500118  0.66701667  0.00184203
   0.33500121 -0.00184207  0.33298334
   0.33347596  0.16671093  0.49972984
   0.33311082  0.83342337  0.50007271
   0.33299739  0.00023272  0.66716663
   0.33347600  0.50027012  0.83328906
   0.50022145  0.00007588  0.16515408
   0.50061191  0.16557980  0.00041315
   0.50042394  0.33221950  0.16575407
   0.50012493  0.49991249 -0.00000959
   0.50216522  0.66706522  0.16703357
   0.50022146  0.83484583 -0.00007591
   0.50012489  0.00000952  0.50008750
   0.50099394  0.16601677  0.33255633
   0.50844303  0.32435850  0.50013318
   0.51252186  0.50462018  0.32432740
   0.51252182  0.67567261  0.49537977
   0.50216518  0.83296646  0.33293474
   0.50061189 -0.00041326  0.83442026
   0.50100236  0.16583695  0.66717281
   0.50100240  0.33282729  0.83416307
   0.50099398  0.66744362  0.83398327
   0.50042393  0.83424589  0.66778058
   0.66790613  0.33481378  0.00175820
   0.66688799  0.50090097  0.16654152
   0.66802109  0.66702568  0.00168265
   0.66802106 -0.00168269  0.33297426
   0.66743689  0.16617971  0.49968810
   0.66688794  0.83345839  0.49909897
   0.66790612 -0.00175822  0.66518624
   0.66743683  0.50031185  0.83382034
   0.66687690  0.16648223  0.16697546
   0.66672794  0.83254947  0.16745043
   0.66737641  0.33406252  0.33284183
   0.50844301  0.49986677  0.67564153
   0.66694696  0.16646526  0.83353486
   0.66747094  0.33428444  0.66571559
   0.66737633  0.66715816  0.66593747
   0.66687685  0.83302450  0.83351784
   0.66700842 -0.00204227  0.00204219
   0.66629216  0.50046066  0.49953921
   0.83335039  0.49995397  0.00013171
   0.83335038 -0.00013179  0.50004599
   0.83347535  0.33291640  0.16523018
   0.83173058  0.66690716  0.16669654
   0.83296631  0.16522741  0.33308919
   0.83173055  0.83330328  0.33309278
   0.83290837  0.16538020  0.66685201
   0.83290838  0.33314802  0.83461987
   0.83296624  0.66691077  0.83477267
   0.83347536  0.83476976  0.66708366
   0.83343517  0.00013452  0.16625565
   0.83305204  0.16624850  0.00014226
   0.83343515  0.83374430 -0.00013454
   0.83335134  0.33288631  0.50014885
   0.83203837  0.50100448  0.33313363
   0.83203839  0.66686636  0.49899548
   0.83305202 -0.00014235  0.83375156
   0.83335128  0.49985108  0.66711365
   0.33372789  0.50027595  0.49972391
Direct configuration=     7
  -0.00016756  0.00023127 -0.00023135
  -0.00048899  0.16650979  0.16690501
  -0.00109503  0.33263744 -0.00024307
  -0.00058009  0.49971568  0.16596746
  -0.00362326  0.66719882  0.00203046
  -0.00014883  0.83358134  0.16641861
  -0.00362330 -0.00203063  0.33280099
  -0.00092740  0.16581525  0.49960889
  -0.00326126  0.33500783  0.33272654
   0.00053785  0.49975998  0.50023992
  -0.00266326  0.66718250  0.33281752
  -0.00058008  0.83403247  0.50028417
  -0.00109501  0.00024286  0.66736278
  -0.00011628  0.16632518  0.83367496
  -0.00050358  0.33228916  0.66771082
  -0.00092770  0.50039135  0.83418441
  -0.00326121  0.66727353  0.66499208
  -0.00048900  0.83309488  0.83349039
   0.16627447 -0.00034324  0.16584194
   0.16605483  0.16535523 -0.00019728
   0.16627450  0.83415801  0.00034321
   0.15738056  0.32437115  0.49963665
   0.15780904  0.50034703  0.32446597
   0.15780896  0.67553404  0.49965293
   0.16605488  0.00019718  0.83464487
   0.15738063  0.50036325  0.67562881
   0.16608372  0.33295352  0.16625765
   0.16605192  0.66751069  0.16616061
   0.16650892  0.16607549  0.33244111
   0.16605192  0.83383930  0.33248924
   0.16600042  0.16584901  0.66749421
   0.16600035  0.33250586  0.83415103
   0.16650898  0.66755887  0.83392462
   0.16608374  0.83374222  0.66704652
   0.16656838  0.50038476  0.00023700
   0.16656850 -0.00023714  0.49961519
   0.33305523  0.00035052 -0.00035056
   0.33377002  0.16609692  0.16656053
   0.33338239  0.83410731  0.16589265
   0.33480958  0.32584959  0.32470674
   0.33466960  0.67549697  0.32450303
   0.33313472  0.16596202  0.83403808
   0.33346807  0.32434295  0.67565701
   0.33480960  0.67529338  0.67415066
   0.33377003  0.83343943  0.83390314
   0.33298062  0.33285197 -0.00021267
   0.33308644  0.49990965  0.16662898
   0.33504329  0.66700582  0.00188705
   0.33504334 -0.00188708  0.33299417
   0.33351688  0.16675286  0.49969401
   0.33308653  0.83337088  0.50009032
   0.33298063  0.00021264  0.66714804
   0.33351686  0.50030596  0.83324721
   0.50035358  0.00008367  0.16508074
   0.50082360  0.16557532  0.00049329
   0.50044865  0.33211448  0.16574067
   0.50008701  0.49990281 -0.00003352
   0.50235027  0.66723299  0.16702200
   0.50035356  0.83491917 -0.00008368
   0.50008698  0.00003350  0.50009720
   0.50105093  0.16602451  0.33251908
   0.50847864  0.32426962  0.50012392
   0.51291206  0.50500974  0.32441429
   0.51291203  0.67558574  0.49499019
   0.50235022  0.83297800  0.33276698
   0.50082360 -0.00049340  0.83442472
   0.50107674  0.16584389  0.66716354
   0.50107676  0.33283653  0.83415614
   0.50105096  0.66748090  0.83397559
   0.50044863  0.83425927  0.66788562
   0.66793033  0.33466167  0.00177519
   0.66699084  0.50088813  0.16643443
   0.66804472  0.66719438  0.00166209
   0.66804474 -0.00166212  0.33280552
   0.66738216  0.16625982  0.49965402
   0.66699082  0.83356550  0.49911180
   0.66793030 -0.00177516  0.66533837
   0.66738215  0.50034595  0.83374027
   0.66691150  0.16646633  0.16698255
   0.66671188  0.83249735  0.16750259
   0.66737463  0.33396451  0.33279267
   0.50847868  0.49987605  0.67573044
   0.66698121  0.16641962  0.83358046
   0.66745197  0.33423063  0.66576938
   0.66737457  0.66720730  0.66603552
   0.66691143  0.83301746  0.83353370
   0.66706592 -0.00210692  0.00210686
   0.66613791  0.50047094  0.49952892
   0.83337321  0.49994645  0.00011561
   0.83337315 -0.00011571  0.50005346
   0.83350194  0.33273177  0.16521106
   0.83159026  0.66705053  0.16683123
   0.83293910  0.16518745  0.33292774
   0.83159020  0.83316862  0.33294935
   0.83285084  0.16534282  0.66699836
   0.83285089  0.33300168  0.83465725
   0.83293898  0.66707219  0.83481256
   0.83350193  0.83478889  0.66726835
   0.83344715  0.00014205  0.16617471
   0.83301027  0.16616792  0.00017575
   0.83344714  0.83382530 -0.00014207
   0.83334802  0.33289975  0.50017438
   0.83189394  0.50108750  0.33317224
   0.83189397  0.66682775  0.49891242
   0.83301024 -0.00017585  0.83383213
   0.83334794  0.49982553  0.66710019
   0.33406733  0.50049250  0.49950714
Direct configuration=     8
  -0.00018900  0.00020507 -0.00020510
  -0.00053090  0.16644729  0.16695483
  -0.00107009  0.33262039 -0.00023240
  -0.00057792  0.49972382  0.16602657
  -0.00364970  0.66721700  0.00208774
  -0.00018950  0.83358256  0.16641738
  -0.00364970 -0.00208785  0.33278279
  -0.00089705  0.16589860  0.49957202
  -0.00335593  0.33507639  0.33276496
   0.00055718  0.49971222  0.50028777
  -0.00262982  0.66718723  0.33281274
  -0.00057793  0.83397340  0.50027615
  -0.00107007  0.00023220  0.66737971
  -0.00017137  0.16629242  0.83370764
  -0.00049365  0.33228447  0.66771546
  -0.00089714  0.50042795  0.83410131
  -0.00335590  0.66723511  0.66492355
  -0.00053093  0.83304502  0.83355275
   0.16622161 -0.00040481  0.16588686
   0.16600463  0.16534884 -0.00015387
   0.16622163  0.83411309  0.00040483
   0.15753524  0.32461910  0.49963423
   0.15787218  0.50034580  0.32461672
   0.15787220  0.67538324  0.49965424
   0.16600465  0.00015376  0.83465118
   0.15753536  0.50036574  0.67538078
   0.16609318  0.33303515  0.16631317
   0.16604166  0.66750185  0.16620686
   0.16653158  0.16611803  0.33245035