 107 107   0   0
  0.1031640E+02  0.1033485E-08  0.1033485E-08  0.1033485E-08  0.5000000E-15
  1.000000000000000E-004
  CAR 
 Opt                                     
      9.82486337     -8.94843568  301      6.93721151      1.00000000
     -8.948  0.0000E+00  0.0000E+00
     -8.886  0.0000E+00  0.0000E+00
     -8.823  0.0000E+00  0.0000E+00
     -8.761  0.0000E+00  0.0000E+00
     -8.698  0.0000E+00  0.0000E+00
     -8.636  0.0000E+00  0.0000E+00
     -8.573 -0.1581E-28 -0.9895E-30
     -8.510 -0.2209E-26 -0.1393E-27
     -8.448 -0.2548E-24 -0.1609E-25
     -8.385 -0.2412E-22 -0.1525E-23
     -8.323 -0.1872E-20 -0.1187E-21
     -8.260 -0.1192E-18 -0.7576E-20
     -8.198 -0.6219E-17 -0.3967E-18
     -8.135 -0.2659E-15 -0.1704E-16
     -8.072 -0.9014E-14 -0.5811E-15
     -8.010 -0.2578E-12 -0.1671E-13
     -7.947 -0.6019E-11 -0.3934E-12
     -7.885 -0.1148E-09 -0.7575E-11
     -7.822 -0.1785E-08 -0.1193E-09
     -7.759 -0.2260E-07 -0.1533E-08
     -7.697 -0.2324E-06 -0.1607E-07
     -7.634 -0.1935E-05 -0.1372E-06
     -7.572 -0.1299E-04 -0.9502E-06
     -7.509 -0.6986E-04 -0.5322E-05
     -7.447 -0.2978E-03 -0.2396E-04
     -7.384 -0.9885E-03 -0.8582E-04
     -7.321 -0.2466E-02 -0.2401E-03
     -7.259 -0.4219E-02 -0.5041E-03
     -7.196 -0.3264E-02 -0.7084E-03
     -7.134  0.6224E-02 -0.3189E-03
     -7.071  0.2854E-01  0.1467E-02
     -7.009  0.5862E-01  0.5135E-02
     -6.946  0.8064E-01  0.1018E-01
     -6.883  0.7975E-01  0.1517E-01
     -6.821  0.5661E-01  0.1871E-01
     -6.758  0.2663E-01  0.2038E-01
     -6.696  0.5180E-02  0.2071E-01
     -6.633 -0.3527E-02  0.2048E-01
     -6.570 -0.4133E-02  0.2023E-01
     -6.508 -0.2340E-02  0.2008E-01
     -6.445 -0.9184E-03  0.2002E-01
     -6.383 -0.2717E-03  0.2000E-01
     -6.320 -0.6271E-04  0.2000E-01
     -6.258 -0.1148E-04  0.2000E-01
     -6.195 -0.1685E-05  0.2000E-01
     -6.132 -0.1994E-06  0.2000E-01
     -6.070 -0.1912E-07  0.2000E-01
     -6.007 -0.1489E-08  0.2000E-01
     -5.945 -0.9440E-10  0.2000E-01
     -5.882 -0.4882E-11  0.2000E-01
     -5.820 -0.2062E-12  0.2000E-01
     -5.757 -0.7141E-14  0.2000E-01
     -5.694 -0.2129E-15  0.2000E-01
     -5.632  0.0000E+00  0.2000E-01
     -5.569  0.0000E+00  0.2000E-01
     -5.507  0.0000E+00  0.2000E-01
     -5.444  0.0000E+00  0.2000E-01
     -5.382  0.0000E+00  0.2000E-01
     -5.319  0.0000E+00  0.2000E-01
     -5.256  0.0000E+00  0.2000E-01
     -5.194  0.0000E+00  0.2000E-01
     -5.131  0.0000E+00  0.2000E-01
     -5.069  0.0000E+00  0.2000E-01
     -5.006  0.0000E+00  0.2000E-01
     -4.943  0.0000E+00  0.2000E-01
     -4.881  0.0000E+00  0.2000E-01
     -4.818  0.0000E+00  0.2000E-01
     -4.756  0.0000E+00  0.2000E-01
     -4.693  0.0000E+00  0.2000E-01
     -4.631  0.0000E+00  0.2000E-01
     -4.568  0.0000E+00  0.2000E-01
     -4.505  0.0000E+00  0.2000E-01
     -4.443  0.0000E+00  0.2000E-01
     -4.380  0.0000E+00  0.2000E-01
     -4.318  0.0000E+00  0.2000E-01
     -4.255  0.0000E+00  0.2000E-01
     -4.193  0.0000E+00  0.2000E-01
     -4.130  0.0000E+00  0.2000E-01
     -4.067  0.0000E+00  0.2000E-01
     -4.005  0.0000E+00  0.2000E-01
     -3.942  0.0000E+00  0.2000E-01
     -3.880  0.0000E+00  0.2000E-01
     -3.817  0.0000E+00  0.2000E-01
     -3.754  0.0000E+00  0.2000E-01
     -3.692  0.0000E+00  0.2000E-01
     -3.629  0.0000E+00  0.2000E-01
     -3.567  0.0000E+00  0.2000E-01
     -3.504  0.0000E+00  0.2000E-01
     -3.442  0.0000E+00  0.2000E-01
     -3.379  0.0000E+00  0.2000E-01
     -3.316 -0.1866E-29  0.2000E-01
     -3.254 -0.2614E-27  0.2000E-01
     -3.191 -0.3022E-25  0.2000E-01
     -3.129 -0.2866E-23  0.2000E-01
     -3.066 -0.2230E-21  0.2000E-01
     -3.004 -0.1423E-19  0.2000E-01
     -2.941 -0.7445E-18  0.2000E-01
     -2.878 -0.3192E-16  0.2000E-01
     -2.816 -0.1086E-14  0.2000E-01
     -2.753 -0.3111E-13  0.2000E-01
     -2.691 -0.7289E-12  0.2000E-01
     -2.628 -0.1395E-10  0.2000E-01
     -2.566 -0.2180E-09  0.2000E-01
     -2.503 -0.2776E-08  0.2000E-01
     -2.440 -0.2877E-07  0.2000E-01
     -2.378 -0.2423E-06  0.2000E-01
     -2.315 -0.1653E-05  0.2000E-01
     -2.253 -0.9106E-05  0.2000E-01
     -2.190 -0.4032E-04  0.2000E-01
     -2.127 -0.1424E-03  0.1999E-01
     -2.065 -0.3954E-03  0.1996E-01
     -2.002 -0.8393E-03  0.1991E-01
     -1.940 -0.1254E-02  0.1983E-01
     -1.877 -0.8817E-03  0.1978E-01
     -1.815  0.1592E-02  0.1988E-01
     -1.752  0.7461E-02  0.2034E-01
     -1.689  0.1697E-01  0.2141E-01
     -1.627  0.2849E-01  0.2319E-01
     -1.564  0.3884E-01  0.2562E-01
     -1.502  0.4495E-01  0.2843E-01
     -1.439  0.4607E-01  0.3131E-01
     -1.377  0.4506E-01  0.3413E-01
     -1.314  0.4722E-01  0.3709E-01
     -1.251  0.5570E-01  0.4057E-01
     -1.189  0.6692E-01  0.4476E-01
     -1.126  0.7300E-01  0.4933E-01
     -1.064  0.7092E-01  0.5377E-01
     -1.001  0.6696E-01  0.5796E-01
     -0.938  0.6997E-01  0.6234E-01
     -0.876  0.8230E-01  0.6749E-01
     -0.813  0.9882E-01  0.7367E-01
     -0.751  0.1125E+00  0.8071E-01
     -0.688  0.1190E+00  0.8816E-01
     -0.626  0.1181E+00  0.9555E-01
     -0.563  0.1121E+00  0.1026E+00
     -0.500  0.1055E+00  0.1092E+00
     -0.438  0.1054E+00  0.1158E+00
     -0.375  0.1168E+00  0.1231E+00
     -0.313  0.1335E+00  0.1314E+00
     -0.250  0.1396E+00  0.1402E+00
     -0.188  0.1251E+00  0.1480E+00
     -0.125  0.9873E-01  0.1542E+00
     -0.062  0.7982E-01  0.1592E+00
      0.000  0.8031E-01  0.1642E+00
      0.063  0.9823E-01  0.1703E+00
      0.125  0.1249E+00  0.1782E+00
      0.188  0.1513E+00  0.1876E+00
      0.250  0.1695E+00  0.1982E+00
      0.313  0.1742E+00  0.2091E+00
      0.376  0.1662E+00  0.2195E+00
      0.438  0.1502E+00  0.2289E+00
      0.501  0.1327E+00  0.2372E+00
      0.563  0.1193E+00  0.2447E+00
      0.626  0.1138E+00  0.2518E+00
      0.689  0.1161E+00  0.2591E+00
      0.751  0.1241E+00  0.2669E+00
      0.814  0.1364E+00  0.2754E+00
      0.876  0.1524E+00  0.2849E+00
      0.939  0.1698E+00  0.2956E+00
      1.001  0.1865E+00  0.3072E+00
      1.064  0.2018E+00  0.3199E+00
      1.127  0.2127E+00  0.3332E+00
      1.189  0.2143E+00  0.3466E+00
      1.252  0.2060E+00  0.3595E+00
      1.314  0.1947E+00  0.3716E+00
      1.377  0.1884E+00  0.3834E+00
      1.439  0.1917E+00  0.3954E+00
      1.502  0.2080E+00  0.4084E+00
      1.565  0.2386E+00  0.4234E+00
      1.627  0.2755E+00  0.4406E+00
      1.690  0.3000E+00  0.4594E+00
      1.752  0.3001E+00  0.4782E+00
      1.815  0.2891E+00  0.4963E+00
      1.878  0.3019E+00  0.5152E+00
      1.940  0.3670E+00  0.5381E+00
      2.003  0.4851E+00  0.5685E+00
      2.065  0.6335E+00  0.6081E+00
      2.128  0.7833E+00  0.6572E+00
      2.190  0.9096E+00  0.7141E+00
      2.253  0.9924E+00  0.7762E+00
      2.316  0.1024E+01  0.8403E+00
      2.378  0.1019E+01  0.9041E+00
      2.441  0.1008E+01  0.9671E+00
      2.503  0.1012E+01  0.1030E+01
      2.566  0.1034E+01  0.1095E+01
      2.628  0.1066E+01  0.1162E+01
      2.691  0.1107E+01  0.1231E+01
      2.754  0.1168E+01  0.1304E+01
      2.816  0.1251E+01  0.1382E+01
      2.879  0.1342E+01  0.1466E+01
      2.941  0.1414E+01  0.1555E+01
      3.004  0.1462E+01  0.1646E+01
      3.066  0.1502E+01  0.1740E+01
      3.129  0.1552E+01  0.1837E+01
      3.192  0.1607E+01  0.1938E+01
      3.254  0.1644E+01  0.2041E+01
      3.317  0.1650E+01  0.2144E+01
      3.379  0.1624E+01  0.2246E+01
      3.442  0.1578E+01  0.2344E+01
      3.505  0.1528E+01  0.2440E+01
      3.567  0.1495E+01  0.2534E+01
      3.630  0.1488E+01  0.2627E+01
      3.692  0.1495E+01  0.2720E+01
      3.755  0.1487E+01  0.2813E+01
      3.817  0.1451E+01  0.2904E+01
      3.880  0.1398E+01  0.2992E+01
      3.943  0.1353E+01  0.3076E+01
      4.005  0.1335E+01  0.3160E+01
      4.068  0.1335E+01  0.3243E+01
      4.130  0.1329E+01  0.3326E+01
      4.193  0.1305E+01  0.3408E+01
      4.255  0.1278E+01  0.3488E+01
      4.318  0.1282E+01  0.3568E+01
      4.381  0.1337E+01  0.3652E+01
      4.443  0.1431E+01  0.3741E+01
      4.506  0.1542E+01  0.3838E+01
      4.568  0.1655E+01  0.3942E+01
      4.631  0.1748E+01  0.4051E+01
      4.693  0.1790E+01  0.4163E+01
      4.756  0.1767E+01  0.4274E+01
      4.819  0.1713E+01  0.4381E+01
      4.881  0.1695E+01  0.4487E+01
      4.944  0.1763E+01  0.4597E+01
      5.006  0.1906E+01  0.4716E+01
      5.069  0.2062E+01  0.4845E+01
      5.132  0.2172E+01  0.4981E+01
      5.194  0.2223E+01  0.5120E+01
      5.257  0.2243E+01  0.5261E+01
      5.319  0.2268E+01  0.5403E+01
      5.382  0.2317E+01  0.5548E+01
      5.444  0.2392E+01  0.5697E+01
      5.507  0.2475E+01  0.5852E+01
      5.570  0.2526E+01  0.6010E+01
      5.632  0.2495E+01  0.6166E+01
      5.695  0.2361E+01  0.6314E+01
      5.757  0.2157E+01  0.6449E+01
      5.820  0.1946E+01  0.6571E+01
      5.882  0.1773E+01  0.6682E+01
      5.945  0.1641E+01  0.6784E+01
      6.008  0.1536E+01  0.6880E+01
      6.070  0.1460E+01  0.6972E+01
      6.133  0.1431E+01  0.7061E+01
      6.195  0.1457E+01  0.7153E+01
      6.258  0.1523E+01  0.7248E+01
      6.321  0.1605E+01  0.7348E+01
      6.383  0.1689E+01  0.7454E+01
      6.446  0.1774E+01  0.7565E+01
      6.508  0.1867E+01  0.7682E+01
      6.571  0.1967E+01  0.7805E+01
      6.633  0.2046E+01  0.7933E+01
      6.696  0.2074E+01  0.8063E+01
      6.759  0.2050E+01  0.8191E+01
      6.821  0.2004E+01  0.8316E+01
      6.884  0.1954E+01  0.8439E+01
      6.946  0.1889E+01  0.8557E+01
      7.009  0.1801E+01  0.8670E+01
      7.071  0.1718E+01  0.8777E+01
      7.134  0.1682E+01  0.8882E+01
      7.197  0.1705E+01  0.8989E+01
      7.259  0.1754E+01  0.9099E+01
      7.322  0.1790E+01  0.9211E+01
      7.384  0.1811E+01  0.9324E+01
      7.447  0.1846E+01  0.9440E+01
      7.509  0.1930E+01  0.9560E+01
      7.572  0.2065E+01  0.9690E+01
      7.635  0.2198E+01  0.9827E+01
      7.697  0.2215E+01  0.9966E+01
      7.760  0.2000E+01  0.1009E+02
      7.822  0.1531E+01  0.1019E+02
      7.885  0.9297E+00  0.1024E+02
      7.948  0.3936E+00  0.1027E+02
      8.010  0.5950E-01  0.1027E+02
      8.073 -0.6859E-01  0.1027E+02
      8.135 -0.7471E-01  0.1026E+02
      8.198 -0.4386E-01  0.1026E+02
      8.260 -0.1840E-01  0.1026E+02
      8.323 -0.5925E-02  0.1026E+02
      8.386 -0.1506E-02  0.1026E+02
      8.448 -0.3066E-03  0.1026E+02
      8.511 -0.5038E-04  0.1026E+02
      8.573 -0.6719E-05  0.1026E+02
      8.636 -0.7294E-06  0.1026E+02
      8.698 -0.6462E-07  0.1026E+02
      8.761 -0.4679E-08  0.1026E+02
      8.824 -0.2773E-09  0.1026E+02
      8.886 -0.1346E-10  0.1026E+02
      8.949 -0.5357E-12  0.1026E+02
      9.011 -0.1745E-13  0.1026E+02
      9.074 -0.4679E-15  0.1026E+02
      9.137  0.0000E+00  0.1026E+02
      9.199  0.0000E+00  0.1026E+02
      9.262  0.0000E+00  0.1026E+02
      9.324  0.0000E+00  0.1026E+02
      9.387  0.0000E+00  0.1026E+02
      9.449  0.0000E+00  0.1026E+02
      9.512  0.0000E+00  0.1026E+02
      9.575  0.0000E+00  0.1026E+02
      9.637  0.0000E+00  0.1026E+02
      9.700  0.0000E+00  0.1026E+02
      9.762  0.0000E+00  0.1026E+02
      9.825  0.0000E+00  0.1026E+02
