  107  107  100    1
  0.1031640E+02  0.1033485E-08  0.1033485E-08  0.1033485E-08  0.5000000E-15
  1.000000000000000E-004
  CAR 
 Opt                                     
    854     32    513
 
  0.1250000E+00  0.1250000E+00  0.1250000E+00  0.3125000E-01
    1       -6.948436   1.000000
    2       -1.690860   1.000000
    3       -0.877168   1.000000
    4       -0.824727   1.000000
    5       -0.665576   1.000000
    6       -0.285583   1.000000
    7       -0.270001   1.000000
    8       -0.196627   1.000000
    9        0.156760   1.000000
   10        0.203310   1.000000
   11        0.417797   1.000000
   12        0.459215   1.000000
   13        0.500774   1.000000
   14        0.761034   1.000000
   15        0.938451   1.000000
   16        0.954706   1.000000
   17        1.009734   1.000000
   18        1.121628   1.000000
   19        1.244931   1.000000
   20        1.247588   1.000000
   21        1.307009   1.000000
   22        1.480913   1.000000
   23        1.503771   1.000000
   24        1.622306   1.000000
   25        1.631766   1.000000
   26        1.653045   1.000000
   27        1.696880   1.000000
   28        1.823957   1.000000
   29        1.836139   1.000000
   30        1.912938   1.000000
   31        2.004211   1.000000
   32        2.007399   1.000000
   33        2.023231   1.000000
   34        2.075940   1.000000
   35        2.106025   1.000000
   36        2.116164   1.000000
   37        2.139910   1.000000
   38        2.195308   1.000000
   39        2.249498   1.000000
   40        2.471255   1.000000
   41        2.489656   1.000000
   42        2.491869   1.000000
   43        2.537973   1.000000
   44        2.587201   1.000000
   45        2.592419   1.000000
   46        2.600946   1.000000
   47        2.604119   1.000000
   48        2.611989   1.000000
   49        2.615042   1.000000
   50        2.627088   1.000000
   51        2.630807   1.000000
   52        2.639331   1.000000
   53        2.646738   1.000000
   54        2.647937   1.000000
   55        2.655911   1.000000
   56        2.662112   1.000000
   57        2.666067   1.000000
   58        2.673220   1.000000
   59        2.688391   1.000000
   60        2.705042   1.000000
   61        2.723641   1.000000
   62        2.737173   1.000000
   63        2.750946   1.000000
   64        2.760632   1.000000
   65        2.765433   1.000000
   66        2.783443   1.000000
   67        2.790605   1.000000
   68        2.798391   1.000000
   69        2.838230   1.000000
   70        2.843706   1.000000
   71        2.852029   1.000000
   72        2.856139   1.000000
   73        2.867343   1.000000
   74        2.869917   1.000000
   75        2.878311   1.000000
   76        2.883835   1.000000
   77        2.899295   1.000000
   78        2.908448   1.000000
   79        2.916411   1.000000
   80        2.924201   1.000000
   81        2.946595   1.000000
   82        2.950183   1.000000
   83        2.950901   1.000000
   84        2.967657   1.000000
   85        2.968644   1.000000
   86        2.981522   1.000000
   87        2.996685   1.000000
   88        3.012748   1.000000
   89        3.023499   1.000000
   90        3.041492   1.000000
   91        3.065005   1.000000
   92        3.082125   1.000000
   93        3.101375   1.000000
   94        3.149067   1.000000
   95        3.179186   1.000000
   96        3.188091   1.000000
   97        3.188873   1.000000
   98        3.193735   1.000000
   99        3.211170   1.000000
  100        3.215837   1.000000
  101        3.219646   1.000000
  102        3.232756   1.000000
  103        3.269562   1.000000
  104        3.279596   1.000000
  105        3.283874   1.000000
  106        3.298092   1.000000
  107        3.304202   1.000000
  108        3.318437   1.000000
  109        3.324582   1.000000
  110        3.336116   1.000000
  111        3.394658   1.000000
  112        3.417654   1.000000
  113        3.439182   1.000000
  114        3.444478   1.000000
  115        3.452041   1.000000
  116        3.458275   1.000000
  117        3.461566   1.000000
  118        3.465578   1.000000
  119        3.479738   1.000000
  120        3.494012   1.000000
  121        3.515443   1.000000
  122        3.522982   1.000000
  123        3.533700   1.000000
  124        3.567828   1.000000
  125        3.572995   1.000000
  126        3.582428   1.000000
  127        3.589430   1.000000
  128        3.589634   1.000000
  129        3.607517   1.000000
  130        3.608966   1.000000
  131        3.618565   1.000000
  132        3.620404   1.000000
  133        3.632267   1.000000
  134        3.635599   1.000000
  135        3.656620   1.000000
  136        3.662781   1.000000
  137        3.669008   1.000000
  138        3.679756   1.000000
  139        3.689746   1.000000
  140        3.697491   1.000000
  141        3.714077   1.000000
  142        3.729128   1.000000
  143        3.749238   1.000000
  144        3.750083   1.000000
  145        3.769113   1.000000
  146        3.782031   1.000000
  147        3.801694   1.000000
  148        3.808797   1.000000
  149        3.837929   1.000000
  150        3.846784   1.000000
  151        3.854771   1.000000
  152        3.861242   1.000000
  153        3.879019   1.000000
  154        3.884750   1.000000
  155        3.892049   1.000000
  156        3.907171   1.000000
  157        3.912891   1.000000
  158        3.942334   1.000000
  159        3.961431   1.000000
  160        3.968598   1.000000
  161        3.992210   1.000000
  162        4.021422   1.000000
  163        4.042623   1.000000
  164        4.065420   1.000000
  165        4.071147   1.000000
  166        4.105678   1.000000
  167        4.107106   1.000000
  168        4.121272   1.000000
  169        4.157670   1.000000
  170        4.165417   1.000000
  171        4.179761   1.000000
  172        4.207191   1.000000
  173        4.245756   1.000000
  174        4.264123   1.000000
  175        4.278102   1.000000
  176        4.320851   1.000000
  177        4.330678   1.000000
  178        4.391344   1.000000
  179        4.392549   1.000000
  180        4.405822   1.000000
  181        4.407947   1.000000
  182        4.408404   1.000000
  183        4.421246   1.000000
  184        4.425311   1.000000
  185        4.434049   1.000000
  186        4.446416   1.000000
  187        4.449683   1.000000
  188        4.464241   1.000000
  189        4.466465   1.000000
  190        4.479964   1.000000
  191        4.498640   1.000000
  192        4.520650   1.000000
  193        4.534079   1.000000
  194        4.547927   1.000000
  195        4.552052   1.000000
  196        4.570770   1.000000
  197        4.570858   1.000000
  198        4.580398   1.000000
  199        4.587112   1.000000
  200        4.589766   1.000000
  201        4.598483   1.000000
  202        4.601800   1.000000
  203        4.609935   1.000000
  204        4.617472   1.000000
  205        4.631064   1.000000
  206        4.646282   1.000000
  207        4.649984   1.000000
  208        4.659457   1.000000
  209        4.669997   1.000000
  210        4.671402   1.000000
  211        4.674944   1.000000
  212        4.694015   1.000000
  213        4.696317   1.000000
  214        4.722917   1.000000
  215        4.739432   1.000000
  216        4.743395   1.000000
  217        4.751184   1.000000
  218        4.773808   1.000000
  219        4.788265   1.000000
  220        4.808074   1.000000
  221        4.828240   1.000000
  222        4.855643   1.000000
  223        4.877626   1.000000
  224        4.879367   1.000000
  225        4.902183   1.000000
  226        4.921785   1.000000
  227        4.926731   1.000000
  228        4.930790   1.000000
  229        4.941520   1.000000
  230        4.947347   1.000000
  231        4.954448   1.000000
  232        4.969914   1.000000
  233        4.993080   1.000000
  234        5.009061   1.000000
  235        5.023001   1.000000
  236        5.028866   1.000000
  237        5.040158   1.000000
  238        5.047643   1.000000
  239        5.051299   1.000000
  240        5.073689   1.000000
  241        5.080104   1.000000
  242        5.097796   1.000000
  243        5.120247   1.000000
  244        5.126800   1.000000
  245        5.147161   1.000000
  246        5.147573   1.000000
  247        5.152031   1.000000
  248        5.171636   1.000000
  249        5.181526   1.000000
  250        5.186269   1.000000
  251        5.203732   1.000000
  252        5.206011   1.000000
  253        5.207784   1.000000
  254        5.215923   1.000000
  255        5.219454   1.000000
  256        5.233515   1.000000
  257        5.244436   1.000000
  258        5.248550   1.000000
  259        5.255336   1.000000
  260        5.263519   1.000000
  261        5.271620   1.000000
  262        5.275417   1.000000
  263        5.277287   1.000000
  264        5.282567   1.000000
  265        5.286014   1.000000
  266        5.296383   1.000000
  267        5.308247   1.000000
  268        5.312695   1.000000
  269        5.312714   1.000000
  270        5.327111   1.000000
  271        5.334058   1.000000
  272        5.338107   1.000000
  273        5.345080   1.000000
  274        5.346749   1.000000
  275        5.359034   1.000000
  276        5.361283   1.000000
  277        5.367026   1.000000
  278        5.375207   1.000000
  279        5.381800   1.000000
  280        5.385322   1.000000
  281        5.394507   1.000000
  282        5.411943   1.000000
  283        5.413315   1.000000
  284        5.416966   1.000000
  285        5.418291   1.000000
  286        5.425643   1.000000
  287        5.429355   1.000000
  288        5.437877   1.000000
  289        5.438328   1.000000
  290        5.445954   1.000000
  291        5.459943   1.000000
  292        5.463955   1.000000
  293        5.468731   1.000000
  294        5.479873   1.000000
  295        5.487508   1.000000
  296        5.490438   1.000000
  297        5.501345   1.000000
  298        5.512957   1.000000
  299        5.516517   1.000000
  300        5.524339   1.000000
  301        5.537397   1.000000
  302        5.543375   1.000000
  303        5.552130   1.000000
  304        5.557079   1.000000
  305        5.568254   1.000000
  306        5.577013   1.000000
  307        5.588590   1.000000
  308        5.603495   1.000000
  309        5.609843   1.000000
  310        5.632252   1.000000
  311        5.632976   1.000000
  312        5.650571   1.000000
  313        5.664552   1.000000
  314        5.679284   1.000000
  315        5.688133   1.000000
  316        5.710802   1.000000
  317        5.713897   1.000000
  318        5.724130   1.000000
  319        5.728215   1.000000
  320        5.733594   1.000000
  321        5.741947   1.000000
  322        5.755338   1.000000
  323        5.774154   1.000000
  324        5.781457   1.000000
  325        5.788614   1.000000
  326        5.796762   1.000000
  327        5.809066   1.000000
  328        5.816273   1.000000
  329        5.827153   1.000000
  330        5.835068   1.000000
  331        5.849043   1.000000
  332        5.852244   1.000000
  333        5.858916   1.000000
  334        5.876360   1.000000
  335        5.883054   1.000000
  336        5.886184   1.000000
  337        5.899094   1.000000
  338        5.908257   1.000000
  339        5.908465   1.000000
  340        5.916109   1.000000
  341        5.918004   1.000000
  342        5.932662   1.000000
  343        5.938341   1.000000
  344        5.950761   1.000000
  345        5.954754   1.000000
  346        5.971639   1.000000
  347        5.977397   1.000000
  348        5.986734   1.000000
  349        6.002559   1.000000
  350        6.003964   1.000000
  351        6.021022   1.000000
  352        6.026976   1.000000
  353        6.027464   1.000000
  354        6.040727   1.000000
  355        6.053587   1.000000
  356        6.062580   1.000000
  357        6.087493   1.000000
  358        6.119996   1.000000
  359        6.122791   1.000000
  360        6.158716   1.000000
  361        6.176260   1.000001
  362        6.207251   1.000002
  363        6.210963   1.000002
  364        6.232417   1.000004
  365        6.238714   1.000005
  366        6.241092   1.000005
  367        6.253083   1.000007
  368        6.279563   1.000017
  369        6.323633   1.000064
  370        6.327491   1.000071
  371        6.356213   1.000157
  372        6.357683   1.000164
  373        6.371009   1.000233
  374        6.372428   1.000242
  375        6.377418   1.000275
  376        6.380675   1.000299
  377        6.390479   1.000383
  378        6.391752   1.000395
  379        6.411257   1.000636
  380        6.442876   1.001313
  381        6.445215   1.001382
  382        6.465594   1.002132
  383        6.467648   1.002224
  384        6.495252   1.003832
  385        6.503403   1.004460
  386        6.513383   1.005339
  387        6.532086   1.007353
  388        6.555533   1.010626
  389        6.571868   1.013426
  390        6.583632   1.015695
  391        6.592591   1.017552
  392        6.602767   1.019773
  393        6.611769   1.021812
  394        6.624457   1.024743
  395        6.633957   1.026920
  396        6.666811   1.033372
  397        6.676885   1.034639
  398        6.676974   1.034648
  399        6.701351   1.035120
  400        6.712108   1.033728
  401        6.717217   1.032633
  402        6.731414   1.027880
  403        6.732732   1.027298
  404        6.755357   1.012971
  405        6.759658   1.009221
  406        6.770871   0.997719
  407        6.775708   0.991946
  408        6.787710   0.975374
  409        6.795211   0.963317
  410        6.797876   0.958709
  411        6.812878   0.929499
  412        6.814021   0.927045
  413        6.825361   0.900889
  414        6.834266   0.878080
  415        6.841765   0.857338
  416        6.855684   0.815243
  417        6.874405   0.751784
  418        6.889533   0.695528
  419        6.897830   0.663109
  420        6.899403   0.656853
  421        6.901964   0.646606
  422        6.929966   0.530637
  423        6.937385   0.499264
  424        6.946400   0.461164
  425        6.960560   0.401947
  426        6.973220   0.350338
  427        6.983704   0.309043
  428        6.997122   0.258668
  429        7.004167   0.233521
  430        7.022280   0.173616
  431        7.041745   0.117707
  432        7.043844   0.112235
  433        7.055321   0.084273
  434        7.063356   0.066677
  435        7.068789   0.055697
  436        7.091510   0.017609
  437        7.110717  -0.005363
  438        7.111430  -0.006067
  439        7.122533  -0.015739
  440        7.137916  -0.025489
  441        7.139035  -0.026048
  442        7.158644  -0.032972
  443        7.176219  -0.035316
  444        7.187769  -0.035341
  445        7.192747  -0.035056
  446        7.201667  -0.034179
  447        7.202968  -0.034016
  448        7.209091  -0.033147
  449        7.212094  -0.032666
  450        7.220811  -0.031096
  451        7.223374  -0.030593
  452        7.224271  -0.030413
  453        7.234910  -0.028161
  454        7.237743  -0.027533
  455        7.242093  -0.026551
  456        7.254965  -0.023586
  457        7.261304  -0.022122
  458        7.267950  -0.020606
  459        7.275029  -0.019026
  460        7.276384  -0.018728
  461        7.298353  -0.014213
  462        7.320037  -0.010446
  463        7.321818  -0.010170
  464        7.330305  -0.008924
  465        7.339971  -0.007644
  466        7.344715  -0.007069
  467        7.361302  -0.005314
  468        7.371733  -0.004401
  469        7.379455  -0.003812
  470        7.380156  -0.003761
  471        7.400323  -0.002536
  472        7.410258  -0.002070
  473        7.419593  -0.001701
  474        7.425394  -0.001502
  475        7.436968  -0.001164
  476        7.443944  -0.000995
  477        7.455922  -0.000755
  478        7.462485  -0.000646
  479        7.462621  -0.000644
  480        7.492171  -0.000311
  481        7.494613  -0.000292
  482        7.501604  -0.000244
  483        7.518218  -0.000157
  484        7.523058  -0.000138
  485        7.525867  -0.000128
  486        7.543496  -0.000078
  487        7.548569  -0.000068
  488        7.549355  -0.000066
  489        7.553207  -0.000059
  490        7.569209  -0.000037
  491        7.572376  -0.000034
  492        7.582715  -0.000025
  493        7.591397  -0.000019
  494        7.597592  -0.000016
  495        7.599383  -0.000015
  496        7.605582  -0.000012
  497        7.618980  -0.000008
  498        7.627695  -0.000006
  499        7.641916  -0.000004
  500        7.648867  -0.000003
  501        7.661842  -0.000002
  502        7.664588  -0.000002
  503        7.673970  -0.000001
  504        7.675368  -0.000001
  505        7.680166  -0.000001
  506        7.699486  -0.000000
  507        7.702739  -0.000000
  508        7.704122  -0.000000
  509        7.714367  -0.000000
  510        7.719693  -0.000000
  511        7.735944  -0.000000
  512        7.756444  -0.000000
  513        7.757662  -0.000000
 
  0.3750000E+00  0.1250000E+00  0.1250000E+00  0.3125000E-01
    1       -6.948255   1.000000
    2       -1.534842   1.000000
    3       -1.169926   1.000000
    4       -0.767956   1.000000
    5       -0.619265   1.000000
    6       -0.433492   1.000000
    7       -0.317199   1.000000
    8       -0.024169   1.000000
    9        0.028561   1.000000
   10        0.187375   1.000000
   11        0.321565   1.000000
   12        0.462879   1.000000
   13        0.616737   1.000000
   14        0.620822   1.000000
   15        0.856324   1.000000
   16        0.932391   1.000000
   17        1.087602   1.000000
   18        1.147185   1.000000
   19        1.199961   1.000000
   20        1.429676   1.000000
   21        1.493496   1.000000
   22        1.576461   1.000000
   23        1.627448   1.000000
   24        1.689844   1.000000
   25        1.744172   1.000000
   26        1.905452   1.000000
   27        1.980057   1.000000
   28        2.020250   1.000000
   29        2.026708   1.000000
   30        2.033246   1.000000
   31        2.076523   1.000000
   32        2.090596   1.000000
   33        2.126559   1.000000
   34        2.136359   1.000000
   35        2.157099   1.000000
   36        2.189836   1.000000
   37        2.192382   1.000000
   38        2.238073   1.000000
   39        2.246233   1.000000
   40        2.249000   1.000000
   41        2.288081   1.000000
   42        2.291893   1.000000
   43        2.307959   1.000000
   44        2.310628   1.000000
   45        2.358902   1.000000
   46        2.364979   1.000000
   47        2.387040   1.000000
   48        2.415162   1.000000
   49        2.432510   1.000000
   50        2.450226   1.000000
   51        2.526790   1.000000
   52        2.540124   1.000000
   53        2.575689   1.000000
   54        2.606398   1.000000
   55        2.630331   1.000000
   56        2.632322   1.000000
   57        2.641858   1.000000
   58        2.659464   1.000000
   59        2.689919   1.000000
   60        2.695837   1.000000
   61        2.707588   1.000000
   62        2.718750   1.000000
   63        2.729561   1.000000
   64        2.758005   1.000000
   65        2.763163   1.000000
   66        2.781063   1.000000
   67        2.792765   1.000000
   68        2.804978   1.000000
   69        2.821993   1.000000
   70        2.829957   1.000000
   71        2.850952   1.000000
   72        2.857154   1.000000
   73        2.865877   1.000000
   74        2.878103   1.000000
   75        2.892601   1.000000
   76        2.899716   1.000000
   77        2.907823   1.000000
   78        2.922465   1.000000
   79        2.926220   1.000000
   80        2.933510   1.000000
   81        2.956718   1.000000
   82        2.974715   1.000000
   83        2.993735   1.000000
   84        3.009350   1.000000
   85        3.019343   1.000000
   86        3.020679   1.000000
   87        3.052816   1.000000
   88        3.054892   1.000000
   89        3.070923   1.000000
   90        3.081965   1.000000
   91        3.086680   1.000000
   92        3.095836   1.000000
   93        3.111394   1.000000
   94        3.132331   1.000000
   95        3.149322   1.000000
   96        3.160264   1.000000
   97        3.164376   1.000000
   98        3.175760   1.000000
   99        3.208294   1.000000
  100        3.212036   1.000000
  101        3.228059   1.000000
  102        3.255269   1.000000
  103        3.265990   1.000000
  104        3.270002   1.000000
  105        3.290923   1.000000
  106        3.314262   1.000000
  107        3.323287   1.000000
  108        3.333696   1.000000
  109        3.340469   1.000000
  110        3.350406   1.000000
  111        3.365512   1.000000
  112        3.368206   1.000000
  113        3.387847   1.000000
  114        3.400276   1.000000
  115        3.405846   1.000000
  116        3.428146   1.000000
  117        3.437516   1.000000
  118        3.444565   1.000000
  119        3.454842   1.000000
  120        3.481928   1.000000
  121        3.496063   1.000000
  122        3.514854   1.000000
  123        3.531376   1.000000
  124        3.532740   1.000000
  125        3.551977   1.000000
  126        3.563441   1.000000
  127        3.595245   1.000000
  128        3.602977   1.000000
  129        3.628475   1.000000
  130        3.632219   1.000000
  131        3.639458   1.000000
  132        3.641916   1.000000
  133        3.660872   1.000000
  134        3.670207   1.000000
  135        3.675200   1.000000
  136        3.694465   1.000000
  137        3.707961   1.000000
  138        3.725578   1.000000
  139        3.730234   1.000000
  140        3.746625   1.000000
  141        3.751159   1.000000
  142        3.766767   1.000000
  143        3.771446   1.000000
  144        3.781458   1.000000
  145        3.793965   1.000000
  146        3.808894   1.000000
  147        3.823312   1.000000
  148        3.831735   1.000000
  149        3.841597   1.000000
  150        3.885510   1.000000
  151        3.892097   1.000000
  152        3.922081   1.000000
  153        3.946244   1.000000
  154        3.958643   1.000000
  155        3.970088   1.000000
  156        3.989838   1.000000
  157        4.006928   1.000000
  158        4.016396   1.000000
  159        4.023390   1.000000
  160        4.037209   1.000000
  161        4.044797   1.000000
  162        4.057379   1.000000
  163        4.062813   1.000000
  164        4.066219   1.000000
  165        4.085471   1.000000
  166        4.088827   1.000000
  167        4.116050   1.000000
  168        4.116863   1.000000
  169        4.140592   1.000000
  170        4.167746   1.000000
  171        4.183704   1.000000
  172        4.187003   1.000000
  173        4.195888   1.000000
  174        4.212009   1.000000
  175        4.220916   1.000000
  176        4.232304   1.000000
  177        4.240271   1.000000
  178        4.279851   1.000000
  179        4.291306   1.000000
  180        4.303445   1.000000
  181        4.317801   1.000000
  182        4.333538   1.000000
  183        4.353862   1.000000
  184        4.356920   1.000000
  185        4.388656   1.000000
  186        4.389646   1.000000
  187        4.419572   1.000000
  188        4.444693   1.000000
  189        4.449383   1.000000
  190        4.468307   1.000000
  191        4.473973   1.000000
  192        4.490003   1.000000
  193        4.513039   1.000000
  194        4.513975   1.000000
  195        4.531227   1.000000
  196        4.544761   1.000000
  197        4.548075   1.000000
  198        4.574921   1.000000
  199        4.577399   1.000000
  200        4.596579   1.000000
  201        4.607504   1.000000
  202        4.635293   1.000000
  203        4.650921   1.000000
  204        4.654456   1.000000
  205        4.669247   1.000000
  206        4.676206   1.000000
  207        4.686419   1.000000
  208        4.688677   1.000000
  209        4.707220   1.000000
  210        4.708989   1.000000
  211        4.725722   1.000000
  212        4.736672   1.000000
  213        4.746235   1.000000
  214        4.757672   1.000000
  215        4.768468   1.000000
  216        4.783071   1.000000
  217        4.783913   1.000000
  218        4.799124   1.000000
  219        4.814683   1.000000
  220        4.831574   1.000000
  221        4.850299   1.000000
  222        4.852266   1.000000
  223        4.871558   1.000000
  224        4.879807   1.000000
  225        4.880013   1.000000
  226        4.915002   1.000000
  227        4.935474   1.000000
  228        4.946155   1.000000
  229        4.963904   1.000000
  230        4.974443   1.000000
  231        4.981070   1.000000
  232        4.995703   1.000000
  233        4.997824   1.000000
  234        5.010522   1.000000
  235        5.014887   1.000000
  236        5.028281   1.000000
  237        5.029062   1.000000
  238        5.035687   1.000000
  239        5.042501   1.000000
  240        5.045630   1.000000
  241        5.057082   1.000000
  242        5.066681   1.000000
  243        5.079627   1.000000
  244        5.082226   1.000000
  245        5.084540   1.000000
  246        5.099100   1.000000
  247        5.109301   1.000000
  248        5.112650   1.000000
  249        5.126756   1.000000
  250        5.128043   1.000000
  251        5.143174   1.000000
  252        5.150414   1.000000
  253        5.167861   1.000000
  254        5.177577   1.000000
  255        5.188188   1.000000
  256        5.194813   1.000000
  257        5.201671   1.000000
  258        5.214409   1.000000
  259        5.220325   1.000000
  260        5.233794   1.000000
  261        5.236882   1.000000
  262        5.241693   1.000000
  263        5.256738   1.000000
  264        5.274614   1.000000
  265        5.285566   1.000000
  266        5.288773   1.000000
  267        5.315286   1.000000
  268        5.322420   1.000000
  269        5.325494   1.000000
  270        5.338219   1.000000
  271        5.343489   1.000000
  272        5.354244   1.000000
  273        5.358839   1.000000
  274        5.362692   1.000000
  275        5.371472   1.000000
  276        5.379236   1.000000
  277        5.391625   1.000000
  278        5.396437   1.000000
  279        5.412412   1.000000
  280        5.414251   1.000000
  281        5.425845   1.000000
  282        5.425873   1.000000
  283        5.437366   1.000000
  284        5.444487   1.000000
  285        5.450226   1.000000
  286        5.459964   1.000000
  287        5.460295   1.000000
  288        5.472552   1.000000
  289        5.481308   1.000000
  290        5.498659   1.000000
  291        5.504084   1.000000
  292        5.510915   1.000000
  293        5.512074   1.000000
  294        5.523625   1.000000
  295        5.529305   1.000000
  296        5.534682   1.000000
  297        5.541431   1.000000
  298        5.551911   1.000000
  299        5.560241   1.000000
  300        5.564900   1.000000
  301        5.573727   1.000000
  302        5.574167   1.000000
  303        5.591527   1.000000
  304        5.594363   1.000000
  305        5.602955   1.000000
  306        5.608558   1.000000
  307        5.610903   1.000000
  308        5.619131   1.000000
  309        5.629660   1.000000
  310        5.629850   1.000000
  311        5.643885   1.000000
  312        5.644768   1.000000
  313        5.653961   1.000000
  314        5.664394   1.000000
  315        5.675689   1.000000
  316        5.676572   1.000000
  317        5.689629   1.000000
  318        5.704815   1.000000
  319        5.706241   1.000000
  320        5.716731   1.000000
  321        5.717279   1.000000
  322        5.724359   1.000000
  323        5.732009   1.000000
  324        5.744430   1.000000
  325        5.756487   1.000000
  326        5.760350   1.000000
  327        5.770170   1.000000
  328        5.778400   1.000000
  329        5.790539   1.000000
  330        5.794273   1.000000
  331        5.809815   1.000000
  332        5.824581   1.000000
  333        5.847822   1.000000
  334        5.855105   1.000000
  335        5.860591   1.000000
  336        5.863375   1.000000
  337        5.877595   1.000000
  338        5.895827   1.000000
  339        5.909837   1.000000
  340        5.923822   1.000000
  341        5.924246   1.000000
  342        5.942569   1.000000
  343        5.957596   1.000000
  344        5.973176   1.000000
  345        5.988429   1.000000
  346        6.005071   1.000000
  347        6.009963   1.000000
  348        6.022453   1.000000
  349        6.035652   1.000000
  350        6.072109   1.000000
  351        6.083250   1.000000
  352        6.112594   1.000000
  353        6.130033   1.000000
  354        6.157330   1.000000
  355        6.163388   1.000000
  356        6.194285   1.000001
  357        6.210154   1.000002
  358        6.216281   1.000002
  359        6.228327   1.000003
  360        6.234651   1.000004
  361        6.239999   1.000005
  362        6.270827   1.000013
  363        6.276189   1.000015
  364        6.292089   1.000025
  365        6.303952   1.000036
  366        6.308520   1.000041
  367        6.324460   1.000065
  368        6.325290   1.000067
  369        6.338948   1.000098
  370        6.348451   1.000127
  371        6.359041   1.000170
  372        6.373280   1.000247
  373        6.379869   1.000293
  374        6.382051   1.000310
  375        6.387195   1.000353
  376        6.407952   1.000588
  377        6.408811   1.000600
  378        6.428812   1.000958
  379        6.429967   1.000983
  380        6.438879   1.001202
  381        6.442829   1.001312
  382        6.451629   1.001588
  383        6.453432   1.001651
  384        6.472685   1.002465
  385        6.474197   1.002541
  386        6.485907   1.003204