       N       E                     dE             d eps       ncg     rms          rms(c)
DAV:   1     0.750382390363E+04    0.75038E+04   -0.28527E+05 32913   0.182E+03
DAV:   2    -0.136317214969E+02   -0.75175E+04   -0.73487E+04 32832   0.456E+02
DAV:   3    -0.833326739614E+03   -0.81970E+03   -0.70110E+03 33048   0.191E+02
DAV:   4    -0.100648083812E+04   -0.17315E+03   -0.16231E+03 59913   0.571E+01
DAV:   5    -0.102122341504E+04   -0.14743E+02   -0.13921E+02 52839   0.216E+01    0.921E+01
RMM:   6    -0.878841553863E+03    0.14238E+03   -0.13990E+03 32832   0.111E+02    0.453E+01
RMM:   7    -0.116941961275E+04   -0.29058E+03   -0.51869E+02 39969   0.420E+01    0.180E+02
RMM:   8    -0.889710100650E+03    0.27971E+03   -0.23660E+02 32832   0.448E+01    0.637E+01
RMM:   9    -0.861497692430E+03    0.28212E+02   -0.65002E+01 32982   0.182E+01    0.195E+01
RMM:  10    -0.863688388716E+03   -0.21907E+01   -0.40400E+01 45971   0.834E+00    0.181E+01
RMM:  11    -0.863155089946E+03    0.53330E+00   -0.12135E+01 38365   0.595E+00    0.150E+01
RMM:  12    -0.862330641016E+03    0.82445E+00   -0.44596E+00 40206   0.357E+00    0.102E+01
RMM:  13    -0.862017585382E+03    0.31306E+00   -0.20589E+00 35731   0.306E+00    0.979E+00
RMM:  14    -0.861586584104E+03    0.43100E+00   -0.12111E+00 35099   0.248E+00    0.667E+00
RMM:  15    -0.861566619512E+03    0.19965E-01   -0.87083E-01 45489   0.115E+00    0.683E+00
RMM:  16    -0.861341220658E+03    0.22540E+00   -0.42603E-01 34047   0.167E+00    0.428E+00
RMM:  17    -0.861294115312E+03    0.47105E-01   -0.21356E-01 36724   0.888E-01    0.299E+00
RMM:  18    -0.861306193533E+03   -0.12078E-01   -0.24631E-01 41380   0.796E-01    0.302E+00
RMM:  19    -0.861264176570E+03    0.42017E-01   -0.11536E-01 36401   0.674E-01    0.102E+00
RMM:  20    -0.861267646522E+03   -0.34700E-02   -0.79325E-02 48806   0.287E-01    0.105E+00
RMM:  21    -0.861267516437E+03    0.13008E-03   -0.25391E-02 36770   0.333E-01    0.114E+00
RMM:  22    -0.861265941040E+03    0.15754E-02   -0.14618E-02 38200   0.227E-01    0.966E-01
RMM:  23    -0.861264793368E+03    0.11477E-02   -0.63341E-03 41706   0.128E-01    0.849E-01
RMM:  24    -0.861261491096E+03    0.33023E-02   -0.24461E-03 34387   0.125E-01    0.346E-01
RMM:  25    -0.861261383621E+03    0.10748E-03   -0.20046E-03 47422   0.524E-02    0.249E-01
RMM:  26    -0.861261187633E+03    0.19599E-03   -0.16749E-03 41678   0.603E-02    0.139E-01
RMM:  27    -0.861261130002E+03    0.57631E-04   -0.63496E-04 46225   0.349E-02    0.832E-02
RMM:  28    -0.861261105285E+03    0.24717E-04   -0.65462E-05 37934   0.221E-02    0.729E-02
RMM:  29    -0.861261071583E+03    0.33702E-04    0.67056E-06 36493   0.154E-02    0.381E-02
RMM:  30    -0.861261064563E+03    0.70206E-05    0.14778E-05 43815   0.770E-03    0.414E-02
RMM:  31    -0.861261041172E+03    0.23391E-04    0.39967E-05 33925   0.661E-03    0.216E-02
RMM:  32    -0.861261033607E+03    0.75646E-05    0.37704E-05 25419   0.456E-03    0.124E-02
RMM:  33    -0.861261029041E+03    0.45656E-05    0.35294E-05 21861   0.334E-03    0.116E-02
RMM:  34    -0.861261024251E+03    0.47903E-05    0.32666E-05 21981   0.406E-03    0.278E-03
RMM:  35    -0.861261021417E+03    0.28342E-05    0.27469E-05 19913   0.202E-03    0.380E-03
RMM:  36    -0.861261018624E+03    0.27929E-05    0.29541E-05 19549   0.235E-03    0.189E-03
RMM:  37    -0.861261016203E+03    0.24209E-05    0.23726E-05 19315   0.127E-03    0.120E-03
RMM:  38    -0.861261014214E+03    0.19891E-05    0.20607E-05 18380   0.137E-03    0.129E-03
RMM:  39    -0.861261012235E+03    0.19793E-05    0.19753E-05 17137   0.895E-04    0.736E-04
RMM:  40    -0.861261010546E+03    0.16892E-05    0.17075E-05 15450   0.835E-04    0.991E-04
RMM:  41    -0.861261009088E+03    0.14580E-05    0.15543E-05 13780   0.623E-04    0.514E-04
RMM:  42    -0.861261007656E+03    0.14312E-05    0.14250E-05 11926   0.544E-04    0.598E-04
RMM:  43    -0.861261006360E+03    0.12965E-05    0.12934E-05 11337   0.495E-04    0.487E-04
RMM:  44    -0.861261005165E+03    0.11945E-05    0.11893E-05  9171   0.412E-04    0.396E-04
RMM:  45    -0.861261004079E+03    0.10861E-05    0.10779E-05  9004   0.399E-04    0.329E-04
RMM:  46    -0.861261003089E+03    0.99051E-06    0.99130E-06  8014   0.339E-04
   1 F= -.86126100E+03 E0= -.86125500E+03  d E =-.861261E+03
       N       E                     dE             d eps       ncg     rms          rms(c)
DAV:   1    -0.862256864962E+03   -0.99586E+00   -0.48753E+02 32832   0.318E+01    0.118E+01
RMM:   2    -0.912280695143E+03   -0.50024E+02   -0.23715E+02 38133   0.340E+01    0.645E+01
RMM:   3    -0.865223091094E+03    0.47058E+02   -0.43474E+01 32832   0.203E+01    0.243E+01
RMM:   4    -0.863052640522E+03    0.21705E+01   -0.63560E+00 36915   0.428E+00    0.114E+01
RMM:   5    -0.862953919817E+03    0.98721E-01   -0.26307E+00 46908   0.183E+00    0.783E+00
RMM:   6    -0.862821869857E+03    0.13205E+00   -0.22219E+00 42442   0.218E+00    0.471E+00
RMM:   7    -0.862893933616E+03   -0.72064E-01   -0.86637E-01 47515   0.119E+00    0.609E+00
RMM:   8    -0.862707089279E+03    0.18684E+00   -0.25658E-01 33513   0.116E+00    0.268E+00
RMM:   9    -0.862694448379E+03    0.12641E-01   -0.20326E-01 35287   0.915E-01    0.211E+00
RMM:  10    -0.862773632371E+03   -0.79184E-01   -0.41595E-01 43865   0.988E-01    0.445E+00
RMM:  11    -0.862705310479E+03    0.68322E-01   -0.11380E-01 32984   0.792E-01    0.257E+00
RMM:  12    -0.862700731263E+03    0.45792E-02   -0.78448E-02 46659   0.326E-01    0.245E+00
RMM:  13    -0.862673770851E+03    0.26960E-01   -0.28733E-02 35614   0.341E-01    0.113E+00
RMM:  14    -0.862670871188E+03    0.28997E-02   -0.22325E-02 45455   0.206E-01    0.645E-01
RMM:  15    -0.862670283491E+03    0.58770E-03   -0.12605E-02 46438   0.140E-01    0.429E-01
RMM:  16    -0.862669667226E+03    0.61627E-03   -0.41871E-03 41155   0.102E-01    0.182E-01
RMM:  17    -0.862669888722E+03   -0.22150E-03   -0.19356E-03 47728   0.530E-02    0.274E-01
RMM:  18    -0.862669665298E+03    0.22342E-03   -0.37722E-04 35697   0.426E-02    0.184E-01
RMM:  19    -0.862669639852E+03    0.25446E-04   -0.24982E-04 46713   0.197E-02    0.166E-01
RMM:  20    -0.862669525670E+03    0.11418E-03   -0.13068E-04 35778   0.235E-02    0.796E-02
RMM:  21    -0.862669514591E+03    0.11079E-04   -0.10109E-04 47694   0.120E-02    0.469E-02
RMM:  22    -0.862669512958E+03    0.16328E-05   -0.37425E-05 42569   0.890E-03    0.386E-02
RMM:  23    -0.862669506830E+03    0.61285E-05   -0.21881E-05 38112   0.844E-03    0.143E-02
RMM:  24    -0.862669507232E+03   -0.40190E-06   -0.86404E-06 34341   0.495E-03
   2 F= -.86266951E+03 E0= -.86266848E+03  d E =-.140850E+01
       N       E                     dE             d eps       ncg     rms          rms(c)
DAV:   1    -0.862694062581E+03   -0.24556E-01   -0.14509E+01 33408   0.538E+00    0.143E+00
RMM:   2    -0.863648240972E+03   -0.95418E+00   -0.26746E+00 35323   0.370E+00    0.126E+01
RMM:   3    -0.862718659360E+03    0.92958E+00   -0.65831E-01 32832   0.248E+00    0.192E+00
RMM:   4    -0.862702219149E+03    0.16440E-01   -0.15318E-01 45618   0.472E-01    0.648E-01
RMM:   5    -0.862710659485E+03   -0.84403E-02   -0.60377E-02 42144   0.362E-01    0.134E+00
RMM:   6    -0.862702087266E+03    0.85722E-02   -0.23280E-02 35751   0.302E-01    0.475E-01
RMM:   7    -0.862705206247E+03   -0.31190E-02   -0.22130E-02 41328   0.243E-01    0.894E-01
RMM:   8    -0.862701729520E+03    0.34767E-02   -0.56847E-03 33268   0.181E-01    0.452E-01
RMM:   9    -0.862701036507E+03    0.69301E-03   -0.37622E-03 41335   0.971E-02    0.228E-01
RMM:  10    -0.862701191045E+03   -0.15454E-03   -0.16175E-03 38527   0.725E-02    0.285E-01
RMM:  11    -0.862700788729E+03    0.40232E-03   -0.56783E-04 34379   0.566E-02    0.762E-02
RMM:  12    -0.862700795610E+03   -0.68806E-05   -0.42757E-04 45490   0.263E-02    0.577E-02
RMM:  13    -0.862700798263E+03   -0.26533E-05   -0.11620E-04 38829   0.178E-02    0.590E-02
RMM:  14    -0.862700784052E+03    0.14211E-04   -0.40008E-05 36653   0.127E-02    0.235E-02
RMM:  15    -0.862700790263E+03   -0.62108E-05   -0.36729E-05 41765   0.981E-03    0.400E-02
RMM:  16    -0.862700783292E+03    0.69712E-05   -0.87254E-06 30883   0.748E-03    0.158E-02
RMM:  17    -0.862700783205E+03    0.86409E-07   -0.47239E-06 27413   0.347E-03
   3 F= -.86270078E+03 E0= -.86270008E+03  d E =-.143978E+01
       N       E                     dE             d eps       ncg     rms          rms(c)
DAV:   1    -0.862762001623E+03   -0.61218E-01   -0.18236E+01 32832   0.613E+00    0.163E+00
RMM:   2    -0.864701628717E+03   -0.19396E+01   -0.43514E+00 37122   0.407E+00    0.187E+01
RMM:   3    -0.862785772007E+03    0.19159E+01   -0.10855E+00 32832   0.297E+00    0.218E+00
RMM:   4    -0.862766267046E+03    0.19505E-01   -0.43897E-01 44680   0.657E-01    0.934E-01
RMM:   5    -0.862776935877E+03   -0.10669E-01   -0.13216E-01 43908   0.389E-01    0.132E+00
RMM:   6    -0.862769541442E+03    0.73944E-02   -0.33849E-02 36907   0.333E-01    0.509E-01
RMM:   7    -0.862773733851E+03   -0.41924E-02   -0.27994E-02 39512   0.295E-01    0.107E+00
RMM:   8    -0.862767389656E+03    0.63442E-02   -0.82808E-03 32882   0.238E-01    0.256E-01
RMM:   9    -0.862768614282E+03   -0.12246E-02   -0.79184E-03 40894   0.142E-01    0.519E-01
RMM:  10    -0.862767590603E+03    0.10237E-02   -0.19940E-03 34541   0.997E-02    0.268E-01
RMM:  11    -0.862767299227E+03    0.29138E-03   -0.12697E-03 40572   0.581E-02    0.108E-01
RMM:  12    -0.862767342770E+03   -0.43543E-04   -0.57893E-04 45410   0.332E-02    0.137E-01
RMM:  13    -0.862767261545E+03    0.81225E-04   -0.14127E-04 35526   0.259E-02    0.534E-02
RMM:  14    -0.862767265423E+03   -0.38773E-05   -0.96570E-05 46578   0.119E-02    0.537E-02
RMM:  15    -0.862767263017E+03    0.24060E-05   -0.38796E-05 35698   0.130E-02    0.425E-02
RMM:  16    -0.862767256554E+03    0.64621E-05   -0.18039E-05 35058   0.900E-03    0.224E-02
RMM:  17    -0.862767258104E+03   -0.15499E-05   -0.14029E-05 36899   0.552E-03    0.264E-02
RMM:  18    -0.862767255059E+03    0.30455E-05   -0.35193E-06 23293   0.511E-03    0.811E-03
RMM:  19    -0.862767255014E+03    0.44354E-07   -0.15579E-06 19433   0.299E-03
   4 F= -.86276726E+03 E0= -.86276585E+03  d E =-.664718E-01
       N       E                     dE             d eps       ncg     rms          rms(c)
DAV:   1    -0.862780550182E+03   -0.13295E-01   -0.11780E+01 32832   0.493E+00    0.131E+00
RMM:   2    -0.864026211012E+03   -0.12457E+01   -0.27916E+00 37103   0.325E+00    0.151E+01
RMM:   3    -0.862796613417E+03    0.12296E+01   -0.69282E-01 32832   0.237E+00    0.176E+00
RMM:   4    -0.862783141102E+03    0.13472E-01   -0.28340E-01 44559   0.529E-01    0.738E-01
RMM:   5    -0.862790011641E+03   -0.68705E-02   -0.86885E-02 45299   0.303E-01    0.105E+00
RMM:   6    -0.862785393903E+03    0.46177E-02   -0.21026E-02 37000   0.259E-01    0.410E-01
RMM:   7    -0.862787787483E+03   -0.23936E-02   -0.16657E-02 39392   0.228E-01    0.836E-01
RMM:   8    -0.862784012543E+03    0.37749E-02   -0.51698E-03 32876   0.188E-01    0.222E-01
RMM:   9    -0.862784664547E+03   -0.65200E-03   -0.47059E-03 41469   0.105E-01    0.391E-01
RMM:  10    -0.862784106594E+03    0.55795E-03   -0.11115E-03 34712   0.731E-02    0.210E-01
RMM:  11    -0.862783907893E+03    0.19870E-03   -0.64775E-04 38402   0.460E-02    0.811E-02
RMM:  12    -0.862783932967E+03   -0.25073E-04   -0.37184E-04 45388   0.254E-02    0.976E-02
RMM:  13    -0.862783891405E+03    0.41561E-04   -0.87091E-05 35908   0.197E-02    0.379E-02
RMM:  14    -0.862783895529E+03   -0.41236E-05   -0.60232E-05 45879   0.902E-03    0.418E-02
RMM:  15    -0.862783896960E+03   -0.14308E-05   -0.24563E-05 36974   0.939E-03    0.423E-02
RMM:  16    -0.862783889570E+03    0.73891E-05   -0.11663E-05 32195   0.829E-03    0.169E-02
RMM:  17    -0.862783890776E+03   -0.12057E-05   -0.91999E-06 32878   0.540E-03    0.215E-02
RMM:  18    -0.862783888802E+03    0.19745E-05   -0.28386E-06 21036   0.474E-03    0.692E-03
RMM:  19    -0.862783888781E+03    0.21093E-07   -0.13342E-06 18694   0.267E-03
   5 F= -.86278389E+03 E0= -.86278196E+03  d E =-.831056E-01
       N       E                     dE             d eps       ncg     rms          rms(c)
DAV:   1    -0.862789552581E+03   -0.56638E-02   -0.27993E+00 33408   0.238E+00    0.594E-01
RMM:   2    -0.863027528372E+03   -0.23798E+00   -0.52732E-01 36703   0.149E+00    0.662E+00
RMM:   3    -0.862796223262E+03    0.23131E+00   -0.13053E-01 32832   0.104E+00    0.902E-01
RMM:   4    -0.862791138145E+03    0.50851E-02   -0.47741E-02 42219   0.257E-01    0.302E-01
RMM:   5    -0.862793142747E+03   -0.20046E-02   -0.18179E-02 46446   0.152E-01    0.589E-01
RMM:   6    -0.862791563458E+03    0.15793E-02   -0.49113E-03 36429   0.129E-01    0.189E-01
RMM:   7    -0.862792256064E+03   -0.69261E-03   -0.43849E-03 43127   0.101E-01    0.415E-01
RMM:   8    -0.862791487796E+03    0.76827E-03   -0.10173E-03 33259   0.746E-02    0.206E-01
RMM:   9    -0.862791346787E+03    0.14101E-03   -0.81337E-04 38376   0.522E-02    0.119E-01
RMM:  10    -0.862791395340E+03   -0.48553E-04   -0.48151E-04 38562   0.392E-02    0.146E-01
RMM:  11    -0.862791286783E+03    0.10856E-03   -0.13834E-04 33853   0.284E-02    0.298E-02
RMM:  12    -0.862791293818E+03   -0.70345E-05   -0.11359E-04 46268   0.118E-02    0.375E-02
RMM:  13    -0.862791292655E+03    0.11623E-05   -0.22065E-05 36334   0.818E-03    0.333E-02
RMM:  14    -0.862791287707E+03    0.49481E-05   -0.92912E-06 31631   0.646E-03    0.121E-02
RMM:  15    -0.862791288521E+03   -0.81363E-06   -0.63592E-06 29598   0.479E-03
   6 F= -.86279129E+03 E0= -.86278939E+03  d E =-.739974E-02
       N       E                     dE             d eps       ncg     rms          rms(c)
DAV:   1    -0.862791575412E+03   -0.28770E-03   -0.32457E-01 34110   0.812E-01    0.204E-01
RMM:   2    -0.862819753689E+03   -0.28178E-01   -0.62969E-02 36762   0.511E-01    0.228E+00
RMM:   3    -0.862792325521E+03    0.27428E-01   -0.15533E-02 32832   0.359E-01    0.307E-01
RMM:   4    -0.862791749639E+03    0.57588E-03   -0.57560E-03 42481   0.879E-02    0.103E-01
RMM:   5    -0.862791977808E+03   -0.22817E-03   -0.21427E-03 46559   0.513E-02    0.198E-01
RMM:   6    -0.862791802022E+03    0.17579E-03   -0.55886E-04 36504   0.433E-02    0.654E-02
RMM:   7    -0.862791876982E+03   -0.74961E-04   -0.48968E-04 43900   0.329E-02    0.138E-01
RMM:   8    -0.862791794028E+03    0.82954E-04   -0.11450E-04 33330   0.247E-02    0.727E-02
RMM:   9    -0.862791774566E+03    0.19462E-04   -0.84841E-05 35716   0.187E-02    0.394E-02
RMM:  10    -0.862791782242E+03   -0.76751E-05   -0.66349E-05 40558   0.136E-02    0.522E-02
RMM:  11    -0.862791768551E+03    0.13690E-04   -0.17765E-05 32993   0.100E-02    0.108E-02
RMM:  12    -0.862791769261E+03   -0.71030E-06   -0.12544E-05 34322   0.421E-03    0.126E-02
RMM:  13    -0.862791769047E+03    0.21413E-06   -0.19815E-06 20551   0.330E-03
   7 F= -.86279177E+03 E0= -.86278988E+03  d E =-.788027E-02
       N       E                     dE             d eps       ncg     rms          rms(c)
DAV:   1    -0.862792617957E+03   -0.84870E-03   -0.75064E-01 33174   0.123E+00    0.246E-01
RMM:   2    -0.862828104678E+03   -0.35487E-01   -0.86859E-02 36578   0.630E-01    0.256E+00
RMM:   3    -0.862794119820E+03    0.33985E-01   -0.21403E-02 32848   0.426E-01    0.357E-01
RMM:   4    -0.862793349959E+03    0.76986E-03   -0.69713E-03 44289   0.979E-02    0.138E-01
RMM:   5    -0.862793664980E+03   -0.31502E-03   -0.27089E-03 42655   0.713E-02    0.258E-01
RMM:   6    -0.862793322748E+03    0.34223E-03   -0.94600E-04 36063   0.598E-02    0.832E-02
RMM:   7    -0.862793488106E+03   -0.16536E-03   -0.93660E-04 42028   0.463E-02    0.197E-01
RMM:   8    -0.862793325512E+03    0.16259E-03   -0.25253E-04 33398   0.361E-02    0.102E-01
RMM:   9    -0.862793273029E+03    0.52482E-04   -0.12961E-04 34223   0.267E-02    0.370E-02
RMM:  10    -0.862793290304E+03   -0.17274E-04   -0.12646E-04 42800   0.163E-02    0.629E-02
RMM:  11    -0.862793271299E+03    0.19005E-04   -0.31828E-05 34752   0.124E-02    0.155E-02
RMM:  12    -0.862793272327E+03   -0.10277E-05   -0.23043E-05 39697   0.483E-03    0.153E-02
RMM:  13    -0.862793272262E+03    0.64931E-07   -0.33097E-06 22584   0.420E-03
   8 F= -.86279327E+03 E0= -.86279129E+03  d E =-.150321E-02
       N       E                     dE             d eps       ncg     rms          rms(c)
DAV:   1    -0.862793292212E+03   -0.19885E-04   -0.25749E-02 34164   0.227E-01    0.496E-02
RMM:   2    -0.862794688797E+03   -0.13966E-02   -0.34432E-03 36454   0.126E-01    0.508E-01
RMM:   3    -0.862793348482E+03    0.13403E-02   -0.85229E-04 32840   0.854E-02    0.740E-02
RMM:   4    -0.862793315477E+03    0.33005E-04   -0.27032E-04 43863   0.199E-02    0.275E-02
RMM:   5    -0.862793328063E+03   -0.12585E-04   -0.10772E-04 43879   0.139E-02    0.508E-02
RMM:   6    -0.862793315064E+03    0.12999E-04   -0.35944E-05 36175   0.113E-02    0.168E-02
RMM:   7    -0.862793320352E+03   -0.52886E-05   -0.32967E-05 41816   0.863E-03    0.361E-02
RMM:   8    -0.862793315111E+03    0.52408E-05   -0.93907E-06 31192   0.692E-03    0.205E-02
RMM:   9    -0.862793313032E+03    0.20797E-05   -0.44674E-06 25396   0.534E-03    0.749E-03
RMM:  10    -0.862793313457E+03   -0.42540E-06   -0.24150E-06 20083   0.332E-03
   9 F= -.86279331E+03 E0= -.86279131E+03  d E =-.154441E-02
       N       E                     dE             d eps       ncg     rms          rms(c)
DAV:   1    -0.862793653760E+03   -0.34073E-03   -0.20945E-01 33336   0.648E-01    0.101E-01
RMM:   2    -0.862799451385E+03   -0.57976E-02   -0.13983E-02 36034   0.264E-01    0.103E+00
RMM:   3    -0.862794005589E+03    0.54458E-02   -0.32516E-03 32840   0.167E-01    0.154E-01
RMM:   4    -0.862793851191E+03    0.15440E-03   -0.10619E-03 44046   0.415E-02    0.571E-02
RMM:   5    -0.862793895598E+03   -0.44408E-04   -0.44182E-04 44328   0.281E-02    0.114E-01
RMM:   6    -0.862793825857E+03    0.69742E-04   -0.14832E-04 35778   0.240E-02    0.387E-02
RMM:   7    -0.862793874025E+03   -0.48169E-04   -0.24440E-04 40450   0.261E-02    0.106E-01
RMM:   8    -0.862793821986E+03    0.52039E-04   -0.71186E-05 32876   0.205E-02    0.462E-02
RMM:   9    -0.862793811517E+03    0.10469E-04   -0.27031E-05 34788   0.116E-02    0.172E-02
RMM:  10    -0.862793814973E+03   -0.34560E-05   -0.24103E-05 40272   0.680E-03    0.284E-02
RMM:  11    -0.862793811266E+03    0.37070E-05   -0.55303E-06 26873   0.545E-03    0.859E-03
RMM:  12    -0.862793811028E+03    0.23810E-06   -0.22304E-06 20177   0.276E-03
  10 F= -.86279381E+03 E0= -.86279174E+03  d E =-.497571E-03
       N       E                     dE             d eps       ncg     rms          rms(c)
DAV:   1    -0.862793831842E+03   -0.20575E-04   -0.21507E-01 33084   0.656E-01    0.104E-01
RMM:   2    -0.862800011681E+03   -0.61798E-02   -0.14753E-02 35969   0.272E-01    0.106E+00
RMM:   3    -0.862794198581E+03    0.58131E-02   -0.34573E-03 32836   0.172E-01    0.159E-01
RMM:   4    -0.862794031790E+03    0.16679E-03   -0.11290E-03 43866   0.431E-02    0.582E-02
RMM:   5    -0.862794081122E+03   -0.49331E-04   -0.47253E-04 44601   0.289E-02    0.118E-01
RMM:   6    -0.862794007251E+03    0.73870E-04   -0.15427E-04 35806   0.242E-02    0.398E-02
RMM:   7    -0.862794054862E+03   -0.47610E-04   -0.24649E-04 40461   0.263E-02    0.106E-01
RMM:   8    -0.862794002651E+03    0.52210E-04   -0.71303E-05 32931   0.205E-02    0.458E-02
RMM:   9    -0.862793992530E+03    0.10122E-04   -0.27388E-05 35121   0.115E-02    0.176E-02
RMM:  10    -0.862793996034E+03   -0.35040E-05   -0.23609E-05 40035   0.667E-03    0.289E-02
RMM:  11    -0.862793992113E+03    0.39203E-05   -0.54896E-06 26879   0.551E-03    0.799E-03
RMM:  12    -0.862793991928E+03    0.18589E-06   -0.22136E-06 20518   0.272E-03
  11 F= -.86279399E+03 E0= -.86279184E+03  d E =-.678470E-03
       N       E                     dE             d eps       ncg     rms          rms(c)
DAV:   1    -0.862794054671E+03   -0.62557E-04   -0.90553E-02 33282   0.428E-01    0.794E-02
RMM:   2    -0.862797469914E+03   -0.34152E-02   -0.91078E-03 36300   0.206E-01    0.779E-01
RMM:   3    -0.862794216781E+03    0.32531E-02   -0.21633E-03 32860   0.136E-01    0.130E-01
RMM:   4    -0.862794127918E+03    0.88863E-04   -0.66226E-04 44200   0.326E-02    0.487E-02
RMM:   5    -0.862794153522E+03   -0.25604E-04   -0.26931E-04 45374   0.205E-02    0.812E-02
RMM:   6    -0.862794120585E+03    0.32937E-04   -0.97551E-05 36245   0.182E-02    0.281E-02
RMM:   7    -0.862794146145E+03   -0.25560E-04   -0.11907E-04 42025   0.169E-02    0.768E-02
RMM:   8    -0.862794119187E+03    0.26958E-04   -0.31067E-05 32809   0.132E-02    0.324E-02
RMM:   9    -0.862794114162E+03    0.50249E-05   -0.17063E-05 34630   0.862E-03    0.129E-02
RMM:  10    -0.862794115703E+03   -0.15412E-05   -0.11426E-05 33070   0.500E-03    0.195E-02
RMM:  11    -0.862794113872E+03    0.18310E-05   -0.22731E-06 20328   0.403E-03    0.505E-03
RMM:  12    -0.862794113858E+03    0.14348E-07   -0.12322E-06 18113   0.211E-03
  12 F= -.86279411E+03 E0= -.86279197E+03  d E =-.121930E-03
