<?xml version="1.0" encoding="ISO-8859-1"?>
<modeling>
 <generator>
  <i name="program" type="string">vasp </i>
  <i name="version" type="string">5.4.1  </i>
  <i name="subversion" type="string">24Jun15 (build Jun 21 2019 17:19:10) complex                          parallel </i>
  <i name="platform" type="string">IFC91_ompi </i>
  <i name="date" type="string">2019 08 26 </i>
  <i name="time" type="string">14:38:31 </i>
 </generator>
 <incar>
  <i type="string" name="SYSTEM">Opt</i>
  <i type="int" name="ISTART">     0</i>
  <i type="string" name="PREC">normal</i>
  <i type="string" name="ALGO"> Fast</i>
  <i type="int" name="ISPIN">     1</i>
  <i type="int" name="ICHARG">     2</i>
  <i type="int" name="NELM">   400</i>
  <i type="int" name="IBRION">     2</i>
  <i name="EDIFF">      0.00000100</i>
  <i name="EDIFFG">     -0.01000000</i>
  <i type="int" name="NSW">   100</i>
  <i type="int" name="ISIF">     2</i>
  <i type="int" name="ISYM">     0</i>
  <i name="ENCUT">    400.00000000</i>
  <i type="int" name="NGX">    72</i>
  <i type="int" name="NGY">    72</i>
  <i type="int" name="NGZ">    72</i>
  <i name="POTIM">      0.50000000</i>
  <i type="string" name="LREAL">Auto</i>
  <i type="logical" name="LWAVE"> F  </i>
  <i type="logical" name="LCHARG"> F  </i>
  <v type="int" name="KPOINT_BSE">    -1     0     0     0</v>
  <i type="int" name="NELM">   400</i>
 </incar>
 <kpoints>
  <generation param="Monkhorst-Pack">
   <v type="int" name="divisions">       4        4        4 </v>
   <v name="usershift">      0.00000000       0.00000000       0.00000000 </v>
   <v name="genvec1">      0.25000000       0.00000000       0.00000000 </v>
   <v name="genvec2">      0.00000000       0.25000000       0.00000000 </v>
   <v name="genvec3">      0.00000000       0.00000000       0.25000000 </v>
   <v name="shift">      0.50000000       0.50000000       0.50000000 </v>
  </generation>
  <varray name="kpointlist" >
   <v>       0.12500000       0.12500000       0.12500000 </v>
   <v>       0.37500000       0.12500000       0.12500000 </v>
   <v>      -0.37500000       0.12500000       0.12500000 </v>
   <v>      -0.12500000       0.12500000       0.12500000 </v>
   <v>       0.12500000       0.37500000       0.12500000 </v>
   <v>       0.37500000       0.37500000       0.12500000 </v>
   <v>      -0.37500000       0.37500000       0.12500000 </v>
   <v>      -0.12500000       0.37500000       0.12500000 </v>
   <v>       0.12500000      -0.37500000       0.12500000 </v>
   <v>       0.37500000      -0.37500000       0.12500000 </v>
   <v>      -0.37500000      -0.37500000       0.12500000 </v>
   <v>      -0.12500000      -0.37500000       0.12500000 </v>
   <v>       0.12500000      -0.12500000       0.12500000 </v>
   <v>       0.37500000      -0.12500000       0.12500000 </v>
   <v>      -0.37500000      -0.12500000       0.12500000 </v>
   <v>      -0.12500000      -0.12500000       0.12500000 </v>
   <v>       0.12500000       0.12500000       0.37500000 </v>
   <v>       0.37500000       0.12500000       0.37500000 </v>
   <v>      -0.37500000       0.12500000       0.37500000 </v>
   <v>      -0.12500000       0.12500000       0.37500000 </v>
   <v>       0.12500000       0.37500000       0.37500000 </v>
   <v>       0.37500000       0.37500000       0.37500000 </v>
   <v>      -0.37500000       0.37500000       0.37500000 </v>
   <v>      -0.12500000       0.37500000       0.37500000 </v>
   <v>       0.12500000      -0.37500000       0.37500000 </v>
   <v>       0.37500000      -0.37500000       0.37500000 </v>
   <v>      -0.37500000      -0.37500000       0.37500000 </v>
   <v>      -0.12500000      -0.37500000       0.37500000 </v>
   <v>       0.12500000      -0.12500000       0.37500000 </v>
   <v>       0.37500000      -0.12500000       0.37500000 </v>
   <v>      -0.37500000      -0.12500000       0.37500000 </v>
   <v>      -0.12500000      -0.12500000       0.37500000 </v>
  </varray>
  <varray name="weights" >
   <v>       0.03125000 </v>
   <v>       0.03125000 </v>
   <v>       0.03125000 </v>
   <v>       0.03125000 </v>
   <v>       0.03125000 </v>
   <v>       0.03125000 </v>
   <v>       0.03125000 </v>
   <v>       0.03125000 </v>
   <v>       0.03125000 </v>
   <v>       0.03125000 </v>
   <v>       0.03125000 </v>
   <v>       0.03125000 </v>
   <v>       0.03125000 </v>
   <v>       0.03125000 </v>
   <v>       0.03125000 </v>
   <v>       0.03125000 </v>
   <v>       0.03125000 </v>
   <v>       0.03125000 </v>
   <v>       0.03125000 </v>
   <v>       0.03125000 </v>
   <v>       0.03125000 </v>
   <v>       0.03125000 </v>
   <v>       0.03125000 </v>
   <v>       0.03125000 </v>
   <v>       0.03125000 </v>
   <v>       0.03125000 </v>
   <v>       0.03125000 </v>
   <v>       0.03125000 </v>
   <v>       0.03125000 </v>
   <v>       0.03125000 </v>
   <v>       0.03125000 </v>
   <v>       0.03125000 </v>
  </varray>
 </kpoints>
 <parameters>
  <separator name="general" >
   <i type="string" name="SYSTEM">Opt</i>
   <i type="logical" name="LCOMPAT"> F  </i>
  </separator>
  <separator name="electronic" >
   <i type="string" name="PREC">normal</i>
   <i name="ENMAX">    400.00000000</i>
   <i name="ENAUG">    511.36800000</i>
   <i name="EDIFF">      0.00000100</i>
   <i type="int" name="IALGO">    68</i>
   <i type="int" name="IWAVPR">    11</i>
   <i type="int" name="NBANDS">   513</i>
   <i name="NELECT">    854.00000000</i>
   <i type="int" name="TURBO">     0</i>
   <i type="int" name="IRESTART">     0</i>
   <i type="int" name="NREBOOT">     0</i>
   <i type="int" name="NMIN">     0</i>
   <i name="EREF">      0.00000000</i>
   <separator name="electronic smearing" >
    <i type="int" name="ISMEAR">     1</i>
    <i name="SIGMA">      0.20000000</i>
    <i name="KSPACING">      0.50000000</i>
    <i type="logical" name="KGAMMA"> T  </i>
   </separator>
   <separator name="electronic projectors" >
    <i type="logical" name="LREAL"> T  </i>
    <v name="ROPT">     -0.00050000     -0.00050000</v>
    <i type="int" name="LMAXPAW">  -100</i>
    <i type="int" name="LMAXMIX">     2</i>
    <i type="logical" name="NLSPLINE"> F  </i>
   </separator>
   <separator name="electronic startup" >
    <i type="int" name="ISTART">     0</i>
    <i type="int" name="ICHARG">     2</i>
    <i type="int" name="INIWAV">     1</i>
   </separator>
   <separator name="electronic spin" >
    <i type="int" name="ISPIN">     1</i>
    <i type="logical" name="LNONCOLLINEAR"> F  </i>
    <v name="MAGMOM">      1.00000000      1.00000000      1.00000000      1.00000000      1.00000000      1.00000000      1.00000000      1.00000000      1.00000000      1.00000000      1.00000000      1.00000000      1.00000000      1.00000000      1.00000000      1.00000000      1.00000000      1.00000000      1.00000000      1.00000000
      1.00000000      1.00000000      1.00000000      1.00000000      1.00000000      1.00000000      1.00000000      1.00000000      1.00000000      1.00000000      1.00000000      1.00000000      1.00000000      1.00000000      1.00000000      1.00000000      1.00000000      1.00000000      1.00000000      1.00000000
      1.00000000      1.00000000      1.00000000      1.00000000      1.00000000      1.00000000      1.00000000      1.00000000      1.00000000      1.00000000      1.00000000      1.00000000      1.00000000      1.00000000      1.00000000      1.00000000      1.00000000      1.00000000      1.00000000      1.00000000
      1.00000000      1.00000000      1.00000000      1.00000000      1.00000000      1.00000000      1.00000000      1.00000000      1.00000000      1.00000000      1.00000000      1.00000000      1.00000000      1.00000000      1.00000000      1.00000000      1.00000000      1.00000000      1.00000000      1.00000000
      1.00000000      1.00000000      1.00000000      1.00000000      1.00000000      1.00000000      1.00000000      1.00000000      1.00000000      1.00000000      1.00000000      1.00000000      1.00000000      1.00000000      1.00000000      1.00000000      1.00000000      1.00000000      1.00000000      1.00000000
      1.00000000      1.00000000      1.00000000      1.00000000      1.00000000      1.00000000      1.00000000</v>
    <i name="NUPDOWN">     -1.00000000</i>
    <i type="logical" name="LSORBIT"> F  </i>
    <v name="SAXIS">      0.00000000      0.00000000      1.00000000</v>
    <i type="logical" name="LSPIRAL"> F  </i>
    <v name="QSPIRAL">      0.00000000      0.00000000      0.00000000</v>
    <i type="logical" name="LZEROZ"> F  </i>
   </separator>
   <separator name="electronic exchange-correlation" >
    <i type="logical" name="LASPH"> F  </i>
    <i type="logical" name="LMETAGGA"> F  </i>
   </separator>
   <separator name="electronic convergence" >
    <i type="int" name="NELM">   400</i>
    <i type="int" name="NELMDL">    -5</i>
    <i type="int" name="NELMIN">     2</i>
    <i name="ENINI">    400.00000000</i>
    <separator name="electronic convergence detail" >
     <i type="logical" name="LDIAG"> T  </i>
     <i type="logical" name="LSUBROT"> F  </i>
     <i name="WEIMIN">      0.00100000</i>
     <i name="EBREAK">      0.00000000</i>
     <i name="DEPER">      0.30000000</i>
     <i type="int" name="NRMM">     4</i>
     <i name="TIME">      0.40000000</i>
    </separator>
   </separator>
   <separator name="electronic mixer" >
    <i name="AMIX">      0.40000000</i>
    <i name="BMIX">      1.00000000</i>
    <i name="AMIN">      0.10000000</i>
    <i name="AMIX_MAG">      1.60000000</i>
    <i name="BMIX_MAG">      1.00000000</i>
    <separator name="electronic mixer details" >
     <i type="int" name="IMIX">     4</i>
     <i type="logical" name="MIXFIRST"> F  </i>
     <i type="int" name="MAXMIX">   -45</i>
     <i name="WC">    100.00000000</i>
     <i type="int" name="INIMIX">     1</i>
     <i type="int" name="MIXPRE">     1</i>
     <i type="int" name="MREMOVE">     5</i>
    </separator>
   </separator>
   <separator name="electronic dipolcorrection" >
    <i type="logical" name="LDIPOL"> F  </i>
    <i type="logical" name="LMONO"> F  </i>
    <i type="int" name="IDIPOL">     0</i>
    <i name="EPSILON">      1.00000000</i>
    <v name="DIPOL">   -100.00000000   -100.00000000   -100.00000000</v>
    <i name="EFIELD">      0.00000000</i>
   </separator>
  </separator>
  <separator name="grids" >
   <i type="int" name="NGX">    72</i>
   <i type="int" name="NGY">    72</i>
   <i type="int" name="NGZ">    72</i>
   <i type="int" name="NGXF">   144</i>
   <i type="int" name="NGYF">   144</i>
   <i type="int" name="NGZF">   144</i>
   <i type="logical" name="ADDGRID"> F  </i>
  </separator>
  <separator name="ionic" >
   <i type="int" name="NSW">   100</i>
   <i type="int" name="IBRION">     2</i>
   <i type="int" name="ISIF">     2</i>
   <i name="PSTRESS">      0.00000000</i>
   <i name="EDIFFG">     -0.01000000</i>
   <i type="int" name="NFREE">     1</i>
   <i name="POTIM">      0.50000000</i>
   <i name="SMASS">     -3.00000000</i>
   <i name="SCALEE">      1.00000000</i>
  </separator>
  <separator name="ionic md" >
   <i name="TEBEG">      0.00010000</i>
   <i name="TEEND">      0.00010000</i>
   <i type="int" name="NBLOCK">     1</i>
   <i type="int" name="KBLOCK">   100</i>
   <i type="int" name="NPACO">   256</i>
   <i name="APACO">     16.00000000</i>
  </separator>
  <separator name="symmetry" >
   <i type="int" name="ISYM">     0</i>
   <i name="SYMPREC">      0.00001000</i>
  </separator>
  <separator name="dos" >
   <i type="logical" name="LORBIT"> F  </i>
   <v name="RWIGS">     -1.00000000     -1.00000000</v>
   <i type="int" name="NEDOS">   301</i>
   <i name="EMIN">     10.00000000</i>
   <i name="EMAX">    -10.00000000</i>
   <i name="EFERMI">      0.00000000</i>
  </separator>
  <separator name="writing" >
   <i type="int" name="NWRITE">     2</i>
   <i type="logical" name="LWAVE"> F  </i>
   <i type="logical" name="LCHARG"> F  </i>
   <i type="logical" name="LPARD"> F  </i>
   <i type="logical" name="LVTOT"> F  </i>
   <i type="logical" name="LVHAR"> F  </i>
   <i type="logical" name="LELF"> F  </i>
   <i type="logical" name="LOPTICS"> F  </i>
   <v name="STM">      0.00000000      0.00000000      0.00000000      0.00000000      0.00000000      0.00000000      0.00000000</v>
  </separator>
  <separator name="performance" >
   <i type="int" name="NPAR">     3</i>
   <i type="int" name="NSIM">     4</i>
   <i type="int" name="NBLK">    -1</i>
   <i type="logical" name="LPLANE"> T  </i>
   <i type="logical" name="LSCALAPACK"> T  </i>
   <i type="logical" name="LSCAAWARE"> F  </i>
   <i type="logical" name="LSCALU"> F  </i>
   <i type="logical" name="LASYNC"> F  </i>
   <i type="logical" name="LORBITALREAL"> F  </i>
  </separator>
  <separator name="miscellaneous" >
   <i type="int" name="IDIOT">     3</i>
   <i type="logical" name="LMUSIC"> F  </i>
   <v name="POMASS">     55.84700000    127.60000000</v>
   <v name="DARWINR">      0.00000000      0.00000000</v>
   <v name="DARWINV">      1.00000000      1.00000000</v>
   <i type="logical" name="LCORR"> T  </i>
  </separator>
  <i type="logical" name="GGA_COMPAT"> T  </i>
  <i type="logical" name="LBERRY"> F  </i>
  <i type="int" name="ICORELEVEL">     0</i>
  <i type="logical" name="LDAU"> F  </i>
  <i type="int" name="I_CONSTRAINED_M">     0</i>
  <separator name="electronic exchange-correlation" >
   <i type="string" name="GGA">--</i>
   <i type="int" name="VOSKOWN">     0</i>
   <i type="logical" name="LHFCALC"> F  </i>
   <i type="string" name="PRECFOCK"></i>
   <i type="logical" name="LSYMGRAD"> F  </i>
   <i type="logical" name="LHFONE"> F  </i>
   <i type="logical" name="LRHFCALC"> F  </i>
   <i type="logical" name="LTHOMAS"> F  </i>
   <i type="logical" name="LMODELHF"> F  </i>
   <i name="ENCUT4O">     -1.00000000</i>
   <i type="int" name="EXXOEP">     0</i>
   <i type="int" name="FOURORBIT">     0</i>
   <i name="AEXX">      0.00000000</i>
   <i name="HFALPHA">      0.00000000</i>
   <i name="MCALPHA">      0.00000000</i>
   <i name="ALDAX">      1.00000000</i>
   <i name="AGGAX">      1.00000000</i>
   <i name="ALDAC">      1.00000000</i>
   <i name="AGGAC">      1.00000000</i>
   <i type="int" name="NKREDX">     1</i>
   <i type="int" name="NKREDY">     1</i>
   <i type="int" name="NKREDZ">     1</i>
   <i type="logical" name="SHIFTRED"> F  </i>
   <i type="logical" name="ODDONLY"> F  </i>
   <i type="logical" name="EVENONLY"> F  </i>
   <i type="int" name="LMAXFOCK">     0</i>
   <i type="int" name="NMAXFOCKAE">     0</i>
   <i type="logical" name="LFOCKAEDFT"> F  </i>
   <i name="HFSCREEN">      0.00000000</i>
   <i name="HFSCREENC">      0.00000000</i>
   <i type="int" name="NBANDSGWLOW">     0</i>
  </separator>
  <separator name="vdW DFT" >
   <i type="logical" name="LUSE_VDW"> F  </i>
   <i name="Zab_VDW">     -0.84910000</i>
   <i name="PARAM1">      0.12340000</i>
   <i name="PARAM2">      1.00000000</i>
   <i name="PARAM3">      0.00000000</i>
  </separator>
  <separator name="model GW" >
   <i type="int" name="MODEL_GW">     0</i>
   <i name="MODEL_EPS0">      6.18984300</i>
   <i name="MODEL_ALPHA">      1.00000000</i>
  </separator>
  <separator name="linear response parameters" >
   <i type="logical" name="LEPSILON"> F  </i>
   <i type="logical" name="LRPA"> F  </i>
   <i type="logical" name="LNABLA"> F  </i>
   <i type="logical" name="LVEL"> F  </i>
   <i type="int" name="KINTER">     0</i>
   <i name="CSHIFT">      0.10000000</i>
   <i name="OMEGAMAX">     -1.00000000</i>
   <i name="DEG_THRESHOLD">      0.00200000</i>
  </separator>
  <separator name="orbital magnetization" >
   <i type="logical" name="NUCIND"> F  </i>
   <v name="MAGPOS">      0.00000000      0.00000000      0.00000000</v>
   <i type="logical" name="LNICSALL"> T  </i>
   <i type="logical" name="ORBITALMAG"> F  </i>
   <i type="logical" name="LMAGBLOCH"> F  </i>
   <i type="logical" name="LCHIMAG"> F  </i>
   <i type="logical" name="LGAUGE"> T  </i>
   <i type="int" name="MAGATOM">     0</i>
   <v name="MAGDIPOL">      0.00000000      0.00000000      0.00000000</v>
   <v name="AVECCONST">      0.00000000      0.00000000      0.00000000</v>
  </separator>
  <separator name="response functions" >
   <i type="logical" name="LADDER"> F  </i>
   <i type="logical" name="LFXC"> F  </i>
   <i type="logical" name="LHARTREE"> T  </i>
   <i type="int" name="IBSE">     0</i>
   <v type="int" name="KPOINT">    -1     0     0     0</v>
   <i type="logical" name="LTCTE"> F  </i>
   <i type="logical" name="LTETE"> F  </i>
   <i type="logical" name="LTRIPLET"> F  </i>
   <i type="logical" name="LFXCEPS"> F  </i>
   <i type="logical" name="LFXHEG"> F  </i>
   <i type="int" name="NATURALO">     0</i>
   <i type="logical" name="L2ORDER"> F  </i>
   <i type="logical" name="LUSEW"> F  </i>
   <i name="ENCUTGW">     -2.00000000</i>
   <i name="ENCUTGWSOFT">     -2.00000000</i>
   <i name="ENCUTLF">     -1.00000000</i>
   <i type="int" name="LMAXMP2">    -1</i>
   <i name="SCISSOR">      0.00000000</i>
   <i type="int" name="NOMEGA">     0</i>
   <i type="int" name="NOMEGAR">     0</i>
   <i type="int" name="NBANDSGW">    -1</i>
   <i type="int" name="NBANDSO">    -1</i>
   <i type="int" name="NBANDSV">    -1</i>
   <i type="int" name="NELM">   400</i>
   <i type="int" name="NELMHF">     1</i>
   <i type="int" name="DIM">     3</i>
   <i type="int" name="ANTIRES">     0</i>
   <i name="OMEGAMAX">    -30.00000000</i>
   <i name="OMEGAMIN">    -30.00000000</i>
   <i name="OMEGATL">   -200.00000000</i>
   <i type="int" name="OMEGAGRID">     0</i>
   <i name="CSHIFT">     -0.10000000</i>
   <i type="logical" name="SELFENERGY"> F  </i>
   <i type="logical" name="LSPECTRAL"> F  </i>
   <i type="logical" name="LSPECTRALGW"> F  </i>
   <i type="logical" name="LSINGLES"> F  </i>
   <i type="logical" name="LFERMIGW"> F  </i>
   <i type="logical" name="ODDONLYGW"> F  </i>
   <i type="logical" name="EVENONLYGW"> F  </i>
   <i type="int" name="NKREDLFX">     1</i>
   <i type="int" name="NKREDLFY">     1</i>
   <i type="int" name="NKREDLFZ">     1</i>
   <i type="int" name="MAXMEM">  1800</i>
   <i type="int" name="TELESCOPE">     0</i>
   <i type="int" name="TAUPAR">     1</i>
   <i type="int" name="OMEGAPAR">    -1</i>
   <i name="LAMBDA">      1.00000000</i>
  </separator>
  <separator name="External order field" >
   <i name="OFIELD_KAPPA">      0.00000000</i>
   <v name="OFIELD_K">      0.00000000      0.00000000      0.00000000</v>
   <i name="OFIELD_Q6_NEAR">      0.00000000</i>
   <i name="OFIELD_Q6_FAR">      0.00000000</i>
   <i name="OFIELD_A">      0.00000000</i>
  </separator>
 </parameters>
 <atominfo>
  <atoms>     107 </atoms>
  <types>       2 </types>
  <array name="atoms" >
   <dimension dim="1">ion</dimension>
   <field type="string">element</field>
   <field type="int">atomtype</field>
   <set>
    <rc><c>Fe</c><c>   1</c></rc>
    <rc><c>Fe</c><c>   1</c></rc>
    <rc><c>Fe</c><c>   1</c></rc>
    <rc><c>Fe</c><c>   1</c></rc>
    <rc><c>Fe</c><c>   1</c></rc>
    <rc><c>Fe</c><c>   1</c></rc>
    <rc><c>Fe</c><c>   1</c></rc>
    <rc><c>Fe</c><c>   1</c></rc>
    <rc><c>Fe</c><c>   1</c></rc>
    <rc><c>Fe</c><c>   1</c></rc>
    <rc><c>Fe</c><c>   1</c></rc>
    <rc><c>Fe</c><c>   1</c></rc>
    <rc><c>Fe</c><c>   1</c></rc>
    <rc><c>Fe</c><c>   1</c></rc>
    <rc><c>Fe</c><c>   1</c></rc>
    <rc><c>Fe</c><c>   1</c></rc>
    <rc><c>Fe</c><c>   1</c></rc>
    <rc><c>Fe</c><c>   1</c></rc>
    <rc><c>Fe</c><c>   1</c></rc>
    <rc><c>Fe</c><c>   1</c></rc>
    <rc><c>Fe</c><c>   1</c></rc>
    <rc><c>Fe</c><c>   1</c></rc>
    <rc><c>Fe</c><c>   1</c></rc>
    <rc><c>Fe</c><c>   1</c></rc>
    <rc><c>Fe</c><c>   1</c></rc>
    <rc><c>Fe</c><c>   1</c></rc>
    <rc><c>Fe</c><c>   1</c></rc>
    <rc><c>Fe</c><c>   1</c></rc>
    <rc><c>Fe</c><c>   1</c></rc>
    <rc><c>Fe</c><c>   1</c></rc>
    <rc><c>Fe</c><c>   1</c></rc>
    <rc><c>Fe</c><c>   1</c></rc>
    <rc><c>Fe</c><c>   1</c></rc>
    <rc><c>Fe</c><c>   1</c></rc>
    <rc><c>Fe</c><c>   1</c></rc>
    <rc><c>Fe</c><c>   1</c></rc>
    <rc><c>Fe</c><c>   1</c></rc>
    <rc><c>Fe</c><c>   1</c></rc>
    <rc><c>Fe</c><c>   1</c></rc>
    <rc><c>Fe</c><c>   1</c></rc>
    <rc><c>Fe</c><c>   1</c></rc>
    <rc><c>Fe</c><c>   1</c></rc>
    <rc><c>Fe</c><c>   1</c></rc>
    <rc><c>Fe</c><c>   1</c></rc>
    <rc><c>Fe</c><c>   1</c></rc>
    <rc><c>Fe</c><c>   1</c></rc>
    <rc><c>Fe</c><c>   1</c></rc>
    <rc><c>Fe</c><c>   1</c></rc>
    <rc><c>Fe</c><c>   1</c></rc>
    <rc><c>Fe</c><c>   1</c></rc>
    <rc><c>Fe</c><c>   1</c></rc>
    <rc><c>Fe</c><c>   1</c></rc>
    <rc><c>Fe</c><c>   1</c></rc>
    <rc><c>Fe</c><c>   1</c></rc>
    <rc><c>Fe</c><c>   1</c></rc>
    <rc><c>Fe</c><c>   1</c></rc>
    <rc><c>Fe</c><c>   1</c></rc>
    <rc><c>Fe</c><c>   1</c></rc>
    <rc><c>Fe</c><c>   1</c></rc>
    <rc><c>Fe</c><c>   1</c></rc>
    <rc><c>Fe</c><c>   1</c></rc>
    <rc><c>Fe</c><c>   1</c></rc>
    <rc><c>Fe</c><c>   1</c></rc>
    <rc><c>Fe</c><c>   1</c></rc>
    <rc><c>Fe</c><c>   1</c></rc>
    <rc><c>Fe</c><c>   1</c></rc>
    <rc><c>Fe</c><c>   1</c></rc>
    <rc><c>Fe</c><c>   1</c></rc>
    <rc><c>Fe</c><c>   1</c></rc>
    <rc><c>Fe</c><c>   1</c></rc>
    <rc><c>Fe</c><c>   1</c></rc>
    <rc><c>Fe</c><c>   1</c></rc>
    <rc><c>Fe</c><c>   1</c></rc>
    <rc><c>Fe</c><c>   1</c></rc>
    <rc><c>Fe</c><c>   1</c></rc>
    <rc><c>Fe</c><c>   1</c></rc>
    <rc><c>Fe</c><c>   1</c></rc>
    <rc><c>Fe</c><c>   1</c></rc>
    <rc><c>Fe</c><c>   1</c></rc>
    <rc><c>Fe</c><c>   1</c></rc>
    <rc><c>Fe</c><c>   1</c></rc>
    <rc><c>Fe</c><c>   1</c></rc>
    <rc><c>Fe</c><c>   1</c></rc>
    <rc><c>Fe</c><c>   1</c></rc>
    <rc><c>Fe</c><c>   1</c></rc>
    <rc><c>Fe</c><c>   1</c></rc>
    <rc><c>Fe</c><c>   1</c></rc>
    <rc><c>Fe</c><c>   1</c></rc>
    <rc><c>Fe</c><c>   1</c></rc>
    <rc><c>Fe</c><c>   1</c></rc>
    <rc><c>Fe</c><c>   1</c></rc>
    <rc><c>Fe</c><c>   1</c></rc>
    <rc><c>Fe</c><c>   1</c></rc>
    <rc><c>Fe</c><c>   1</c></rc>
    <rc><c>Fe</c><c>   1</c></rc>
    <rc><c>Fe</c><c>   1</c></rc>
    <rc><c>Fe</c><c>   1</c></rc>
    <rc><c>Fe</c><c>   1</c></rc>
    <rc><c>Fe</c><c>   1</c></rc>
    <rc><c>Fe</c><c>   1</c></rc>
    <rc><c>Fe</c><c>   1</c></rc>
    <rc><c>Fe</c><c>   1</c></rc>
    <rc><c>Fe</c><c>   1</c></rc>
    <rc><c>Fe</c><c>   1</c></rc>
    <rc><c>Fe</c><c>   1</c></rc>
    <rc><c>Fe</c><c>   1</c></rc>
    <rc><c>Te</c><c>   2</c></rc>
   </set>
  </array>
  <array name="atomtypes" >
   <dimension dim="1">type</dimension>
   <field type="int">atomspertype</field>
   <field type="string">element</field>
   <field>mass</field>
   <field>valence</field>
   <field type="string">pseudopotential</field>
   <set>
    <rc><c> 106</c><c>Fe</c><c>     55.84700000</c><c>      8.00000000</c><c> PAW_PBE Fe 06Sep2000                   </c></rc>
    <rc><c>   1</c><c>Te</c><c>    127.60000000</c><c>      6.00000000</c><c> PAW_PBE Te 08Apr2002                   </c></rc>
   </set>
  </array>
 </atominfo>
 <structure name="initialpos" >
  <crystal>
   <varray name="basis" >
    <v>      10.33484705       0.00000000       0.00000000 </v>
    <v>       0.00000000      10.33484705       0.00000000 </v>
    <v>       0.00000000       0.00000000      10.33484705 </v>
   </varray>
   <i name="volume">   1103.85533447 </i>
   <varray name="rec_basis" >
    <v>       0.09676002       0.00000000       0.00000000 </v>
    <v>       0.00000000       0.09676002       0.00000000 </v>
    <v>       0.00000000       0.00000000       0.09676002 </v>
   </varray>
  </crystal>
  <varray name="positions" >
   <v>       0.00000000       0.00000000       0.00000000 </v>
   <v>       0.00000000       0.16666893       0.16666893 </v>
   <v>       0.00000000       0.33333106       0.00000000 </v>
   <v>       0.00000000       0.50000000       0.16666894 </v>
   <v>       0.00000000       0.66666897       0.00000000 </v>
   <v>       0.00000000       0.83333104       0.16666893 </v>
   <v>       0.00000000       0.00000000       0.33333106 </v>
   <v>       0.00000000       0.16666894       0.50000000 </v>
   <v>       0.00000000       0.33333107       0.33333107 </v>
   <v>       0.00000000       0.50000000       0.50000000 </v>
   <v>       0.00000000       0.66666896       0.33333107 </v>
   <v>       0.00000000       0.83333103       0.50000000 </v>
   <v>       0.00000000       0.00000000       0.66666897 </v>
   <v>       0.00000000       0.16666893       0.83333104 </v>
   <v>       0.00000000       0.33333107       0.66666896 </v>
   <v>       0.00000000       0.50000000       0.83333103 </v>
   <v>       0.00000000       0.66666896       0.66666896 </v>
   <v>       0.00000000       0.83333104       0.83333104 </v>
   <v>       0.16666893       0.00000000       0.16666893 </v>
   <v>       0.16666893       0.16666893       0.00000000 </v>
   <v>       0.16666893       0.83333104       0.00000000 </v>
   <v>       0.16666893       0.33333107       0.50000000 </v>
   <v>       0.16666893       0.50000000       0.33333107 </v>
   <v>       0.16666893       0.66666896       0.50000000 </v>
   <v>       0.16666893       0.00000000       0.83333104 </v>
   <v>       0.16666893       0.50000000       0.66666896 </v>
   <v>       0.16666893       0.33333107       0.16666893 </v>
   <v>       0.16666893       0.66666896       0.16666893 </v>
   <v>       0.16666893       0.16666893       0.33333107 </v>
   <v>       0.16666893       0.83333104       0.33333107 </v>
   <v>       0.16666893       0.16666893       0.66666896 </v>
   <v>       0.16666893       0.33333107       0.83333104 </v>
   <v>       0.16666893       0.66666896       0.83333104 </v>
   <v>       0.16666893       0.83333104       0.66666896 </v>
   <v>       0.16666894       0.50000000       0.00000000 </v>
   <v>       0.16666894       0.00000000       0.50000000 </v>
   <v>       0.33333106       0.00000000       0.00000000 </v>
   <v>       0.33333107       0.16666893       0.16666893 </v>
   <v>       0.33333107       0.83333104       0.16666893 </v>
   <v>       0.33333107       0.33333107       0.33333107 </v>
   <v>       0.33333107       0.66666896       0.33333107 </v>
   <v>       0.33333107       0.16666893       0.83333104 </v>
   <v>       0.33333107       0.33333107       0.66666896 </v>
   <v>       0.33333107       0.66666896       0.66666896 </v>
   <v>       0.33333107       0.83333104       0.83333104 </v>
   <v>       0.33333107       0.33333107       0.00000000 </v>
   <v>       0.33333107       0.50000000       0.16666893 </v>
   <v>       0.33333107       0.66666896       0.00000000 </v>
   <v>       0.33333107       0.00000000       0.33333107 </v>
   <v>       0.33333107       0.16666893       0.50000000 </v>
   <v>       0.33333107       0.83333104       0.50000000 </v>
   <v>       0.33333107       0.00000000       0.66666896 </v>
   <v>       0.33333107       0.50000000       0.83333104 </v>
   <v>       0.50000000       0.00000000       0.16666894 </v>
   <v>       0.50000000       0.16666894       0.00000000 </v>
   <v>       0.50000000       0.33333107       0.16666893 </v>
   <v>       0.50000000       0.50000000       0.00000000 </v>
   <v>       0.50000000       0.66666896       0.16666893 </v>
   <v>       0.50000000       0.83333103       0.00000000 </v>
   <v>       0.50000000       0.00000000       0.50000000 </v>
   <v>       0.50000000       0.16666893       0.33333107 </v>
   <v>       0.50000000       0.33333106       0.50000000 </v>
   <v>       0.50000000       0.50000000       0.33333106 </v>
   <v>       0.50000000       0.66666897       0.50000000 </v>
   <v>       0.50000000       0.83333104       0.33333107 </v>
   <v>       0.50000000       0.00000000       0.83333103 </v>
   <v>       0.50000000       0.16666893       0.66666896 </v>
   <v>       0.50000000       0.33333107       0.83333104 </v>
   <v>       0.50000000       0.66666896       0.83333104 </v>
   <v>       0.50000000       0.83333104       0.66666896 </v>
   <v>       0.66666896       0.33333107       0.00000000 </v>
   <v>       0.66666896       0.50000000       0.16666893 </v>
   <v>       0.66666896       0.66666896       0.00000000 </v>
   <v>       0.66666896       0.00000000       0.33333107 </v>
   <v>       0.66666896       0.16666893       0.50000000 </v>
   <v>       0.66666896       0.83333104       0.50000000 </v>
   <v>       0.66666896       0.00000000       0.66666896 </v>
   <v>       0.66666896       0.50000000       0.83333104 </v>
   <v>       0.66666896       0.16666893       0.16666893 </v>
   <v>       0.66666896       0.83333104       0.16666893 </v>
   <v>       0.66666896       0.33333107       0.33333107 </v>
   <v>       0.66666896       0.66666896       0.33333107 </v>
   <v>       0.66666896       0.16666893       0.83333104 </v>
   <v>       0.66666896       0.33333107       0.66666896 </v>
   <v>       0.66666896       0.66666896       0.66666896 </v>
   <v>       0.66666896       0.83333104       0.83333104 </v>
   <v>       0.66666897       0.00000000       0.00000000 </v>
   <v>       0.50000000       0.50000000       0.66666667 </v>
   <v>       0.83333103       0.50000000       0.00000000 </v>
   <v>       0.83333103       0.00000000       0.50000000 </v>
   <v>       0.83333104       0.33333107       0.16666893 </v>
   <v>       0.83333104       0.66666896       0.16666893 </v>
   <v>       0.83333104       0.16666893       0.33333107 </v>
   <v>       0.83333104       0.83333104       0.33333107 </v>
   <v>       0.83333104       0.16666893       0.66666896 </v>
   <v>       0.83333104       0.33333107       0.83333104 </v>
   <v>       0.83333104       0.66666896       0.83333104 </v>
   <v>       0.83333104       0.83333104       0.66666896 </v>
   <v>       0.83333104       0.00000000       0.16666893 </v>
   <v>       0.83333104       0.16666893       0.00000000 </v>
   <v>       0.83333104       0.83333104       0.00000000 </v>
   <v>       0.83333104       0.33333107       0.50000000 </v>
   <v>       0.83333104       0.50000000       0.33333107 </v>
   <v>       0.83333104       0.66666896       0.50000000 </v>
   <v>       0.83333104       0.00000000       0.83333104 </v>
   <v>       0.83333104       0.50000000       0.66666896 </v>
   <v>       0.33333106       0.50000000       0.50000000 </v>
  </varray>
 </structure>
 <calculation>
  <scstep>
   <time name="dav">  220.18  220.17</time>
   <time name="total">  220.44  220.43</time>
   <energy>
    <i name="alphaZ">   7085.54738553 </i>
    <i name="ewald"> -64824.36268195 </i>
    <i name="hartreedc"> -11388.84618010 </i>
    <i name="XCdc">    411.94400788 </i>
    <i name="pawpsdc">  50869.49801454 </i>
    <i name="pawaedc"> -51640.13888436 </i>
    <i name="eentropy">      0.01423872 </i>
    <i name="bandstr">  13754.14596516 </i>
    <i name="atom">  63236.02203821 </i>
    <i name="e_fr_energy">   7503.82390363 </i>
    <i name="e_wo_entrp">   7503.80966491 </i>
    <i name="e_0_energy">   7503.81915739 </i>
   </energy>
  </scstep>
  <scstep>
   <time name="dav">  226.36  226.35</time>
   <time name="total">  226.39  226.39</time>
   <energy>
    <i name="e_fr_energy">    -13.63172150 </i>
    <i name="e_wo_entrp">    -13.63580484 </i>
    <i name="e_0_energy">    -13.63308261 </i>
   </energy>
  </scstep>
  <scstep>
   <time name="dav">  229.66  229.66</time>
   <time name="total">  229.70  229.69</time>
   <energy>
    <i name="e_fr_energy">   -833.32673961 </i>
    <i name="e_wo_entrp">   -833.34534217 </i>
    <i name="e_0_energy">   -833.33294046 </i>
   </energy>
  </scstep>
  <scstep>
   <time name="dav">  382.62  382.61</time>
   <time name="total">  382.66  382.64</time>
   <energy>
    <i name="e_fr_energy">  -1006.48083812 </i>
    <i name="e_wo_entrp">  -1006.48352000 </i>
    <i name="e_0_energy">  -1006.48173208 </i>
   </energy>
  </scstep>
  <scstep>
   <time name="dav">  350.44  350.43</time>
   <time name="total">  358.87  358.86</time>
   <energy>
    <i name="e_fr_energy">  -1021.22341504 </i>
    <i name="e_wo_entrp">  -1021.20550857 </i>
    <i name="e_0_energy">  -1021.21744621 </i>
   </energy>
  </scstep>
  <scstep>
   <time name="diag">   23.42   23.42</time>
   <time name="diis">  138.73  138.72</time>
   <time name="orth">    5.20    5.20</time>
   <time name="total">  175.98  175.98</time>
   <energy>
    <i name="e_fr_energy">   -878.84155386 </i>
    <i name="e_wo_entrp">   -878.82224481 </i>
    <i name="e_0_energy">   -878.83511751 </i>
   </energy>
  </scstep>
  <scstep>
   <time name="diag">   23.41   23.41</time>
   <time name="diis">  166.18  166.18</time>
   <time name="orth">    5.18    5.18</time>
   <time name="total">  203.42  203.41</time>
   <energy>
    <i name="e_fr_energy">  -1169.41961275 </i>
    <i name="e_wo_entrp">  -1169.47153206 </i>
    <i name="e_0_energy">  -1169.43691919 </i>
   </energy>
  </scstep>
  <scstep>
   <time name="diag">   23.41   23.41</time>
   <time name="diis">  142.04  142.04</time>
   <time name="orth">    5.19    5.19</time>
   <time name="total">  179.24  179.23</time>
   <energy>
    <i name="e_fr_energy">   -889.71010065 </i>
    <i name="e_wo_entrp">   -889.67435769 </i>
    <i name="e_0_energy">   -889.69818633 </i>
   </energy>
  </scstep>
  <scstep>
   <time name="diag">   23.58   23.57</time>
   <time name="diis">  141.93  141.93</time>
   <time name="orth">    5.21    5.21</time>
   <time name="total">  179.33  179.33</time>
   <energy>
    <i name="e_fr_energy">   -861.49769243 </i>
    <i name="e_wo_entrp">   -861.46517002 </i>
    <i name="e_0_energy">   -861.48685163 </i>
   </energy>
  </scstep>
  <scstep>
   <time name="diag">   23.57   23.57</time>
   <time name="diis">  200.29  200.29</time>
   <time name="orth">    5.20    5.20</time>
   <time name="total">  237.68  237.68</time>
   <energy>
    <i name="e_fr_energy">   -863.68838872 </i>
    <i name="e_wo_entrp">   -863.69857822 </i>
    <i name="e_0_energy">   -863.69178522 </i>
   </energy>
  </scstep>
  <scstep>
   <time name="diag">   24.19   24.19</time>
   <time name="diis">  170.56  170.56</time>
   <time name="orth">    5.20    5.20</time>
   <time name="total">  208.57  208.57</time>
   <energy>
    <i name="e_fr_energy">   -863.15508995 </i>
    <i name="e_wo_entrp">   -863.15735469 </i>
    <i name="e_0_energy">   -863.15584486 </i>
   </energy>
  </scstep>
  <scstep>
   <time name="diag">   23.88   23.88</time>
   <time name="diis">  179.58  179.57</time>
   <time name="orth">    5.20    5.20</time>
   <time name="total">  217.29  217.28</time>
   <energy>
    <i name="e_fr_energy">   -862.33064102 </i>
    <i name="e_wo_entrp">   -862.32393218 </i>
    <i name="e_0_energy">   -862.32840474 </i>
   </energy>
  </scstep>
  <scstep>
   <time name="diag">   23.88   23.88</time>
   <time name="diis">  161.01  161.00</time>
   <time name="orth">    5.21    5.20</time>
   <time name="total">  198.71  198.70</time>
   <energy>
    <i name="e_fr_energy">   -862.01758538 </i>
    <i name="e_wo_entrp">   -862.00570139 </i>
    <i name="e_0_energy">   -862.01362405 </i>
   </energy>
  </scstep>
  <scstep>
   <time name="diag">   23.88   23.87</time>
   <time name="diis">  158.21  158.20</time>
   <time name="orth">    5.20    5.20</time>
   <time name="total">  195.89  195.88</time>
   <energy>
    <i name="e_fr_energy">   -861.58658410 </i>
    <i name="e_wo_entrp">   -861.56323352 </i>
    <i name="e_0_energy">   -861.57880058 </i>
   </energy>
  </scstep>
  <scstep>
   <time name="diag">   23.87   23.87</time>
   <time name="diis">  202.46  202.45</time>
   <time name="orth">    5.20    5.20</time>
   <time name="total">  240.12  240.11</time>
   <energy>
    <i name="e_fr_energy">   -861.56661951 </i>
    <i name="e_wo_entrp">   -861.54061423 </i>
    <i name="e_0_energy">   -861.55795108 </i>
   </energy>
  </scstep>
  <scstep>
   <time name="diag">   23.84   23.84</time>
   <time name="diis">  155.37  155.37</time>
   <time name="orth">    5.21    5.21</time>
   <time name="total">  193.03  193.02</time>
   <energy>
    <i name="e_fr_energy">   -861.34122066 </i>
    <i name="e_wo_entrp">   -861.31818282 </i>
    <i name="e_0_energy">   -861.33354138 </i>
   </energy>
  </scstep>
  <scstep>
   <time name="diag">   23.95   23.95</time>
   <time name="diis">  194.37  194.36</time>
   <time name="orth">    5.21    5.21</time>
   <time name="total">  232.16  232.16</time>
   <energy>
    <i name="e_fr_energy">   -861.29411531 </i>
    <i name="e_wo_entrp">   -861.27050199 </i>
    <i name="e_0_energy">   -861.28624420 </i>
   </energy>
  </scstep>
  <scstep>
   <time name="diag">   23.95   23.95</time>
   <time name="diis">  187.14  187.13</time>
   <time name="orth">    5.21    5.21</time>
   <time name="total">  224.92  224.91</time>
   <energy>
    <i name="e_fr_energy">   -861.30619353 </i>
    <i name="e_wo_entrp">   -861.28610955 </i>
    <i name="e_0_energy">   -861.29949887 </i>
   </energy>
  </scstep>
  <scstep>
   <time name="diag">   23.95   23.95</time>
   <time name="diis">  165.71  165.70</time>
   <time name="orth">    5.21    5.21</time>
   <time name="total">  203.48  203.47</time>
   <energy>
    <i name="e_fr_energy">   -861.26417657 </i>
    <i name="e_wo_entrp">   -861.24492813 </i>
    <i name="e_0_energy">   -861.25776042 </i>
   </energy>
  </scstep>
  <scstep>
   <time name="diag">   23.94   23.94</time>
   <time name="diis">  246.77  246.76</time>
   <time name="orth">    5.21    5.21</time>
   <time name="total">  284.54  284.53</time>
   <energy>
    <i name="e_fr_energy">   -861.26764652 </i>
    <i name="e_wo_entrp">   -861.24849785 </i>
    <i name="e_0_energy">   -861.26126363 </i>
   </energy>
  </scstep>
  <scstep>
   <time name="diag">   23.82   23.81</time>
   <time name="diis">  167.88  167.87</time>
   <time name="orth">    5.20    5.20</time>
   <time name="total">  205.51  205.51</time>
   <energy>
    <i name="e_fr_energy">   -861.26751644 </i>
    <i name="e_wo_entrp">   -861.24861685 </i>
    <i name="e_0_energy">   -861.26121657 </i>
   </energy>
  </scstep>
  <scstep>
   <time name="diag">   23.80   23.80</time>
   <time name="diis">  173.57  173.56</time>
   <time name="orth">    5.20    5.20</time>
   <time name="total">  211.17  211.16</time>
   <energy>
    <i name="e_fr_energy">   -861.26594104 </i>
    <i name="e_wo_entrp">   -861.24742743 </i>
    <i name="e_0_energy">   -861.25976984 </i>
   </energy>
  </scstep>
  <scstep>
   <time name="diag">   23.79   23.79</time>
   <time name="diis">  250.29  250.35</time>
   <time name="orth">    5.38    5.38</time>
   <time name="total">  288.06  288.13</time>
   <energy>
    <i name="e_fr_energy">   -861.26479337 </i>
    <i name="e_wo_entrp">   -861.24603610 </i>
    <i name="e_0_energy">   -861.25854095 </i>
   </energy>
  </scstep>
  <scstep>
   <time name="diag">   23.82   23.82</time>
   <time name="diis">  158.58  158.58</time>
   <time name="orth">    5.20    5.20</time>
   <time name="total">  196.20  196.19</time>
   <energy>
    <i name="e_fr_energy">   -861.26149110 </i>
    <i name="e_wo_entrp">   -861.24260581 </i>
    <i name="e_0_energy">   -861.25519600 </i>
   </energy>
  </scstep>
  <scstep>
   <time name="diag">   23.80   23.79</time>
   <time name="diis">  215.00  214.99</time>
   <time name="orth">    5.20    5.20</time>
   <time name="total">  252.57  252.56</time>
   <energy>
    <i name="e_fr_energy">   -861.26138362 </i>
    <i name="e_wo_entrp">   -861.24256978 </i>
    <i name="e_0_energy">   -861.25511234 </i>
   </energy>
  </scstep>
  <scstep>
   <time name="diag">   23.73   23.73</time>
   <time name="diis">  190.15  190.14</time>
   <time name="orth">    5.21    5.21</time>
   <time name="total">  227.66  227.66</time>
   <energy>
    <i name="e_fr_energy">   -861.26118763 </i>
    <i name="e_wo_entrp">   -861.24220400 </i>
    <i name="e_0_energy">   -861.25485976 </i>
   </energy>
  </scstep>
  <scstep>
   <time name="diag">   23.79   23.79</time>
   <time name="diis">  210.38  210.37</time>
   <time name="orth">    5.21    5.21</time>
   <time name="total">  247.96  247.95</time>
   <energy>
    <i name="e_fr_energy">   -861.26113000 </i>
    <i name="e_wo_entrp">   -861.24221506 </i>
    <i name="e_0_energy">   -861.25482502 </i>
   </energy>
  </scstep>
  <scstep>
   <time name="diag">   23.79   23.79</time>
   <time name="diis">  175.25  175.24</time>
   <time name="orth">    5.21    5.21</time>
   <time name="total">  212.84  212.83</time>
   <energy>
    <i name="e_fr_energy">   -861.26110528 </i>
    <i name="e_wo_entrp">   -861.24235671 </i>
    <i name="e_0_energy">   -861.25485576 </i>
   </energy>
  </scstep>
  <scstep>
   <time name="diag">   23.80   23.80</time>
   <time name="diis">  170.05  170.05</time>
   <time name="orth">    5.21    5.21</time>
   <time name="total">  207.65  207.64</time>
   <energy>
    <i name="e_fr_energy">   -861.26107158 </i>
    <i name="e_wo_entrp">   -861.24239247 </i>
    <i name="e_0_energy">   -861.25484521 </i>
   </energy>
  </scstep>
  <scstep>
   <time name="diag">   23.80   23.80</time>
   <time name="diis">  201.85  201.84</time>
   <time name="orth">    5.21    5.21</time>
   <time name="total">  239.44  239.43</time>
   <energy>
    <i name="e_fr_energy">   -861.26106456 </i>
    <i name="e_wo_entrp">   -861.24245216 </i>
    <i name="e_0_energy">   -861.25486043 </i>
   </energy>
  </scstep>
  <scstep>
   <time name="diag">   23.93   23.93</time>
   <time name="diis">  157.44  157.44</time>
   <time name="orth">    5.21    5.21</time>
   <time name="total">  195.20  195.19</time>
   <energy>
    <i name="e_fr_energy">   -861.26104117 </i>
    <i name="e_wo_entrp">   -861.24252780 </i>
    <i name="e_0_energy">   -861.25487005 </i>
   </energy>
  </scstep>
  <scstep>
   <time name="diag">   23.92   23.92</time>
   <time name="diis">  120.82  120.81</time>
   <time name="orth">    5.21    5.21</time>
   <time name="total">  158.57  158.56</time>
   <energy>
    <i name="e_fr_energy">   -861.26103361 </i>
    <i name="e_wo_entrp">   -861.24258570 </i>
    <i name="e_0_energy">   -861.25488430 </i>
   </energy>
  </scstep>
  <scstep>
   <time name="diag">   23.93   23.93</time>
   <time name="diis">  176.77  176.86</time>
   <time name="orth">    5.30    5.30</time>
   <time name="total">  214.61  214.70</time>
   <energy>
    <i name="e_fr_energy">   -861.26102904 </i>
    <i name="e_wo_entrp">   -861.24263870 </i>
    <i name="e_0_energy">   -861.25489893 </i>
   </energy>
  </scstep>
  <scstep>
   <time name="diag">   23.93   23.93</time>
   <time name="diis">  106.27  106.26</time>
   <time name="orth">    5.21    5.21</time>
   <time name="total">  144.02  144.02</time>
   <energy>
    <i name="e_fr_energy">   -861.26102425 </i>
    <i name="e_wo_entrp">   -861.24269384 </i>
    <i name="e_0_energy">   -861.25491411 </i>
   </energy>
  </scstep>
  <scstep>
   <time name="diag">   23.94   23.94</time>
   <time name="diis">   97.22   97.22</time>
   <time name="orth">    5.21    5.21</time>
   <time name="total">  135.01  135.01</time>
   <energy>
    <i name="e_fr_energy">   -861.26102142 </i>
    <i name="e_wo_entrp">   -861.24273188 </i>
    <i name="e_0_energy">   -861.25492491 </i>
   </energy>
  </scstep>
  <scstep>
   <time name="diag">   24.09   24.09</time>
   <time name="diis">   98.16   98.15</time>
   <time name="orth">    5.21    5.21</time>
   <time name="total">  136.06  136.06</time>
   <energy>
    <i name="e_fr_energy">   -861.26101862 </i>
    <i name="e_wo_entrp">   -861.24277095 </i>
    <i name="e_0_energy">   -861.25493606 </i>
   </energy>
  </scstep>
  <scstep>
   <time name="diag">   24.34   24.34</time>
   <time name="diis">   96.88   96.87</time>
   <time name="orth">    5.23    5.23</time>
   <time name="total">  135.03  135.03</time>
   <energy>
    <i name="e_fr_energy">   -861.26101620 </i>
    <i name="e_wo_entrp">   -861.24280408 </i>
    <i name="e_0_energy">   -861.25494550 </i>
   </energy>
  </scstep>
  <scstep>
   <time name="diag">   24.31   24.31</time>
   <time name="diis">   94.36   94.36</time>
   <time name="orth">    5.30    5.30</time>
   <time name="total">  132.61  132.61</time>
   <energy>
    <i name="e_fr_energy">   -861.26101421 </i>
    <i name="e_wo_entrp">   -861.24283240 </i>
    <i name="e_0_energy">   -861.25495361 </i>
   </energy>
  </scstep>
  <scstep>
   <time name="diag">   24.14   24.14</time>
   <time name="diis">   92.41   92.40</time>
   <time name="orth">    5.21    5.21</time>
   <time name="total">  130.37  130.37</time>
   <energy>
    <i name="e_fr_energy">   -861.26101223 </i>
    <i name="e_wo_entrp">   -861.24285960 </i>
    <i name="e_0_energy">   -861.25496136 </i>
   </energy>
  </scstep>
  <scstep>
   <time name="diag">   24.35   24.34</time>
   <time name="diis">   89.31   89.30</time>
   <time name="orth">    5.32    5.32</time>
   <time name="total">  127.58  127.57</time>
   <energy>
    <i name="e_fr_energy">   -861.26101055 </i>
    <i name="e_wo_entrp">   -861.24288331 </i>
    <i name="e_0_energy">   -861.25496814 </i>
   </energy>
  </scstep>
  <scstep>
   <time name="diag">   24.11   24.10</time>
   <time name="diis">   86.63   86.63</time>
   <time name="orth">    5.22    5.22</time>
   <time name="total">  124.58  124.58</time>
   <energy>
    <i name="e_fr_energy">   -861.26100909 </i>
    <i name="e_wo_entrp">   -861.24290396 </i>
    <i name="e_0_energy">   -861.25497404 </i>
   </energy>
  </scstep>
  <scstep>
   <time name="diag">   24.36   24.35</time>
   <time name="diis">   83.29   83.29</time>
   <time name="orth">    5.21    5.21</time>
   <time name="total">  121.49  121.48</time>
   <energy>
    <i name="e_fr_energy">   -861.26100766 </i>
    <i name="e_wo_entrp">   -861.24292341 </i>
    <i name="e_0_energy">   -861.25497957 </i>
   </energy>
  </scstep>
  <scstep>
   <time name="diag">   24.30   24.30</time>
   <time name="diis">   82.88   82.88</time>
   <time name="orth">    5.25    5.25</time>
   <time name="total">  121.11  121.11</time>
   <energy>
    <i name="e_fr_energy">   -861.26100636 </i>
    <i name="e_wo_entrp">   -861.24294112 </i>
    <i name="e_0_energy">   -861.25498461 </i>
   </energy>
  </scstep>
  <scstep>
   <time name="diag">   24.05   24.05</time>
   <time name="diis">   80.36   80.36</time>
   <time name="orth">    5.28    5.28</time>
   <time name="total">  118.34  118.33</time>
   <energy>
    <i name="e_fr_energy">   -861.26100517 </i>
    <i name="e_wo_entrp">   -861.24295739 </i>
    <i name="e_0_energy">   -861.25498924 </i>
   </energy>
  </scstep>
  <scstep>
   <time name="diag">   24.23   24.23</time>
   <time name="diis">   79.55   79.54</time>
   <time name="orth">    5.23    5.23</time>
   <time name="total">  117.65  117.64</time>
   <energy>
    <i name="e_fr_energy">   -861.26100408 </i>
    <i name="e_wo_entrp">   -861.24297206 </i>
    <i name="e_0_energy">   -861.25499341 </i>
   </energy>
  </scstep>
  <scstep>
   <time name="diag">   24.29   24.29</time>
   <time name="diis">   77.72   77.71</time>
   <time name="orth">    5.23    5.23</time>
   <time name="total">  107.50  107.49</time>
   <energy>
    <i name="alphaZ">   7085.54738553 </i>
    <i name="ewald"> -64824.36268195 </i>
    <i name="hartreedc">  -9604.91270759 </i>
    <i name="XCdc">    328.89675036 </i>
    <i name="pawpsdc">  57141.20358433 </i>
    <i name="pawaedc"> -58021.64019944 </i>
    <i name="eentropy">     -0.01801749 </i>
    <i name="bandstr">   3798.00284495 </i>
    <i name="atom">  63236.02203821 </i>
    <i name="e_fr_energy">   -861.26100309 </i>
    <i name="e_wo_entrp">   -861.24298559 </i>
    <i name="e_0_energy">   -861.25499726 </i>
   </energy>
  </scstep>
  <structure>
   <crystal>
    <varray name="basis" >
     <v>      10.33484705       0.00000000       0.00000000 </v>
     <v>       0.00000000      10.33484705       0.00000000 </v>
     <v>       0.00000000       0.00000000      10.33484705 </v>
    </varray>
    <i name="volume">   1103.85533447 </i>
    <varray name="rec_basis" >
     <v>       0.09676002       0.00000000       0.00000000 </v>
     <v>       0.00000000       0.09676002       0.00000000 </v>
     <v>       0.00000000       0.00000000       0.09676002 </v>
    </varray>
   </crystal>
   <varray name="positions" >
    <v>       0.00000000       0.00000000       0.00000000 </v>
    <v>       0.00000000       0.16666893       0.16666893 </v>
    <v>       0.00000000       0.33333106       0.00000000 </v>
    <v>       0.00000000       0.50000000       0.16666894 </v>
    <v>       0.00000000       0.66666897       0.00000000 </v>
    <v>       0.00000000       0.83333104       0.16666893 </v>
    <v>       0.00000000       0.00000000       0.33333106 </v>
    <v>       0.00000000       0.16666894       0.50000000 </v>
    <v>       0.00000000       0.33333107       0.33333107 </v>
    <v>       0.00000000       0.50000000       0.50000000 </v>
    <v>       0.00000000       0.66666896       0.33333107 </v>
    <v>       0.00000000       0.83333103       0.50000000 </v>
    <v>       0.00000000       0.00000000       0.66666897 </v>
    <v>       0.00000000       0.16666893       0.83333104 </v>
    <v>       0.00000000       0.33333107       0.66666896 </v>
    <v>       0.00000000       0.50000000       0.83333103 </v>
    <v>       0.00000000       0.66666896       0.66666896 </v>
    <v>       0.00000000       0.83333104       0.83333104 </v>
    <v>       0.16666893       0.00000000       0.16666893 </v>
    <v>       0.16666893       0.16666893       0.00000000 </v>
    <v>       0.16666893       0.83333104       0.00000000 </v>
    <v>       0.16666893       0.33333107       0.50000000 </v>
    <v>       0.16666893       0.50000000       0.33333107 </v>
    <v>       0.16666893       0.66666896       0.50000000 </v>
    <v>       0.16666893       0.00000000       0.83333104 </v>
    <v>       0.16666893       0.50000000       0.66666896 </v>
    <v>       0.16666893       0.33333107       0.16666893 </v>
    <v>       0.16666893       0.66666896       0.16666893 </v>
    <v>       0.16666893       0.16666893       0.33333107 </v>
    <v>       0.16666893       0.83333104       0.33333107 </v>
    <v>       0.16666893       0.16666893       0.66666896 </v>
    <v>       0.16666893       0.33333107       0.83333104 </v>
    <v>       0.16666893       0.66666896       0.83333104 </v>
    <v>       0.16666893       0.83333104       0.66666896 </v>
    <v>       0.16666894       0.50000000       0.00000000 </v>
    <v>       0.16666894       0.00000000       0.50000000 </v>
    <v>       0.33333106       0.00000000       0.00000000 </v>
    <v>       0.33333107       0.16666893       0.16666893 </v>
    <v>       0.33333107       0.83333104       0.16666893 </v>
    <v>       0.33333107       0.33333107       0.33333107 </v>
    <v>       0.33333107       0.66666896       0.33333107 </v>
    <v>       0.33333107       0.16666893       0.83333104 </v>
    <v>       0.33333107       0.33333107       0.66666896 </v>
    <v>       0.33333107       0.66666896       0.66666896 </v>
    <v>       0.33333107       0.83333104       0.83333104 </v>
    <v>       0.33333107       0.33333107       0.00000000 </v>
    <v>       0.33333107       0.50000000       0.16666893 </v>
    <v>       0.33333107       0.66666896       0.00000000 </v>
    <v>       0.33333107       0.00000000       0.33333107 </v>
    <v>       0.33333107       0.16666893       0.50000000 </v>
    <v>       0.33333107       0.83333104       0.50000000 </v>
    <v>       0.33333107       0.00000000       0.66666896 </v>
    <v>       0.33333107       0.50000000       0.83333104 </v>
    <v>       0.50000000       0.00000000       0.16666894 </v>
    <v>       0.50000000       0.16666894       0.00000000 </v>
    <v>       0.50000000       0.33333107       0.16666893 </v>
    <v>       0.50000000       0.50000000       0.00000000 </v>
    <v>       0.50000000       0.66666896       0.16666893 </v>
    <v>       0.50000000       0.83333103       0.00000000 </v>
    <v>       0.50000000       0.00000000       0.50000000 </v>
    <v>       0.50000000       0.16666893       0.33333107 </v>
    <v>       0.50000000       0.33333106       0.50000000 </v>
    <v>       0.50000000       0.50000000       0.33333106 </v>
    <v>       0.50000000       0.66666897       0.50000000 </v>
    <v>       0.50000000       0.83333104       0.33333107 </v>
    <v>       0.50000000       0.00000000       0.83333103 </v>
    <v>       0.50000000       0.16666893       0.66666896 </v>
    <v>       0.50000000       0.33333107       0.83333104 </v>
    <v>       0.50000000       0.66666896       0.83333104 </v>
    <v>       0.50000000       0.83333104       0.66666896 </v>
    <v>       0.66666896       0.33333107       0.00000000 </v>
    <v>       0.66666896       0.50000000       0.16666893 </v>
    <v>       0.66666896       0.66666896       0.00000000 </v>
    <v>       0.66666896       0.00000000       0.33333107 </v>
    <v>       0.66666896       0.16666893       0.50000000 </v>
    <v>       0.66666896       0.83333104       0.50000000 </v>
    <v>       0.66666896       0.00000000       0.66666896 </v>
    <v>       0.66666896       0.50000000       0.83333104 </v>
    <v>       0.66666896       0.16666893       0.16666893 </v>
    <v>       0.66666896       0.83333104       0.16666893 </v>
    <v>       0.66666896       0.33333107       0.33333107 </v>
    <v>       0.66666896       0.66666896       0.33333107 </v>
    <v>       0.66666896       0.16666893       0.83333104 </v>
    <v>       0.66666896       0.33333107       0.66666896 </v>
    <v>       0.66666896       0.66666896       0.66666896 </v>
    <v>       0.66666896       0.83333104       0.83333104 </v>
    <v>       0.66666897       0.00000000       0.00000000 </v>
    <v>       0.50000000       0.50000000       0.66666667 </v>
    <v>       0.83333103       0.50000000       0.00000000 </v>
    <v>       0.83333103       0.00000000       0.50000000 </v>
    <v>       0.83333104       0.33333107       0.16666893 </v>
    <v>       0.83333104       0.66666896       0.16666893 </v>
    <v>       0.83333104       0.16666893       0.33333107 </v>
    <v>       0.83333104       0.83333104       0.33333107 </v>
    <v>       0.83333104       0.16666893       0.66666896 </v>
    <v>       0.83333104       0.33333107       0.83333104 </v>
    <v>       0.83333104       0.66666896       0.83333104 </v>
    <v>       0.83333104       0.83333104       0.66666896 </v>
    <v>       0.83333104       0.00000000       0.16666893 </v>
    <v>       0.83333104       0.16666893       0.00000000 </v>
    <v>       0.83333104       0.83333104       0.00000000 </v>
    <v>       0.83333104       0.33333107       0.50000000 </v>
    <v>       0.83333104       0.50000000       0.33333107 </v>
    <v>       0.83333104       0.66666896       0.50000000 </v>
    <v>       0.83333104       0.00000000       0.83333104 </v>
    <v>       0.83333104       0.50000000       0.66666896 </v>
    <v>       0.33333106       0.50000000       0.50000000 </v>
   </varray>
  </structure>
  <varray name="forces" >
   <v>      -0.00172642       0.00000197       0.00000132 </v>
   <v>       0.03232735      -0.01671026      -0.01671266 </v>
   <v>      -0.02177902       0.01604178       0.00000043 </v>
   <v>      -0.03395317      -0.00000268       0.34214201 </v>
   <v>      -0.02178014      -0.01604647       0.00000119 </v>
   <v>       0.03232887       0.01671432      -0.01671403 </v>
   <v>      -0.02177766       0.00000253       0.01604132 </v>
   <v>      -0.03395499       0.34214174      -0.00000048 </v>
   <v>       0.01963504      -0.05594029      -0.05593955 </v>
   <v>      -0.28619568      -0.00000542      -0.00000339 </v>
   <v>       0.01963765       0.05593584      -0.05594280 </v>
   <v>      -0.03395094      -0.34213643      -0.00000129 </v>
   <v>      -0.02177730       0.00000260      -0.01604364 </v>
   <v>       0.03232669      -0.01670994       0.01671373 </v>
   <v>       0.01963777      -0.05594316       0.05593532 </v>
   <v>      -0.03395573      -0.00000297      -0.34213541 </v>
   <v>       0.01963935       0.05593669       0.05593798 </v>
   <v>       0.03232783       0.01671459       0.01671447 </v>
   <v>       0.02382022       0.00000202      -0.06758719 </v>
   <v>       0.02381952      -0.06758694       0.00000060 </v>
   <v>       0.02381930       0.06759119       0.00000314 </v>
   <v>      -1.37710125      -1.40046298       0.00000056 </v>
   <v>      -1.37710480      -0.00000269      -1.40046220 </v>
   <v>      -1.37709700       1.40045863       0.00000185 </v>
   <v>       0.02382106       0.00000286       0.06758868 </v>
   <v>      -1.37709961      -0.00000233       1.40045447 </v>
   <v>      -0.04091479      -0.02571905       0.03181635 </v>
   <v>      -0.04091319       0.02571510       0.03181501 </v>
   <v>      -0.04091374       0.03181665      -0.02571747 </v>
   <v>      -0.04091179      -0.03181317      -0.02571770 </v>
   <v>      -0.04090983       0.03182061       0.02571466 </v>
   <v>      -0.04091205      -0.02571883      -0.03181644 </v>
   <v>      -0.04090929       0.02571461      -0.03181611 </v>
   <v>      -0.04090816      -0.03181582       0.02571586 </v>
   <v>      -0.04303903      -0.00000185      -0.00000780 </v>
   <v>      -0.04304324       0.00000263      -0.00000194 </v>
   <v>      -0.06361194       0.00000132      -0.00000118 </v>
   <v>      -0.02964031       0.14308344       0.14308349 </v>
   <v>      -0.02963989      -0.14307948       0.14308292 </v>
   <v>       0.00993150      -1.42370432      -1.42370166 </v>
   <v>       0.00992914       1.42369866      -1.42370231 </v>
   <v>      -0.02963910       0.14308546      -0.14308351 </v>
   <v>       0.00991752      -1.42372041       1.42370987 </v>
   <v>       0.00991291       1.42371412       1.42370807 </v>
   <v>      -0.02963985      -0.14308086      -0.14308323 </v>
   <v>       0.01099432      -0.01399048      -0.00000544 </v>
   <v>       0.21853811      -0.00000115       0.13618030 </v>
   <v>       0.01099257       0.01398603      -0.00000412 </v>
   <v>       0.01099086       0.00000039      -0.01399140 </v>
   <v>       0.21853427       0.13617523      -0.00000021 </v>
   <v>       0.21853203      -0.13616856      -0.00000099 </v>
   <v>       0.01099137       0.00000210       0.01398687 </v>
   <v>       0.21855758      -0.00000306      -0.13619807 </v>
   <v>      -0.00711422       0.00000156       0.01069490 </v>
   <v>      -0.00711228       0.01070132      -0.00001111 </v>
   <v>       0.02393734      -0.04825614       0.00524228 </v>
   <v>       0.03885251      -0.00000262      -0.00000933 </v>
   <v>       0.02393483       0.04825201       0.00524175 </v>
   <v>      -0.00711358      -0.01069817      -0.00000928 </v>
   <v>       0.03884528       0.00000324      -0.00000091 </v>
   <v>       0.02393445       0.00523549      -0.04826314 </v>
   <v>       1.48765377      -1.45417720      -0.00001493 </v>
   <v>       1.48764688      -0.00000499      -1.45414098 </v>
   <v>       1.48764925       1.45417057      -0.00001454 </v>
   <v>       0.02393159      -0.00522926      -0.04826498 </v>
   <v>      -0.00711534       0.00000125      -0.01068938 </v>
   <v>       0.02393293       0.00524309       0.04825266 </v>
   <v>       0.02393651      -0.04823897      -0.00524640 </v>
   <v>       0.02393387       0.04823480      -0.00524569 </v>
   <v>       0.02393136      -0.00523558       0.04825339 </v>
   <v>      -0.00221802       0.01520810      -0.00000437 </v>
   <v>      -0.20690640      -0.00000291       0.38361230 </v>
   <v>      -0.00221692      -0.01521105      -0.00000260 </v>
   <v>      -0.00221819       0.00000405       0.01520273 </v>
   <v>      -0.20691107       0.38361407      -0.00000161 </v>
   <v>      -0.20691188      -0.38360593      -0.00000198 </v>
   <v>      -0.00221677       0.00000431      -0.01520644 </v>
   <v>      -0.20692501      -0.00000452      -0.38361935 </v>
   <v>      -0.00183040       0.19691282       0.19691002 </v>
   <v>      -0.00183118      -0.19690855       0.19690822 </v>
   <v>      -0.00807712       0.02032675       0.02032576 </v>
   <v>      -0.00807901      -0.02033281       0.02032173 </v>
   <v>      -0.00183097       0.19691331      -0.19690800 </v>
   <v>      -0.00807873       0.02032341      -0.02033465 </v>
   <v>      -0.00808005      -0.02032970      -0.02033092 </v>
   <v>      -0.00183001      -0.19690698      -0.19690443 </v>
   <v>       0.06295272       0.00000385       0.00000008 </v>
   <v>       1.48773969      -0.00000567       1.45439081 </v>
   <v>       0.01465372      -0.00000351      -0.00000798 </v>
   <v>       0.01466644       0.00000414      -0.00000112 </v>
   <v>       0.01910683       0.00656429       0.00401607 </v>
   <v>       0.01910744      -0.00656807       0.00401409 </v>
   <v>       0.01910910       0.00401998       0.00656426 </v>
   <v>       0.01911134      -0.00401177       0.00656107 </v>
   <v>       0.01910845       0.00402174      -0.00656605 </v>
   <v>       0.01910645       0.00656187      -0.00401345 </v>
   <v>       0.01910792      -0.00656813      -0.00401111 </v>
   <v>       0.01910869      -0.00401231      -0.00656446 </v>
   <v>      -0.01580065       0.00000148      -0.05208787 </v>
   <v>      -0.01580058      -0.05208285       0.00000089 </v>
   <v>      -0.01580103       0.05208816       0.00000157 </v>
   <v>      -0.07493213       0.03782392      -0.00000184 </v>
   <v>      -0.07493251      -0.00000515       0.03782292 </v>
   <v>      -0.07493031      -0.03783111      -0.00000239 </v>
   <v>      -0.01580199       0.00000244       0.05208965 </v>
   <v>      -0.07493381      -0.00000522      -0.03782655 </v>
   <v>       0.15638793       0.00000370      -0.00007754 </v>
  </varray>
  <varray name="stress" >
   <v>      16.74704455      -0.00002128       0.00013630 </v>
   <v>      -0.00002119      18.65394794      -0.00000139 </v>
   <v>       0.00013644      -0.00000135      18.65372722 </v>
  </varray>
  <energy>
   <i name="e_fr_energy">   -861.26100309 </i>
   <i name="e_wo_entrp">   -861.25499726 </i>
   <i name="e_0_energy">     -0.01801749 </i>
  </energy>
  <time name="totalsc"> 9445.38 9445.28</time>
 </calculation>
 <calculation>
  <scstep>
   <time name="dav">  262.00  261.99</time>
   <time name="total">  270.60  270.59</time>
   <energy>
    <i name="alphaZ">   7085.54738553 </i>
    <i name="ewald"> -64733.32211156 </i>
    <i name="hartreedc">  -9699.87854503 </i>
    <i name="XCdc">    329.22412359 </i>
    <i name="pawpsdc">  57141.20334382 </i>
    <i name="pawaedc"> -58021.63996728 </i>
    <i name="eentropy">      0.01349104 </i>
    <i name="bandstr">   3800.57337672 </i>
    <i name="atom">  63236.02203821 </i>
    <i name="e_fr_energy">   -862.25686496 </i>
    <i name="e_wo_entrp">   -862.27035600 </i>
    <i name="e_0_energy">   -862.26136197 </i>
   </energy>
  </scstep>
  <scstep>
   <time name="diag">   24.31   24.30</time>
   <time name="diis">  180.89  180.89</time>
   <time name="orth">    5.21    5.21</time>
   <time name="total">  219.03  219.03</time>
   <energy>
    <i name="e_fr_energy">   -912.28069514 </i>
    <i name="e_wo_entrp">   -912.29710545 </i>
    <i name="e_0_energy">   -912.28616525 </i>
   </energy>
  </scstep>
  <scstep>
   <time name="diag">   24.30   24.30</time>
   <time name="diis">  162.90  162.89</time>
   <time name="orth">    5.21    5.21</time>
   <time name="total">  201.05  201.05</time>
   <energy>
    <i name="e_fr_energy">   -865.22309109 </i>
    <i name="e_wo_entrp">   -865.22449432 </i>
    <i name="e_0_energy">   -865.22355884 </i>
   </energy>
  </scstep>
  <scstep>
   <time name="diag">   24.02   24.02</time>
   <time name="diis">  175.94  175.93</time>
   <time name="orth">    5.21    5.21</time>
   <time name="total">  213.80  213.80</time>
   <energy>
    <i name="e_fr_energy">   -863.05264052 </i>
    <i name="e_wo_entrp">   -863.04176234 </i>
    <i name="e_0_energy">   -863.04901446 </i>
   </energy>
  </scstep>
  <scstep>
   <time name="diag">   24.31   24.31</time>
   <time name="diis">  221.84  221.83</time>
   <time name="orth">    5.22    5.22</time>
   <time name="total">  259.97  259.96</time>
   <energy>
    <i name="e_fr_energy">   -862.95391982 </i>
    <i name="e_wo_entrp">   -862.94593646 </i>
    <i name="e_0_energy">   -862.95125870 </i>
   </energy>
  </scstep>
  <scstep>
   <time name="diag">   24.31   24.31</time>
   <time name="diis">  200.37  200.36</time>
   <time name="orth">    5.21    5.21</time>
   <time name="total">  238.53  238.53</time>
   <energy>
    <i name="e_fr_energy">   -862.82186986 </i>
    <i name="e_wo_entrp">   -862.82564608 </i>
    <i name="e_0_energy">   -862.82312860 </i>
   </energy>
  </scstep>
  <scstep>
   <time name="diag">   24.15   24.15</time>
   <time name="diis">  224.38  224.37</time>
   <time name="orth">    5.22    5.21</time>
   <time name="total">  262.38  262.37</time>
   <energy>
    <i name="e_fr_energy">   -862.89393362 </i>
    <i name="e_wo_entrp">   -862.89751612 </i>
    <i name="e_0_energy">   -862.89512778 </i>
   </energy>
  </scstep>
  <scstep>
   <time name="diag">   24.15   24.15</time>
   <time name="diis">  160.79  160.78</time>
   <time name="orth">    5.29    5.29</time>
   <time name="total">  198.84  198.84</time>
   <energy>
    <i name="e_fr_energy">   -862.70708928 </i>
    <i name="e_wo_entrp">   -862.70339817 </i>
    <i name="e_0_energy">   -862.70585891 </i>
   </energy>
  </scstep>
  <scstep>
   <time name="diag">   24.17   24.17</time>
   <time name="diis">  167.74  167.73</time>
   <time name="orth">    5.22    5.21</time>
   <time name="total">  205.75  205.75</time>
   <energy>
    <i name="e_fr_energy">   -862.69444838 </i>
    <i name="e_wo_entrp">   -862.69293905 </i>
    <i name="e_0_energy">   -862.69394527 </i>
   </energy>
  </scstep>
  <scstep>
   <time name="diag">   24.12   24.11</time>
   <time name="diis">  207.41  207.40</time>
   <time name="orth">    5.24    5.24</time>
   <time name="total">  245.38  245.37</time>
   <energy>
    <i name="e_fr_energy">   -862.77363237 </i>
    <i name="e_wo_entrp">   -862.76803549 </i>
    <i name="e_0_energy">   -862.77176674 </i>
   </energy>
  </scstep>
  <scstep>
   <time name="diag">   24.28   24.28</time>
   <time name="diis">  158.79  158.79</time>
   <time name="orth">    5.21    5.21</time>
   <time name="total">  196.89  196.89</time>
   <energy>
    <i name="e_fr_energy">   -862.70531048 </i>
    <i name="e_wo_entrp">   -862.69911770 </i>
    <i name="e_0_energy">   -862.70324622 </i>
   </energy>
  </scstep>
  <scstep>
   <time name="diag">   24.22   24.22</time>
   <time name="diis">  220.44  220.43</time>
   <time name="orth">    5.21    5.21</time>
   <time name="total">  258.50  258.49</time>
   <energy>
    <i name="e_fr_energy">   -862.70073126 </i>
    <i name="e_wo_entrp">   -862.69546999 </i>
    <i name="e_0_energy">   -862.69897751 </i>
   </energy>
  </scstep>
  <scstep>
   <time name="diag">   24.32   24.32</time>
   <time name="diis">  170.18  170.17</time>
   <time name="orth">    5.29    5.28</time>
   <time name="total">  208.41  208.41</time>
   <energy>
    <i name="e_fr_energy">   -862.67377085 </i>
    <i name="e_wo_entrp">   -862.66951177 </i>
    <i name="e_0_energy">   -862.67235116 </i>
   </energy>
  </scstep>
  <scstep>
   <time name="diag">   24.18   24.18</time>
   <time name="diis">  214.48  214.47</time>
   <time name="orth">    5.21    5.21</time>
   <time name="total">  252.52  252.51</time>
   <energy>
    <i name="e_fr_energy">   -862.67087119 </i>
    <i name="e_wo_entrp">   -862.66740052 </i>
    <i name="e_0_energy">   -862.66971430 </i>
   </energy>
  </scstep>
  <scstep>
   <time name="diag">   24.09   24.09</time>
   <time name="diis">  219.83  219.82</time>
   <time name="orth">    5.21    5.21</time>
   <time name="total">  257.74  257.73</time>
   <energy>
    <i name="e_fr_energy">   -862.67028349 </i>
    <i name="e_wo_entrp">   -862.66706195 </i>
    <i name="e_0_energy">   -862.66920965 </i>
   </energy>
  </scstep>
  <scstep>
   <time name="diag">   24.32   24.32</time>
   <time name="diis">  194.69  194.68</time>
   <time name="orth">    5.21    5.21</time>
   <time name="total">  232.87  232.86</time>
   <energy>
    <i name="e_fr_energy">   -862.66966723 </i>
    <i name="e_wo_entrp">   -862.66683579 </i>
    <i name="e_0_energy">   -862.66872341 </i>
   </energy>
  </scstep>
  <scstep>
   <time name="diag">   23.99   23.99</time>
   <time name="diis">  225.16  225.15</time>
   <time name="orth">    5.21    5.21</time>
   <time name="total">  262.99  262.98</time>
   <energy>
    <i name="e_fr_energy">   -862.66988872 </i>
    <i name="e_wo_entrp">   -862.66699340 </i>
    <i name="e_0_energy">   -862.66892361 </i>
   </energy>
  </scstep>
  <scstep>
   <time name="diag">   24.09   24.09</time>
   <time name="diis">  170.95  170.95</time>
   <time name="orth">    5.23    5.23</time>
   <time name="total">  208.90  208.89</time>
   <energy>
    <i name="e_fr_energy">   -862.66966530 </i>
    <i name="e_wo_entrp">   -862.66676468 </i>
    <i name="e_0_energy">   -862.66869842 </i>
   </energy>
  </scstep>
  <scstep>
   <time name="diag">   24.25   24.25</time>
   <time name="diis">  220.09  220.08</time>
   <time name="orth">    5.24    5.24</time>
   <time name="total">  258.20  258.19</time>
   <energy>
    <i name="e_fr_energy">   -862.66963985 </i>
    <i name="e_wo_entrp">   -862.66672623 </i>
    <i name="e_0_energy">   -862.66866864 </i>
   </energy>
  </scstep>
  <scstep>
   <time name="diag">   24.21   24.21</time>
   <time name="diis">  169.99  169.98</time>
   <time name="orth">    5.22    5.22</time>
   <time name="total">  208.04  208.03</time>
   <energy>
    <i name="e_fr_energy">   -862.66952567 </i>
    <i name="e_wo_entrp">   -862.66647951 </i>
    <i name="e_0_energy">   -862.66851028 </i>
   </energy>
  </scstep>
  <scstep>
   <time name="diag">   24.06   24.06</time>
   <time name="diis">  224.66  224.65</time>
   <time name="orth">    5.22    5.22</time>
   <time name="total">  262.58  262.57</time>
   <energy>
    <i name="e_fr_energy">   -862.66951459 </i>
    <i name="e_wo_entrp">   -862.66646728 </i>
    <i name="e_0_energy">   -862.66849882 </i>
   </energy>
  </scstep>
  <scstep>
   <time name="diag">   24.26   24.25</time>
   <time name="diis">  201.13  201.12</time>
   <time name="orth">    5.28    5.28</time>
   <time name="total">  239.31  239.31</time>
   <energy>
    <i name="e_fr_energy">   -862.66951296 </i>
    <i name="e_wo_entrp">   -862.66645048 </i>
    <i name="e_0_energy">   -862.66849213 </i>
   </energy>
  </scstep>
  <scstep>
   <time name="diag">   24.26   24.26</time>
   <time name="diis">  180.54  180.53</time>
   <time name="orth">    5.30    5.30</time>
   <time name="total">  218.74  218.73</time>
   <energy>
    <i name="e_fr_energy">   -862.66950683 </i>
    <i name="e_wo_entrp">   -862.66641003 </i>
    <i name="e_0_energy">   -862.66847456 </i>
   </energy>
  </scstep>
  <scstep>
   <time name="diag">   24.16   24.16</time>
   <time name="diis">  163.77  163.76</time>
   <time name="orth">    5.21    5.21</time>
   <time name="total">  193.41  193.41</time>
   <energy>
    <i name="alphaZ">   7085.54738553 </i>
    <i name="ewald"> -64733.32211156 </i>
    <i name="hartreedc">  -9699.15100424 </i>
    <i name="XCdc">    328.89666729 </i>
    <i name="pawpsdc">  57168.74735261 </i>
    <i name="pawaedc"> -58049.77385347 </i>
    <i name="eentropy">     -0.00308331 </i>
    <i name="bandstr">   3800.36710170 </i>
    <i name="atom">  63236.02203821 </i>
    <i name="e_fr_energy">   -862.66950723 </i>
    <i name="e_wo_entrp">   -862.66642392 </i>
    <i name="e_0_energy">   -862.66847946 </i>
   </energy>
  </scstep>
  <structure>
   <crystal>
    <varray name="basis" >
     <v>      10.33484705       0.00000000       0.00000000 </v>
     <v>       0.00000000      10.33484705       0.00000000 </v>
     <v>       0.00000000       0.00000000      10.33484705 </v>
    </varray>
    <i name="volume">   1103.85533447 </i>
    <varray name="rec_basis" >
     <v>       0.09676002       0.00000000       0.00000000 </v>
     <v>       0.00000000       0.09676002       0.00000000 </v>
     <v>       0.00000000       0.00000000       0.09676002 </v>
    </varray>
   </crystal>
   <varray name="positions" >
    <v>      -0.00000806       0.00000001       0.00000001 </v>
    <v>       0.00015090       0.16659093       0.16659092 </v>
    <v>      -0.00010166       0.33340594       0.00000000 </v>
    <v>      -0.00015849       0.49999999       0.16826604 </v>
    <v>      -0.00010167       0.66659406       0.00000001 </v>
    <v>       0.00015091       0.83340906       0.16659091 </v>
    <v>      -0.00010166       0.00000001       0.33340594 </v>
    <v>      -0.00015850       0.16826604       0.50000000 </v>
    <v>       0.00009166       0.33306994       0.33306994 </v>
    <v>      -0.00133595       0.49999997       0.49999998 </v>
    <v>       0.00009167       0.66693007       0.33306993 </v>
    <v>      -0.00015848       0.83173395       0.49999999 </v>
    <v>      -0.00010166       0.00000001       0.66659408 </v>
    <v>       0.00015090       0.16659093       0.83340906 </v>
    <v>       0.00009167       0.33306993       0.66693007 </v>
    <v>      -0.00015850       0.49999999       0.83173396 </v>
    <v>       0.00009168       0.66693007       0.66693008 </v>
    <v>       0.00015091       0.83340906       0.83340906 </v>
    <v>       0.16678012       0.00000001       0.16635344 </v>
    <v>       0.16678012       0.16635344       0.00000000 </v>
    <v>       0.16678012       0.83364655       0.00000001 </v>
    <v>       0.16024068       0.32679376       0.50000000 </v>
    <v>       0.16024066       0.49999999       0.32679377 </v>
    <v>       0.16024070       0.67320625       0.50000001 </v>
    <v>       0.16678013       0.00000001       0.83364654 </v>
    <v>       0.16024069       0.49999999       0.67320623 </v>
    <v>       0.16647795       0.33321101       0.16681745 </v>
    <v>       0.16647795       0.66678900       0.16681745 </v>
    <v>       0.16647795       0.16681745       0.33321102 </v>
    <v>       0.16647796       0.83318253       0.33321102 </v>
    <v>       0.16647797       0.16681747       0.66678900 </v>
    <v>       0.16647796       0.33321101       0.83318252 </v>
    <v>       0.16647797       0.66678900       0.83318252 </v>
    <v>       0.16647798       0.83318252       0.66678900 </v>
    <v>       0.16646803       0.49999999      -0.00000004 </v>
    <v>       0.16646801       0.00000001       0.49999999 </v>
    <v>       0.33303412       0.00000001      -0.00000001 </v>
    <v>       0.33319271       0.16733684       0.16733684 </v>
    <v>       0.33319271       0.83266315       0.16733684 </v>
    <v>       0.33337743       0.32668527       0.32668528 </v>
    <v>       0.33337741       0.67331473       0.32668528 </v>
    <v>       0.33319271       0.16733685       0.83266313 </v>
    <v>       0.33337736       0.32668520       0.67331478 </v>
    <v>       0.33337734       0.67331480       0.67331478 </v>
    <v>       0.33319271       0.83266314       0.83266313 </v>
    <v>       0.33338239       0.33326576      -0.00000003 </v>
    <v>       0.33435119       0.49999999       0.16730462 </v>
    <v>       0.33338238       0.66673425      -0.00000002 </v>
    <v>       0.33338237       0.00000000       0.33326576 </v>
    <v>       0.33435118       0.16730459       0.50000000 </v>
    <v>       0.33435117       0.83269541       0.50000000 </v>
    <v>       0.33338237       0.00000001       0.66673425 </v>
    <v>       0.33435129       0.49999999       0.83269527 </v>
    <v>       0.49996679       0.00000001       0.16671886 </v>
    <v>       0.49996680       0.16671889      -0.00000005 </v>
    <v>       0.50011174       0.33310581       0.16669340 </v>
    <v>       0.50018136       0.49999999      -0.00000004 </v>
    <v>       0.50011173       0.66689420       0.16669340 </v>
    <v>       0.49996679       0.83328109      -0.00000004 </v>
    <v>       0.50018133       0.00000002       0.50000000 </v>
    <v>       0.50011173       0.16669337       0.33310578 </v>
    <v>       0.50694431       0.32654302       0.49999993 </v>
    <v>       0.50694428       0.49999998       0.32654319 </v>
    <v>       0.50694429       0.67345698       0.49999993 </v>
    <v>       0.50011171       0.83330663       0.33310577 </v>
    <v>       0.49996679       0.00000001       0.83328114 </v>
    <v>       0.50011172       0.16669341       0.66689420 </v>
    <v>       0.50011173       0.33310589       0.83330655 </v>
    <v>       0.50011172       0.66689412       0.83330655 </v>
    <v>       0.50011171       0.83330660       0.66689421 </v>
    <v>       0.66665861       0.33340206      -0.00000002 </v>
    <v>       0.66570313       0.49999999       0.16845962 </v>
    <v>       0.66665861       0.66659796      -0.00000001 </v>
    <v>       0.66665861       0.00000002       0.33340203 </v>
    <v>       0.66570311       0.16845963       0.49999999 </v>
    <v>       0.66570311       0.83154038       0.49999999 </v>
    <v>       0.66665861       0.00000002       0.66659798 </v>
    <v>       0.66570304       0.49999998       0.83154032 </v>
    <v>       0.66666042       0.16758812       0.16758810 </v>
    <v>       0.66666042       0.83241188       0.16758809 </v>
    <v>       0.66663126       0.33342595       0.33342595 </v>
    <v>       0.66663125       0.66657405       0.33342593 </v>
    <v>       0.66666042       0.16758812       0.83241188 </v>
    <v>       0.66663125       0.33342593       0.66657404 </v>
    <v>       0.66663125       0.66657406       0.66657406 </v>
    <v>       0.66666042       0.83241188       0.83241189 </v>
    <v>       0.66696283       0.00000002       0.00000000 </v>
    <v>       0.50694471       0.49999997       0.67345570 </v>
    <v>       0.83339944       0.49999998      -0.00000004 </v>
    <v>       0.83339950       0.00000002       0.49999999 </v>
    <v>       0.83342023       0.33336171       0.16668768 </v>
    <v>       0.83342023       0.66663830       0.16668767 </v>
    <v>       0.83342024       0.16668770       0.33336171 </v>
    <v>       0.83342025       0.83331231       0.33336169 </v>
    <v>       0.83342023       0.16668771       0.66663831 </v>
    <v>       0.83342023       0.33336170       0.83331230 </v>
    <v>       0.83342023       0.66663830       0.83331231 </v>
    <v>       0.83342024       0.83331231       0.66663832 </v>
    <v>       0.83325728       0.00000001       0.16642579 </v>
    <v>       0.83325728       0.16642581       0.00000000 </v>
    <v>       0.83325728       0.83357418       0.00000001 </v>
    <v>       0.83298126       0.33350763       0.49999999 </v>
    <v>       0.83298126       0.49999998       0.33350762 </v>
    <v>       0.83298127       0.66649237       0.49999999 </v>
    <v>       0.83325727       0.00000001       0.83357419 </v>
    <v>       0.83298125       0.49999998       0.66649239 </v>
    <v>       0.33406107       0.50000002       0.49999964 </v>
   </varray>
  </structure>
  <varray name="forces" >
   <v>       0.00082269      -0.00008710      -0.00000212 </v>
   <v>       0.00176679      -0.02334198      -0.02324201 </v>
   <v>      -0.11143383       0.01321885      -0.00000058 </v>
   <v>      -0.22521777       0.00009275      -0.00614546 </v>
   <v>      -0.11145558      -0.01312131       0.00000041 </v>
[...]
       <r>    -6.1324    -0.0000     2.0000 </r>
       <r>    -6.0699    -0.0000     2.0000 </r>
       <r>    -6.0073    -0.0000     2.0000 </r>
       <r>    -5.9447    -0.0000     2.0000 </r>
       <r>    -5.8821    -0.0000     2.0000 </r>
       <r>    -5.8196    -0.0000     2.0000 </r>
       <r>    -5.7570    -0.0000     2.0000 </r>
       <r>    -5.6944    -0.0000     2.0000 </r>
       <r>    -5.6318     0.0000     2.0000 </r>
       <r>    -5.5692     0.0000     2.0000 </r>
       <r>    -5.5067     0.0000     2.0000 </r>
       <r>    -5.4441     0.0000     2.0000 </r>
       <r>    -5.3815     0.0000     2.0000 </r>
       <r>    -5.3189     0.0000     2.0000 </r>
       <r>    -5.2564     0.0000     2.0000 </r>
       <r>    -5.1938     0.0000     2.0000 </r>
       <r>    -5.1312     0.0000     2.0000 </r>
       <r>    -5.0686     0.0000     2.0000 </r>
       <r>    -5.0060     0.0000     2.0000 </r>
       <r>    -4.9435     0.0000     2.0000 </r>
       <r>    -4.8809     0.0000     2.0000 </r>
       <r>    -4.8183     0.0000     2.0000 </r>
       <r>    -4.7557     0.0000     2.0000 </r>
       <r>    -4.6932     0.0000     2.0000 </r>
       <r>    -4.6306     0.0000     2.0000 </r>
       <r>    -4.5680     0.0000     2.0000 </r>
       <r>    -4.5054     0.0000     2.0000 </r>
       <r>    -4.4428     0.0000     2.0000 </r>
       <r>    -4.3803     0.0000     2.0000 </r>
       <r>    -4.3177     0.0000     2.0000 </r>
       <r>    -4.2551     0.0000     2.0000 </r>
       <r>    -4.1925     0.0000     2.0000 </r>
       <r>    -4.1300     0.0000     2.0000 </r>
       <r>    -4.0674     0.0000     2.0000 </r>
       <r>    -4.0048     0.0000     2.0000 </r>
       <r>    -3.9422     0.0000     2.0000 </r>
       <r>    -3.8796     0.0000     2.0000 </r>
       <r>    -3.8171     0.0000     2.0000 </r>
       <r>    -3.7545     0.0000     2.0000 </r>
       <r>    -3.6919     0.0000     2.0000 </r>
       <r>    -3.6293     0.0000     2.0000 </r>
       <r>    -3.5668     0.0000     2.0000 </r>
       <r>    -3.5042     0.0000     2.0000 </r>
       <r>    -3.4416     0.0000     2.0000 </r>
       <r>    -3.3790     0.0000     2.0000 </r>
       <r>    -3.3164    -0.0000     2.0000 </r>
       <r>    -3.2539    -0.0000     2.0000 </r>
       <r>    -3.1913    -0.0000     2.0000 </r>
       <r>    -3.1287    -0.0000     2.0000 </r>
       <r>    -3.0661    -0.0000     2.0000 </r>
       <r>    -3.0036    -0.0000     2.0000 </r>
       <r>    -2.9410    -0.0000     2.0000 </r>
       <r>    -2.8784    -0.0000     2.0000 </r>
       <r>    -2.8158    -0.0000     2.0000 </r>
       <r>    -2.7532    -0.0000     2.0000 </r>
       <r>    -2.6907    -0.0000     2.0000 </r>
       <r>    -2.6281    -0.0000     2.0000 </r>
       <r>    -2.5655    -0.0000     2.0000 </r>
       <r>    -2.5029    -0.0000     2.0000 </r>
       <r>    -2.4404    -0.0000     2.0000 </r>
       <r>    -2.3778    -0.0000     2.0000 </r>
       <r>    -2.3152    -0.0002     2.0000 </r>
       <r>    -2.2526    -0.0009     1.9999 </r>
       <r>    -2.1900    -0.0040     1.9997 </r>
       <r>    -2.1275    -0.0142     1.9988 </r>
       <r>    -2.0649    -0.0395     1.9963 </r>
       <r>    -2.0023    -0.0839     1.9911 </r>
       <r>    -1.9397    -0.1254     1.9832 </r>
       <r>    -1.8772    -0.0882     1.9777 </r>
       <r>    -1.8146     0.1592     1.9877 </r>
       <r>    -1.7520     0.7461     2.0343 </r>
       <r>    -1.6894     1.6966     2.1405 </r>
       <r>    -1.6268     2.8487     2.3188 </r>
       <r>    -1.5643     3.8838     2.5618 </r>
       <r>    -1.5017     4.4951     2.8431 </r>
       <r>    -1.4391     4.6071     3.1314 </r>
       <r>    -1.3765     4.5062     3.4134 </r>
       <r>    -1.3140     4.7220     3.7089 </r>
       <r>    -1.2514     5.5701     4.0574 </r>
       <r>    -1.1888     6.6923     4.4762 </r>
       <r>    -1.1262     7.3001     4.9331 </r>
       <r>    -1.0637     7.0918     5.3768 </r>
       <r>    -1.0011     6.6963     5.7959 </r>
       <r>    -0.9385     6.9974     6.2338 </r>
       <r>    -0.8759     8.2300     6.7488 </r>
       <r>    -0.8133     9.8825     7.3672 </r>
       <r>    -0.7508    11.2471     8.0710 </r>
       <r>    -0.6882    11.9026     8.8159 </r>
       <r>    -0.6256    11.8145     9.5552 </r>
       <r>    -0.5630    11.2090    10.2566 </r>
       <r>    -0.5005    10.5473    10.9166 </r>
       <r>    -0.4379    10.5443    11.5765 </r>
       <r>    -0.3753    11.6815    12.3075 </r>
       <r>    -0.3127    13.3500    13.1429 </r>
       <r>    -0.2501    13.9579    14.0163 </r>
       <r>    -0.1876    12.5103    14.7992 </r>
       <r>    -0.1250     9.8730    15.4170 </r>
       <r>    -0.0624     7.9823    15.9166 </r>
       <r>     0.0002     8.0306    16.4191 </r>
       <r>     0.0627     9.8232    17.0338 </r>
       <r>     0.1253    12.4900    17.8154 </r>
       <r>     0.1879    15.1319    18.7623 </r>
       <r>     0.2505    16.9461    19.8228 </r>
       <r>     0.3131    17.4233    20.9131 </r>
       <r>     0.3756    16.6164    21.9529 </r>
       <r>     0.4382    15.0243    22.8931 </r>
       <r>     0.5008    13.2708    23.7235 </r>
       <r>     0.5634    11.9342    24.4703 </r>
       <r>     0.6259    11.3830    25.1827 </r>
       <r>     0.6885    11.6120    25.9093 </r>
       <r>     0.7511    12.4054    26.6856 </r>
       <r>     0.8137    13.6418    27.5393 </r>
       <r>     0.8763    15.2414    28.4931 </r>
       <r>     0.9388    16.9808    29.5557 </r>
       <r>     1.0014    18.6522    30.7229 </r>
       <r>     1.0640    20.1751    31.9854 </r>
       <r>     1.1266    21.2700    33.3164 </r>
       <r>     1.1891    21.4319    34.6576 </r>
       <r>     1.2517    20.6011    35.9468 </r>
       <r>     1.3143    19.4656    37.1649 </r>
       <r>     1.3769    18.8377    38.3437 </r>
       <r>     1.4395    19.1723    39.5435 </r>
       <r>     1.5020    20.7977    40.8449 </r>
       <r>     1.5646    23.8629    42.3382 </r>
       <r>     1.6272    27.5531    44.0624 </r>
       <r>     1.6898    30.0041    45.9400 </r>
       <r>     1.7523    30.0065    47.8177 </r>
       <r>     1.8149    28.9149    49.6272 </r>
       <r>     1.8775    30.1941    51.5166 </r>
       <r>     1.9401    36.6969    53.8131 </r>
       <r>     2.0027    48.5123    56.8488 </r>
       <r>     2.0652    63.3514    60.8132 </r>
       <r>     2.1278    78.3331    65.7151 </r>
       <r>     2.1904    90.9610    71.4073 </r>
       <r>     2.2530    99.2373    77.6173 </r>
       <r>     2.3155   102.4084    84.0258 </r>
       <r>     2.3781   101.9475    90.4054 </r>
       <r>     2.4407   100.8074    96.7137 </r>
       <r>     2.5033   101.1919   103.0460 </r>
       <r>     2.5659   103.3576   109.5139 </r>
       <r>     2.6284   106.5592   116.1822 </r>
       <r>     2.6910   110.7116   123.1102 </r>
       <r>     2.7536   116.7506   130.4162 </r>
       <r>     2.8162   125.1049   138.2450 </r>
       <r>     2.8787   134.1797   146.6416 </r>
       <r>     2.9413   141.4252   155.4917 </r>
       <r>     3.0039   146.1512   164.6375 </r>
       <r>     3.0665   150.1784   174.0353 </r>
       <r>     3.1291   155.2260   183.7490 </r>
       <r>     3.1916   160.6628   193.8029 </r>
       <r>     3.2542   164.3761   204.0892 </r>
       <r>     3.3168   164.9541   214.4116 </r>
       <r>     3.3794   162.4223   224.5756 </r>
       <r>     3.4419   157.7742   234.4488 </r>
       <r>     3.5045   152.7581   244.0080 </r>
       <r>     3.5671   149.4728   253.3617 </r>
       <r>     3.6297   148.8473   262.6762 </r>
       <r>     3.6923   149.4574   272.0289 </r>
       <r>     3.7548   148.6584   281.3316 </r>
       <r>     3.8174   145.0694   290.4097 </r>
       <r>     3.8800   139.7809   299.1568 </r>
       <r>     3.9426   135.3297   307.6254 </r>
       <r>     4.0051   133.4519   315.9766 </r>
       <r>     4.0677   133.4560   324.3279 </r>
       <r>     4.1303   132.9196   332.6457 </r>
       <r>     4.1929   130.4644   340.8099 </r>
       <r>     4.2555   127.7571   348.8046 </r>
       <r>     4.3180   128.2038   356.8273 </r>
       <r>     4.3806   133.6529   365.1910 </r>
       <r>     4.4432   143.0546   374.1430 </r>
       <r>     4.5058   154.2450   383.7953 </r>
       <r>     4.5683   165.5247   394.1535 </r>
       <r>     4.6309   174.7906   405.0914 </r>
       <r>     4.6935   178.9865   416.2920 </r>
       <r>     4.7561   176.7088   427.3500 </r>
       <r>     4.8187   171.2748   438.0680 </r>
       <r>     4.8812   169.4989   448.6748 </r>
       <r>     4.9438   176.3321   459.7093 </r>
       <r>     5.0064   190.6052   471.6369 </r>
       <r>     5.0690   206.1633   484.5381 </r>
       <r>     5.1315   217.1665   498.1279 </r>
       <r>     5.1941   222.2923   512.0384 </r>
       <r>     5.2567   224.3102   526.0753 </r>
       <r>     5.3193   226.7646   540.2657 </r>
       <r>     5.3818   231.6602   554.7624 </r>
       <r>     5.4444   239.1552   569.7282 </r>
       <r>     5.5070   247.4741   585.2145 </r>
       <r>     5.5696   252.5637   601.0194 </r>
       <r>     5.6322   249.4873   616.6317 </r>
       <r>     5.6947   236.1257   631.4079 </r>
       <r>     5.7573   215.6969   644.9057 </r>
       <r>     5.8199   194.5711   657.0815 </r>
       <r>     5.8825   177.2504   668.1734 </r>
       <r>     5.9450   164.0517   678.4394 </r>
       <r>     6.0076   153.5665   688.0492 </r>
       <r>     6.0702   145.9976   697.1854 </r>
       <r>     6.1328   143.1075   706.1408 </r>
       <r>     6.1954   145.6761   715.2568 </r>
       <r>     6.2579   152.2830   724.7863 </r>
       <r>     6.3205   160.5487   734.8331 </r>
       <r>     6.3831   168.9110   745.4032 </r>
       <r>     6.4457   177.3614   756.5020 </r>
       <r>     6.5082   186.7182   768.1864 </r>
       <r>     6.5708   196.6646   780.4932 </r>
       <r>     6.6334   204.5528   793.2937 </r>
       <r>     6.6960   207.3546   806.2694 </r>
       <r>     6.7586   205.0189   819.0990 </r>
       <r>     6.8211   200.3953   831.6393 </r>
       <r>     6.8837   195.3561   843.8642 </r>
       <r>     6.9463   188.8755   855.6836 </r>
       <r>     7.0089   180.1423   866.9565 </r>
       <r>     7.0714   171.8392   877.7098 </r>
       <r>     7.1340   168.2397   888.2378 </r>
       <r>     7.1966   170.4791   898.9060 </r>
       <r>     7.2592   175.3524   909.8792 </r>
       <r>     7.3218   179.0426   921.0832 </r>
       <r>     7.3843   181.1043   932.4163 </r>
       <r>     7.4469   184.5863   943.9673 </r>
       <r>     7.5095   192.9622   956.0424 </r>
       <r>     7.5721   206.5440   968.9675 </r>
       <r>     7.6346   219.8241   982.7235 </r>
       <r>     7.6972   221.5066   996.5849 </r>
       <r>     7.7598   200.0138  1009.1013 </r>
       <r>     7.8224   153.1055  1018.6823 </r>
       <r>     7.8850    92.9664  1024.4999 </r>
       <r>     7.9475    39.3569  1026.9628 </r>
       <r>     8.0101     5.9503  1027.3351 </r>
       <r>     8.0727    -6.8589  1026.9059 </r>
       <r>     8.1353    -7.4707  1026.4384 </r>
       <r>     8.1978    -4.3859  1026.1639 </r>
       <r>     8.2604    -1.8403  1026.0488 </r>
       <r>     8.3230    -0.5925  1026.0117 </r>
       <r>     8.3856    -0.1506  1026.0023 </r>
       <r>     8.4482    -0.0307  1026.0004 </r>
       <r>     8.5107    -0.0050  1026.0000 </r>
       <r>     8.5733    -0.0007  1026.0000 </r>
       <r>     8.6359    -0.0001  1026.0000 </r>
       <r>     8.6985    -0.0000  1026.0000 </r>
       <r>     8.7610    -0.0000  1026.0000 </r>
       <r>     8.8236    -0.0000  1026.0000 </r>
       <r>     8.8862    -0.0000  1026.0000 </r>
       <r>     8.9488    -0.0000  1026.0000 </r>
       <r>     9.0114    -0.0000  1026.0000 </r>
       <r>     9.0739    -0.0000  1026.0000 </r>
       <r>     9.1365     0.0000  1026.0000 </r>
       <r>     9.1991     0.0000  1026.0000 </r>
       <r>     9.2617     0.0000  1026.0000 </r>
       <r>     9.3242     0.0000  1026.0000 </r>
       <r>     9.3868     0.0000  1026.0000 </r>
       <r>     9.4494     0.0000  1026.0000 </r>
       <r>     9.5120     0.0000  1026.0000 </r>
       <r>     9.5746     0.0000  1026.0000 </r>
       <r>     9.6371     0.0000  1026.0000 </r>
       <r>     9.6997     0.0000  1026.0000 </r>
       <r>     9.7623     0.0000  1026.0000 </r>
       <r>     9.8249     0.0000  1026.0000 </r>
      </set>
     </set>
    </array>
   </total>
  </dos>
 </calculation>
 <structure name="finalpos" >
  <crystal>
   <varray name="basis" >
    <v>      10.33484705       0.00000000       0.00000000 </v>
    <v>       0.00000000      10.33484705       0.00000000 </v>
    <v>       0.00000000       0.00000000      10.33484705 </v>
   </varray>
   <i name="volume">   1103.85533447 </i>
   <varray name="rec_basis" >
    <v>       0.09676002       0.00000000       0.00000000 </v>
    <v>       0.00000000       0.09676002       0.00000000 </v>
    <v>       0.00000000       0.00000000       0.09676002 </v>
   </varray>
  </crystal>
  <varray name="positions" >
   <v>      -0.00046243       0.00000005      -0.00000026 </v>
   <v>       0.00014300       0.16622893       0.16622885 </v>
   <v>      -0.00135883       0.33330379      -0.00000002 </v>
   <v>      -0.00294641       0.49999996       0.16832298 </v>
   <v>      -0.00135885       0.66669615       0.00000002 </v>
   <v>       0.00014298       0.83377110       0.16622890 </v>
   <v>      -0.00135883       0.00000005       0.33330371 </v>
   <v>      -0.00294643       0.16832310       0.49999989 </v>
   <v>      -0.00035026       0.33250223       0.33250208 </v>
   <v>      -0.00080016       0.49999994       0.49999989 </v>
   <v>      -0.00035025       0.66749768       0.33250215 </v>
   <v>      -0.00294639       0.83167691       0.49999982 </v>
   <v>      -0.00135900       0.00000004       0.66669628 </v>
   <v>       0.00014283       0.16622866       0.83377104 </v>
   <v>      -0.00035025       0.33250218       0.66749759 </v>
   <v>      -0.00294644       0.49999995       0.83167687 </v>
   <v>      -0.00035028       0.66749776       0.66749768 </v>
   <v>       0.00014283       0.83377137       0.83377107 </v>
   <v>       0.16647120       0.00000006       0.16513836 </v>
   <v>       0.16647130       0.16513853      -0.00000006 </v>
   <v>       0.16647133       0.83486153       0.00000008 </v>
   <v>       0.15823536       0.32496091       0.49999980 </v>
   <v>       0.15823533       0.49999992       0.32496078 </v>
   <v>       0.15823536       0.67503908       0.49999988 </v>
   <v>       0.16647119       0.00000005       0.83486147 </v>
   <v>       0.15823546       0.49999994       0.67503900 </v>
   <v>       0.16581699       0.33303697       0.16604502 </v>
   <v>       0.16581699       0.66696296       0.16604506 </v>
   <v>       0.16581696       0.16604510       0.33303680 </v>
   <v>       0.16581696       0.83395495       0.33303687 </v>
   <v>       0.16581687       0.16604506       0.66696290 </v>
   <v>       0.16581680       0.33303681       0.83395490 </v>
   <v>       0.16581679       0.66696312       0.83395494 </v>
   <v>       0.16581689       0.83395500       0.66696293 </v>
   <v>       0.16616755       0.49999994       0.00000004 </v>
   <v>       0.16616742       0.00000007       0.49999998 </v>
   <v>       0.33325369       0.00000005       0.00000009 </v>
   <v>       0.33284383       0.16596030       0.16596027 </v>
   <v>       0.33284385       0.83403973       0.16596036 </v>
   <v>       0.33365093       0.32456938       0.32456930 </v>
   <v>       0.33365092       0.67543059       0.32456941 </v>
   <v>       0.33284398       0.16596034       0.83403966 </v>
   <v>       0.33365097       0.32456956       0.67543045 </v>
   <v>       0.33365098       0.67543041       0.67543052 </v>
   <v>       0.33284398       0.83403969       0.83403971 </v>
   <v>       0.33344545       0.33329170       0.00000010 </v>
   <v>       0.33603461       0.49999993       0.16869519 </v>
   <v>       0.33344547       0.66670823       0.00000014 </v>
   <v>       0.33344553       0.00000008       0.33329164 </v>
   <v>       0.33603461       0.16869522       0.49999996 </v>
   <v>       0.33603459       0.83130487       0.49999991 </v>
   <v>       0.33344555       0.00000007       0.66670818 </v>
   <v>       0.33603466       0.49999993       0.83130501 </v>
   <v>       0.50073638       0.00000005       0.16592662 </v>
   <v>       0.50073646       0.16592648       0.00000011 </v>
   <v>       0.50040280       0.33242895       0.16523212 </v>
   <v>       0.50037237       0.49999994       0.00000015 </v>
   <v>       0.50040280       0.66757096       0.16523221 </v>
   <v>       0.50073646       0.83407356       0.00000020 </v>
   <v>       0.50037212       0.00000007       0.49999977 </v>
   <v>       0.50040275       0.16523217       0.33242886 </v>
   <v>       0.51032382       0.32648716       0.49999993 </v>
   <v>       0.51032388       0.49999991       0.32648713 </v>
   <v>       0.51032379       0.67351280       0.49999994 </v>
   <v>       0.50040277       0.83476790       0.33242892 </v>
   <v>       0.50073629       0.00000004       0.83407365 </v>
   <v>       0.50040270       0.16523218       0.66757091 </v>
   <v>       0.50040256       0.33242910       0.83476793 </v>
   <v>       0.50040259       0.66757081       0.83476802 </v>
   <v>       0.50040267       0.83476789       0.66757098 </v>
   <v>       0.66794855       0.33341037       0.00000011 </v>
   <v>       0.66726722       0.49999996       0.16752180 </v>
   <v>       0.66794857       0.66658958       0.00000014 </v>
   <v>       0.66794849       0.00000004       0.33341030 </v>
   <v>       0.66726721       0.16752177       0.49999991 </v>
   <v>       0.66726722       0.83247827       0.49999991 </v>
   <v>       0.66794841       0.00000003       0.66658933 </v>
   <v>       0.66726716       0.49999995       0.83247833 </v>
   <v>       0.66691328       0.16798272       0.16798277 </v>
   <v>       0.66691327       0.83201730       0.16798269 </v>
   <v>       0.66737272       0.33297857       0.33297849 </v>
   <v>       0.66737273       0.66702139       0.33297850 </v>
   <v>       0.66691315       0.16798300       0.83201734 </v>
   <v>       0.66737271       0.33297858       0.66702142 </v>
   <v>       0.66737273       0.66702136       0.66702145 </v>
   <v>       0.66691315       0.83201701       0.83201726 </v>
   <v>       0.66695775       0.00000003       0.00000036 </v>
   <v>       0.51032369       0.49999994       0.67351282 </v>
   <v>       0.83330583       0.50000001       0.00000008 </v>
   <v>       0.83330583       0.00000004       0.49999997 </v>
   <v>       0.83357387       0.33278696       0.16544442 </v>
   <v>       0.83357386       0.66721295       0.16544447 </v>
   <v>       0.83357387       0.16544448       0.33278686 </v>
   <v>       0.83357386       0.83455558       0.33278699 </v>
   <v>       0.83357382       0.16544444       0.66721287 </v>
   <v>       0.83357389       0.33278702       0.83455557 </v>
   <v>       0.83357387       0.66721292       0.83455564 </v>
   <v>       0.83357383       0.83455560       0.66721295 </v>
   <v>       0.83282786       0.00000004       0.16638646 </v>
   <v>       0.83282781       0.16638652      -0.00000001 </v>
   <v>       0.83282784       0.83361376       0.00000007 </v>
   <v>       0.83095668       0.33449592       0.49999985 </v>
   <v>       0.83095670       0.49999994       0.33449573 </v>
   <v>       0.83095667       0.66550403       0.49999981 </v>
   <v>       0.83282310       0.00000003       0.83361398 </v>
   <v>       0.83095667       0.49999994       0.66550402 </v>
   <v>       0.33428680       0.50000010       0.50000034 </v>
  </varray>
 </structure>
</modeling>
