Opt                                     
           1
    10.334847    0.000000    0.000000
     0.000000   10.334847    0.000000
     0.000000    0.000000   10.334847
   Fe   Te
 106   1
Direct configuration=     1
   0.00000000  0.00000000  0.00000000
   0.00000000  0.16666893  0.16666893
   0.00000000  0.33333106  0.00000000
   0.00000000  0.50000000  0.16666894
   0.00000000  0.66666897  0.00000000
   0.00000000  0.83333104  0.16666893
   0.00000000  0.00000000  0.33333106
   0.00000000  0.16666894  0.50000000
   0.00000000  0.33333107  0.33333107
   0.00000000  0.50000000  0.50000000
   0.00000000  0.66666896  0.33333107
   0.00000000  0.83333103  0.50000000
   0.00000000  0.00000000  0.66666897
   0.00000000  0.16666893  0.83333104
   0.00000000  0.33333107  0.66666896
   0.00000000  0.50000000  0.83333103
   0.00000000  0.66666896  0.66666896
   0.00000000  0.83333104  0.83333104
   0.16666893  0.00000000  0.16666893
   0.16666893  0.16666893  0.00000000
   0.16666893  0.83333104  0.00000000
   0.16666893  0.33333107  0.50000000
   0.16666893  0.50000000  0.33333107
   0.16666893  0.66666896  0.50000000
   0.16666893  0.00000000  0.83333104
   0.16666893  0.50000000  0.66666896
   0.16666893  0.33333107  0.16666893
   0.16666893  0.66666896  0.16666893
   0.16666893  0.16666893  0.33333107
   0.16666893  0.83333104  0.33333107
   0.16666893  0.16666893  0.66666896
   0.16666893  0.33333107  0.83333104
   0.16666893  0.66666896  0.83333104
   0.16666893  0.83333104  0.66666896
   0.16666894  0.50000000  0.00000000
   0.16666894  0.00000000  0.50000000
   0.33333106  0.00000000  0.00000000
   0.33333107  0.16666893  0.16666893
   0.33333107  0.83333104  0.16666893
   0.33333107  0.33333107  0.33333107
   0.33333107  0.66666896  0.33333107
   0.33333107  0.16666893  0.83333104
   0.33333107  0.33333107  0.66666896
   0.33333107  0.66666896  0.66666896
   0.33333107  0.83333104  0.83333104
   0.33333107  0.33333107  0.00000000
   0.33333107  0.50000000  0.16666893
   0.33333107  0.66666896  0.00000000
   0.33333107  0.00000000  0.33333107
   0.33333107  0.16666893  0.50000000
   0.33333107  0.83333104  0.50000000
   0.33333107  0.00000000  0.66666896
   0.33333107  0.50000000  0.83333104
   0.50000000  0.00000000  0.16666894
   0.50000000  0.16666894  0.00000000
   0.50000000  0.33333107  0.16666893
   0.50000000  0.50000000  0.00000000
   0.50000000  0.66666896  0.16666893
   0.50000000  0.83333103  0.00000000
   0.50000000  0.00000000  0.50000000
   0.50000000  0.16666893  0.33333107
   0.50000000  0.33333106  0.50000000
   0.50000000  0.50000000  0.33333106
   0.50000000  0.66666897  0.50000000
   0.50000000  0.83333104  0.33333107
   0.50000000  0.00000000  0.83333103
   0.50000000  0.16666893  0.66666896
   0.50000000  0.33333107  0.83333104
   0.50000000  0.66666896  0.83333104
   0.50000000  0.83333104  0.66666896
   0.66666896  0.33333107  0.00000000
   0.66666896  0.50000000  0.16666893
   0.66666896  0.66666896  0.00000000
   0.66666896  0.00000000  0.33333107
   0.66666896  0.16666893  0.50000000
   0.66666896  0.83333104  0.50000000
   0.66666896  0.00000000  0.66666896
   0.66666896  0.50000000  0.83333104
   0.66666896  0.16666893  0.16666893
   0.66666896  0.83333104  0.16666893
   0.66666896  0.33333107  0.33333107
   0.66666896  0.66666896  0.33333107
   0.66666896  0.16666893  0.83333104
   0.66666896  0.33333107  0.66666896
   0.66666896  0.66666896  0.66666896
   0.66666896  0.83333104  0.83333104
   0.66666897  0.00000000  0.00000000
   0.50000000  0.50000000  0.66666667
   0.83333103  0.50000000  0.00000000
   0.83333103  0.00000000  0.50000000
   0.83333104  0.33333107  0.16666893
   0.83333104  0.66666896  0.16666893
   0.83333104  0.16666893  0.33333107
   0.83333104  0.83333104  0.33333107
   0.83333104  0.16666893  0.66666896
   0.83333104  0.33333107  0.83333104
   0.83333104  0.66666896  0.83333104
   0.83333104  0.83333104  0.66666896
   0.83333104  0.00000000  0.16666893
   0.83333104  0.16666893  0.00000000
   0.83333104  0.83333104  0.00000000
   0.83333104  0.33333107  0.50000000
   0.83333104  0.50000000  0.33333107
   0.83333104  0.66666896  0.50000000
   0.83333104  0.00000000  0.83333104
   0.83333104  0.50000000  0.66666896
   0.33333106  0.50000000  0.50000000
Direct configuration=     2
  -0.00000806  0.00000001  0.00000001
   0.00015090  0.16659093  0.16659092
  -0.00010166  0.33340594  0.00000000
  -0.00015849  0.49999999  0.16826604
  -0.00010167  0.66659406  0.00000001
   0.00015091  0.83340906  0.16659091
  -0.00010166  0.00000001  0.33340594
  -0.00015850  0.16826604  0.50000000
   0.00009166  0.33306994  0.33306994
  -0.00133595  0.49999997  0.49999998
   0.00009167  0.66693007  0.33306993
  -0.00015848  0.83173395  0.49999999
  -0.00010166  0.00000001  0.66659408
   0.00015090  0.16659093  0.83340906
   0.00009167  0.33306993  0.66693007
  -0.00015850  0.49999999  0.83173396
   0.00009168  0.66693007  0.66693008
   0.00015091  0.83340906  0.83340906
   0.16678012  0.00000001  0.16635344
   0.16678012  0.16635344  0.00000000
   0.16678012  0.83364655  0.00000001
   0.16024068  0.32679376  0.50000000
   0.16024066  0.49999999  0.32679377
   0.16024070  0.67320625  0.50000001
   0.16678013  0.00000001  0.83364654
   0.16024069  0.49999999  0.67320623
   0.16647795  0.33321101  0.16681745
   0.16647795  0.66678900  0.16681745
   0.16647795  0.16681745  0.33321102
   0.16647796  0.83318253  0.33321102
   0.16647797  0.16681747  0.66678900
   0.16647796  0.33321101  0.83318252
   0.16647797  0.66678900  0.83318252
   0.16647798  0.83318252  0.66678900
   0.16646803  0.49999999 -0.00000004
   0.16646801  0.00000001  0.49999999
   0.33303412  0.00000001 -0.00000001
   0.33319271  0.16733684  0.16733684
   0.33319271  0.83266315  0.16733684
   0.33337743  0.32668527  0.32668528
   0.33337741  0.67331473  0.32668528
   0.33319271  0.16733685  0.83266313
   0.33337736  0.32668520  0.67331478
   0.33337734  0.67331480  0.67331478
   0.33319271  0.83266314  0.83266313
   0.33338239  0.33326576 -0.00000003
   0.33435119  0.49999999  0.16730462
   0.33338238  0.66673425 -0.00000002
   0.33338237  0.00000000  0.33326576
   0.33435118  0.16730459  0.50000000
   0.33435117  0.83269541  0.50000000
   0.33338237  0.00000001  0.66673425
   0.33435129  0.49999999  0.83269527
   0.49996679  0.00000001  0.16671886
   0.49996680  0.16671889 -0.00000005
   0.50011174  0.33310581  0.16669340
   0.50018136  0.49999999 -0.00000004
   0.50011173  0.66689420  0.16669340
   0.49996679  0.83328109 -0.00000004
   0.50018133  0.00000002  0.50000000
   0.50011173  0.16669337  0.33310578
   0.50694431  0.32654302  0.49999993
   0.50694428  0.49999998  0.32654319
   0.50694429  0.67345698  0.49999993
   0.50011171  0.83330663  0.33310577
   0.49996679  0.00000001  0.83328114
   0.50011172  0.16669341  0.66689420
   0.50011173  0.33310589  0.83330655
   0.50011172  0.66689412  0.83330655
   0.50011171  0.83330660  0.66689421
   0.66665861  0.33340206 -0.00000002
   0.66570313  0.49999999  0.16845962
   0.66665861  0.66659796 -0.00000001
   0.66665861  0.00000002  0.33340203
   0.66570311  0.16845963  0.49999999
   0.66570311  0.83154038  0.49999999
   0.66665861  0.00000002  0.66659798
   0.66570304  0.49999998  0.83154032
   0.66666042  0.16758812  0.16758810
   0.66666042  0.83241188  0.16758809
   0.66663126  0.33342595  0.33342595
   0.66663125  0.66657405  0.33342593
   0.66666042  0.16758812  0.83241188
   0.66663125  0.33342593  0.66657404
   0.66663125  0.66657406  0.66657406
   0.66666042  0.83241188  0.83241189
   0.66696283  0.00000002  0.00000000
   0.50694471  0.49999997  0.67345570
   0.83339944  0.49999998 -0.00000004
   0.83339950  0.00000002  0.49999999
   0.83342023  0.33336171  0.16668768
   0.83342023  0.66663830  0.16668767
   0.83342024  0.16668770  0.33336171
   0.83342025  0.83331231  0.33336169
   0.83342023  0.16668771  0.66663831
   0.83342023  0.33336170  0.83331230
   0.83342023  0.66663830  0.83331231
   0.83342024  0.83331231  0.66663832
   0.83325728  0.00000001  0.16642579
   0.83325728  0.16642581  0.00000000
   0.83325728  0.83357418  0.00000001
   0.83298126  0.33350763  0.49999999
   0.83298126  0.49999998  0.33350762
   0.83298127  0.66649237  0.49999999
   0.83325727  0.00000001  0.83357419
   0.83298125  0.49999998  0.66649239
   0.33406107  0.50000002  0.49999964
Direct configuration=     3
  -0.00000947  0.00000001  0.00000001
   0.00017735  0.16657726  0.16657724
  -0.00011948  0.33341907  0.00000000
  -0.00018627  0.49999999  0.16854599
  -0.00011949  0.66658093  0.00000001
   0.00017736  0.83342274  0.16657724
  -0.00011948  0.00000001  0.33341907
  -0.00018628  0.16854599  0.50000000
   0.00010772  0.33302417  0.33302417
  -0.00157012  0.49999997  0.49999998
   0.00010774  0.66697584  0.33302416
  -0.00018626  0.83145401  0.49999999
  -0.00011947  0.00000001  0.66658095
   0.00017735  0.16657726  0.83342273
   0.00010774  0.33302415  0.66697583
  -0.00018629  0.49999998  0.83145402
   0.00010774  0.66697584  0.66697585
   0.00017736  0.83342274  0.83342274
   0.16679961  0.00000001  0.16629814
   0.16679961  0.16629814  0.00000000
   0.16679961  0.83370186  0.00000002
   0.15911391  0.32564788  0.50000000
   0.15911390  0.49999999  0.32564789
   0.15911394  0.67435212  0.50000001
   0.16679962  0.00000002  0.83370184
   0.15911392  0.49999999  0.67435210
   0.16644447  0.33318997  0.16684348
   0.16644448  0.66681004  0.16684348
   0.16644447  0.16684349  0.33318998
   0.16644448  0.83315650  0.33318997
   0.16644450  0.16684351  0.66681004
   0.16644448  0.33318997  0.83315649
   0.16644450  0.66681004  0.83315649
   0.16644450  0.83315649  0.66681004
   0.16643282  0.49999999 -0.00000004
   0.16643280  0.00000001  0.49999999
   0.33298208  0.00000001 -0.00000001
   0.33316845  0.16745391  0.16745392
   0.33316846  0.83254608  0.16745391
   0.33338555  0.32552038  0.32552039
   0.33338554  0.67447962  0.32552039
   0.33316846  0.16745393  0.83254606
   0.33338548  0.32552029  0.67447968
   0.33338545  0.67447971  0.67447967
   0.33316846  0.83254607  0.83254606
   0.33339138  0.33325431 -0.00000003
   0.33453001  0.49999999  0.16741604
   0.33339137  0.66674569 -0.00000002
   0.33339136  0.00000000  0.33325431
   0.33452998  0.16741601  0.50000000
   0.33452997  0.83258399  0.49999999
   0.33339137  0.00000001  0.66674570
   0.33453011  0.49999998  0.83258383
   0.49996097  0.00000001  0.16672761
   0.49996098  0.16672765 -0.00000006
   0.50013132  0.33306633  0.16669769
   0.50021315  0.49999999 -0.00000005
   0.50013131  0.66693368  0.16669769
   0.49996097  0.83327234 -0.00000005
   0.50021311  0.00000002  0.50000000
   0.50013131  0.16669766  0.33306629
   0.50816153  0.32535319  0.49999992
   0.50816149  0.49999997  0.32535339
   0.50816150  0.67464680  0.49999992
   0.50013129  0.83330235  0.33306628
   0.49996096  0.00000001  0.83327239
   0.50013130  0.16669770  0.66693368
   0.50013132  0.33306642  0.83330226
   0.50013131  0.66693359  0.83330226
   0.50013129  0.83330231  0.66693369
   0.66665679  0.33341450 -0.00000002
   0.66553384  0.49999998  0.16877350
   0.66665680  0.66658551 -0.00000001
   0.66665679  0.00000002  0.33341447
   0.66553381  0.16877351  0.49999999
   0.66553381  0.83122651  0.49999999
   0.66665680  0.00000002  0.66658554
   0.66553374  0.49999998  0.83122644
   0.66665892  0.16774923  0.16774922
   0.66665892  0.83225076  0.16774921
   0.66662465  0.33344258  0.33344258
   0.66662464  0.66655741  0.33344255
   0.66665892  0.16774923  0.83225077
   0.66662464  0.33344256  0.66655740
   0.66662463  0.66655743  0.66655742
   0.66665892  0.83225077  0.83225078
   0.66701434  0.00000002  0.00000000
   0.50816200  0.49999997  0.67464571
   0.83341143  0.49999998 -0.00000004
   0.83341150  0.00000002  0.49999999
   0.83343586  0.33336708  0.16669097
   0.83343586  0.66663293  0.16669096
   0.83343587  0.16669099  0.33336708
   0.83343589  0.83330903  0.33336706
   0.83343587  0.16669100  0.66663294
   0.83343586  0.33336707  0.83330902
   0.83343587  0.66663293  0.83330903
   0.83343587  0.83330902  0.66663295
   0.83324435  0.00000001  0.16638317
   0.83324435  0.16638320  0.00000000
   0.83324435  0.83361680  0.00000001
   0.83291995  0.33353858  0.49999999
   0.83291995  0.49999997  0.33353857
   0.83291996  0.66646141  0.49999999
   0.83324435  0.00000001  0.83361681
   0.83291994  0.49999997  0.66646144
   0.33418903  0.50000002  0.49999957
Direct configuration=     4
   0.00000145 -0.00000043 -0.00000061
   0.00016530  0.16645276  0.16645266
  -0.00073513  0.33347749 -0.00000058
  -0.00151978  0.50000046  0.16822978
  -0.00073517  0.66652300 -0.00000059
   0.00016525  0.83354679  0.16645264
  -0.00073513 -0.00000040  0.33347759
  -0.00151982  0.16822989  0.50000068
  -0.00019229  0.33277017  0.33277027
  -0.00149338  0.50000050  0.50000073
  -0.00019243  0.66723027  0.33277033
  -0.00151993  0.83176968  0.50000064
  -0.00073519 -0.00000042  0.66652312
   0.00016521  0.16645273  0.83354669
  -0.00019250  0.33277024  0.66723032
  -0.00151995  0.50000046  0.83176957
  -0.00019265  0.66723020  0.66723030
   0.00016517  0.83354682  0.83354672
   0.16683593 -0.00000039  0.16565899
   0.16683592  0.16565906 -0.00000056
   0.16683590  0.83434057 -0.00000055
   0.15866822  0.32528887  0.50000061
   0.15866811  0.50000043  0.32528886
   0.15866844  0.67471132  0.50000062
   0.16683592 -0.00000041  0.83434047
   0.15866852  0.50000044  0.67471129
   0.16619630  0.33311552  0.16634767
   0.16619629  0.66688492  0.16634764
   0.16619631  0.16634776  0.33311561
   0.16619627  0.83365184  0.33311561
   0.16619629  0.16634774  0.66688500
   0.16619626  0.33311553  0.83365175
   0.16619625  0.66688493  0.83365178
   0.16619626  0.83365187  0.66688501
   0.16634953  0.50000045 -0.00000062
   0.16634950 -0.00000039  0.50000062
   0.33296946 -0.00000041 -0.00000060
   0.33305667  0.16658070  0.16658061
   0.33305668  0.83341891  0.16658053
   0.33349011  0.32507650  0.32507660
   0.33349022  0.67492370  0.32507687
   0.33305669  0.16658063  0.83341884
   0.33349020  0.32507691  0.67492357
   0.33349028  0.67492333  0.67492339
   0.33305670  0.83341898  0.83341885
   0.33342175  0.33319103 -0.00000056
   0.33504023  0.50000041  0.16783986
   0.33342177  0.66680943 -0.00000055
   0.33342174 -0.00000037  0.33319115
   0.33504024  0.16783990  0.50000062
   0.33504027  0.83215974  0.50000060
   0.33342178 -0.00000037  0.66680951
   0.33504040  0.50000042  0.83215946
   0.50008552 -0.00000039  0.16618276
   0.50008554  0.16618289 -0.00000062
   0.50026374  0.33278057  0.16601136
   0.50036843  0.50000048 -0.00000060
   0.50026379  0.66721986  0.16601142
   0.50008555  0.83381671 -0.00000062
   0.50036841 -0.00000040  0.50000068
   0.50026373  0.16601139  0.33278064
   0.50864792  0.32570676  0.50000068
   0.50864799  0.50000051  0.32570693
   0.50864784  0.67429340  0.50000069
   0.50026383  0.83398806  0.33278070
   0.50008557 -0.00000040  0.83381665
   0.50026384  0.16601150  0.66721994
   0.50026388  0.33278074  0.83398782
   0.50026391  0.66721969  0.83398778
   0.50026392  0.83398796  0.66721989
   0.66725865  0.33354503 -0.00000063
   0.66651450  0.50000054  0.16809090
   0.66725867  0.66645547 -0.00000063
   0.66725864 -0.00000042  0.33354514
   0.66651450  0.16809101  0.50000078
   0.66651457  0.83190833  0.50000074
   0.66725868 -0.00000042  0.66645557
   0.66651450  0.50000053  0.83190806
   0.66675027  0.16802739  0.16802728
   0.66675032  0.83197211  0.16802726
   0.66701759  0.33337007  0.33337022
   0.66701762  0.66663043  0.33337040
   0.66675034  0.16802737  0.83197202
   0.66701763  0.33337029  0.66663042
   0.66701767  0.66663021  0.66663024
   0.66675039  0.83197213  0.83197197
   0.66695580 -0.00000042 -0.00000064
   0.50864818  0.50000050  0.67429269
   0.83336883  0.50000051 -0.00000068
   0.83336886 -0.00000046  0.50000074
   0.83348034  0.33333175  0.16609136
   0.83348029  0.66666873  0.16609144
   0.83348036  0.16609147  0.33333187
   0.83348030  0.83390797  0.33333195
   0.83348027  0.16609156  0.66666881
   0.83348026  0.33333184  0.83390781
   0.83348023  0.66666863  0.83390776
   0.83348022  0.83390789  0.66666873
   0.83309696 -0.00000044  0.16640309
   0.83309694  0.16640320 -0.00000062
   0.83309694  0.83359635 -0.00000062
   0.83253147  0.33361982  0.50000085
   0.83253149  0.50000060  0.33361992
   0.83253131  0.66638068  0.50000082
   0.83309691 -0.00000043  0.83359622
   0.83253128  0.50000058  0.66638077
   0.33466543  0.50000055  0.50000075
Direct configuration=     5
   0.00001023 -0.00000079 -0.00000110
   0.00015562  0.16635270  0.16635254
  -0.00122995  0.33352444 -0.00000104
  -0.00259156  0.50000084  0.16797563
  -0.00123002  0.66647644 -0.00000107
   0.00015551  0.83364650  0.16635251
  -0.00122995 -0.00000073  0.33352462
  -0.00259162  0.16797583  0.50000123
  -0.00043342  0.33256602  0.33256621
  -0.00143171  0.50000092  0.50000133
  -0.00043368  0.66743476  0.33256632
  -0.00259185  0.83202340  0.50000115
  -0.00123007 -0.00000076  0.66647663
   0.00015545  0.16635265  0.83364632
  -0.00043381  0.33256617  0.66743485
  -0.00259186  0.50000085  0.83202319
  -0.00043408  0.66743463  0.66743481
   0.00015537  0.83364654  0.83364637
   0.16686512 -0.00000072  0.16514528
   0.16686511  0.16514540 -0.00000102
   0.16686506  0.83485393 -0.00000100
   0.15830999  0.32500033  0.50000110
   0.15830981  0.50000079  0.32500030
   0.15831039  0.67500001  0.50000112
   0.16686509 -0.00000075  0.83485376
   0.15831054  0.50000080  0.67499999
   0.16599684  0.33305568  0.16594917
   0.16599682  0.66694510  0.16594912
   0.16599684  0.16594932  0.33305584
   0.16599677  0.83404995  0.33305584
   0.16599680  0.16594927  0.66694524
   0.16599675  0.33305570  0.83404981
   0.16599672  0.66694512  0.83404986
   0.16599673  0.83405003  0.66694527
   0.16628259  0.50000082 -0.00000109
   0.16628255 -0.00000071  0.50000112
   0.33295932 -0.00000075 -0.00000108
   0.33296683  0.16587886  0.16587871
   0.33296684  0.83412044  0.16587857
   0.33357415  0.32471974  0.32471992
   0.33357435  0.67528062  0.32472041
   0.33296686  0.16587873  0.83412033
   0.33357436  0.32472055  0.67528034
   0.33357454  0.67527989  0.67528002
   0.33296687  0.83412057  0.83412035
   0.33344616  0.33314017 -0.00000098
   0.33545031  0.50000075  0.16818049
   0.33344620  0.66686065 -0.00000098
   0.33344616 -0.00000067  0.33314039
   0.33545035  0.16818059  0.50000112
   0.33545042  0.83181876  0.50000108
   0.33344622 -0.00000068  0.66686079
   0.33545054  0.50000077  0.83181838
   0.50018563 -0.00000071  0.16574485
   0.50018565  0.16574504 -0.00000108
   0.50037017  0.33255090  0.16545973
   0.50049323  0.50000088 -0.00000104
   0.50037028  0.66744988  0.16545984
   0.50018567  0.83425424 -0.00000107
   0.50049323 -0.00000074  0.50000123
   0.50037017  0.16545982  0.33255106
   0.50903885  0.32599094  0.50000129
   0.50903901  0.50000095  0.32599108
   0.50903872  0.67400936  0.50000131
   0.50037035  0.83453920  0.33255118
   0.50018572 -0.00000072  0.83425409
   0.50037036  0.16545999  0.66745002
   0.50037042  0.33255113  0.83453884
   0.50037050  0.66744965  0.83453876
   0.50037052  0.83453904  0.66744991
   0.66774238  0.33364994 -0.00000112
   0.66730268  0.50000099  0.16754226
   0.66774241  0.66635095 -0.00000112
   0.66774236 -0.00000078  0.33365016
   0.66730271  0.16754246  0.50000141
   0.66730284  0.83245633  0.50000135
   0.66774243 -0.00000078  0.66635112
   0.66730277  0.50000098  0.83245590
   0.66682369  0.16825095  0.16825078
   0.66682378  0.83174816  0.16825074
   0.66733340  0.33331178  0.33331206
   0.66733347  0.66668911  0.33331240
   0.66682382  0.16825092  0.83174798
   0.66733349  0.33331221  0.66668911
   0.66733357  0.66668871  0.66668877
   0.66682390  0.83174818  0.83174788
   0.66690876 -0.00000078 -0.00000116
   0.50903895  0.50000093  0.67400896
   0.83333460  0.50000093 -0.00000119
   0.83333459 -0.00000085  0.50000134
   0.83351608  0.33330335  0.16560943
   0.83351601  0.66669751  0.16560959
   0.83351611  0.16560961  0.33330358
   0.83351599  0.83438935  0.33330373
   0.83351596  0.16560977  0.66669764
   0.83351595  0.33330353  0.83438909
   0.83351589  0.66669732  0.83438898
   0.83351587  0.83438922  0.66669749
   0.83297850 -0.00000080  0.16641910
   0.83297846  0.16641928 -0.00000112
   0.83297846  0.83357991 -0.00000113
   0.83221923  0.33368512  0.50000153
   0.83221928  0.50000110  0.33368531
   0.83221894  0.66631580  0.50000149
   0.83297841 -0.00000078  0.83357966
   0.83221890  0.50000107  0.66631594
   0.33504833  0.50000097  0.50000170
Direct configuration=     6
  -0.00023526 -0.00000038 -0.00000058
   0.00011000  0.16626063  0.16626055
  -0.00134945  0.33333542 -0.00000059
  -0.00275657  0.50000045  0.16807746
  -0.00134944  0.66666509 -0.00000059
   0.00011000  0.83373902  0.16626059
  -0.00134952 -0.00000041  0.33333552
  -0.00275672  0.16807756  0.50000068
  -0.00039490  0.33246634  0.33246642
  -0.00118096  0.50000050  0.50000065
  -0.00039494  0.66753419  0.33246657
  -0.00275675  0.83192206  0.50000058
  -0.00134954 -0.00000041  0.66666521
   0.00010991  0.16626060  0.83373892
  -0.00039507  0.33246643  0.66753425
  -0.00275673  0.50000044  0.83192193
  -0.00039513  0.66753410  0.66753417
   0.00010991  0.83373906  0.83373892
   0.16656794 -0.00000039  0.16510762
   0.16656788  0.16510766 -0.00000056
   0.16656791  0.83489199 -0.00000047
   0.15829481  0.32502926  0.50000051
   0.15829491  0.50000045  0.32502931
   0.15829492  0.67497103  0.50000053
   0.16656789 -0.00000039  0.83489190
   0.15829489  0.50000043  0.67497106
   0.16587825  0.33301744  0.16590066
   0.16587834  0.66698307  0.16590072
   0.16587825  0.16590076  0.33301746
   0.16587825  0.83409883  0.33301749
   0.16587827  0.16590076  0.66698317
   0.16587820  0.33301740  0.83409878
   0.16587826  0.66698312  0.83409877
   0.16587825  0.83409886  0.66698318
   0.16624908  0.50000046 -0.00000059
   0.16624905 -0.00000044  0.50000062
   0.33309138 -0.00000042 -0.00000057
   0.33291934  0.16588247  0.16588244
   0.33291934  0.83411715  0.16588244
   0.33354723  0.32453957  0.32453959
   0.33354726  0.67546075  0.32453972
   0.33291934  0.16588249  0.83411705
   0.33354730  0.32453956  0.67546077
   0.33354731  0.67546077  0.67546075
   0.33291935  0.83411720  0.83411709
   0.33346661  0.33319380 -0.00000054
   0.33566281  0.50000045  0.16839921
   0.33346667  0.66680669 -0.00000049
   0.33346670 -0.00000042  0.33319392
   0.33566296  0.16839916  0.50000062
   0.33566298  0.83160051  0.50000056
   0.33346672 -0.00000039  0.66680673
   0.33566305  0.50000043  0.83160034
   0.50058527 -0.00000040  0.16575764
   0.50058529  0.16575768 -0.00000059
   0.50043729  0.33244465  0.16529845
   0.50048863  0.50000051 -0.00000051
   0.50043728  0.66755591  0.16529852
   0.50058530  0.83424193 -0.00000055
   0.50048870 -0.00000038  0.50000068
   0.50043734  0.16529840  0.33244479
   0.50968118  0.32591301  0.50000060
   0.50968113  0.50000046  0.32591324
   0.50968113  0.67408713  0.50000061
   0.50043742  0.83470109  0.33244484
   0.50058536 -0.00000040  0.83424183
   0.50043745  0.16529852  0.66755592
   0.50043748  0.33244474  0.83470078
   0.50043748  0.66755580  0.83470082
   0.50043750  0.83470101  0.66755592
   0.66785759  0.33343256 -0.00000058
   0.66730208  0.50000052  0.16758127
   0.66785752  0.66656799 -0.00000057
   0.66785756 -0.00000040  0.33343276
   0.66730210  0.16758125  0.50000078
   0.66730216  0.83241828  0.50000071
   0.66785756 -0.00000039  0.66656805
   0.66730215  0.50000050  0.83241795
   0.66690896  0.16820858  0.16820866
   0.66690895  0.83179101  0.16820859
   0.66734116  0.33329573  0.33329601
   0.66734117  0.66670472  0.33329617
   0.66690903  0.16820863  0.83179083
   0.66734122  0.33329594  0.66670461
   0.66734124  0.66670449  0.66670443
   0.66690903  0.83179098  0.83179073
   0.66698032 -0.00000043 -0.00000062
   0.50968137  0.50000044  0.67408687
   0.83326204  0.50000049 -0.00000066
   0.83326195 -0.00000044  0.50000077
   0.83351485  0.33296763  0.16548739
   0.83351481  0.66703292  0.16548748
   0.83351480  0.16548740  0.33296780
   0.83351475  0.83451209  0.33296791
   0.83351474  0.16548751  0.66703297
   0.83351478  0.33296768  0.83451185
   0.83351474  0.66703286  0.83451179
   0.83351472  0.83451200  0.66703294
   0.83288472 -0.00000041  0.16633709
   0.83288475  0.16633713 -0.00000062
   0.83288449  0.83366138 -0.00000084
   0.83182564  0.33389717  0.50000079
   0.83182572  0.50000055  0.33389732
   0.83182559  0.66610323  0.50000075
   0.83288424 -0.00000040  0.83366003
   0.83182557  0.50000053  0.66610323
   0.33421522  0.49999986  0.49999960
Direct configuration=     7
  -0.00031885 -0.00000024 -0.00000040
   0.00009447  0.16622928  0.16622923
  -0.00139015  0.33327105 -0.00000044
  -0.00281277  0.50000031  0.16811213
  -0.00139011  0.66672933 -0.00000043
   0.00009449  0.83377053  0.16622929
  -0.00139023 -0.00000030  0.33327113
  -0.00281294  0.16811221  0.50000049
  -0.00038178  0.33243239  0.33243245
  -0.00109557  0.50000036  0.50000042
  -0.00038175  0.66756805  0.33243260
  -0.00281291  0.83188755  0.50000038
  -0.00139022 -0.00000029  0.66672943
   0.00009441  0.16622926  0.83377045
  -0.00038188  0.33243246  0.66756810
  -0.00281288  0.50000029  0.83188744
  -0.00038186  0.66756797  0.66756801
   0.00009443  0.83377056  0.83377044
   0.16646673 -0.00000028  0.16509479
   0.16646667  0.16509480 -0.00000040
   0.16646671  0.83490495 -0.00000029
   0.15828964  0.32503911  0.50000031
   0.15828983  0.50000033  0.32503919
   0.15828966  0.67496116  0.50000033
   0.16646668 -0.00000027  0.83490488
   0.15828956  0.50000031  0.67496120
   0.16583787  0.33300442  0.16588414
   0.16583799  0.66699599  0.16588423
   0.16583787  0.16588422  0.33300440
   0.16583789  0.83411547  0.33300443
   0.16583791  0.16588424  0.66699609
   0.16583783  0.33300435  0.83411545
   0.16583792  0.66699606  0.83411542
   0.16583791  0.83411549  0.66699609
   0.16623767  0.50000034 -0.00000042
   0.16623764 -0.00000035  0.50000045
   0.33313636 -0.00000030 -0.00000040
   0.33290316  0.16588370  0.16588372
   0.33290316  0.83411603  0.16588376
   0.33353807  0.32447821  0.32447818
   0.33353803  0.67552209  0.32447819
   0.33290315  0.16588377  0.83411593
   0.33353808  0.32447793  0.67552222
   0.33353804  0.67552236  0.67552230
   0.33290317  0.83411605  0.83411598
   0.33347358  0.33321207 -0.00000039
   0.33573517  0.50000035  0.16847370
   0.33347364  0.66678831 -0.00000033
   0.33347369 -0.00000033  0.33321216
   0.33573536  0.16847359  0.50000045
   0.33573537  0.83152619  0.50000038
   0.33347370 -0.00000030  0.66678832
   0.33573542  0.50000032  0.83152609
   0.50072137 -0.00000030  0.16576200
   0.50072138  0.16576198 -0.00000042
   0.50046015  0.33240847  0.16524353
   0.50048706  0.50000039 -0.00000033
   0.50046009  0.66759201  0.16524358
   0.50072139  0.83423774 -0.00000037
   0.50048716 -0.00000026  0.50000049
   0.50046022  0.16524343  0.33240860
   0.50989992  0.32588647  0.50000037
   0.50989979  0.50000030  0.32588673
   0.50989989  0.67411362  0.50000037
   0.50046027  0.83475622  0.33240863
   0.50072146 -0.00000029  0.83423765
   0.50046029  0.16524353  0.66759198
   0.50046032  0.33240852  0.83475593
   0.50046029  0.66759195  0.83475600
   0.50046031  0.83475616  0.66759202
   0.66789683  0.33335854 -0.00000039
   0.66730188  0.50000037  0.16759456
   0.66789672  0.66664190 -0.00000039
   0.66789680 -0.00000027  0.33335873
   0.66730190  0.16759446  0.50000057
   0.66730192  0.83240532  0.50000049
   0.66789676 -0.00000026  0.66664193
   0.66730193  0.50000034  0.83240503
   0.66693800  0.16819416  0.16819432
   0.66693795  0.83180560  0.16819424
   0.66734380  0.33329027  0.33329054
   0.66734379  0.66671003  0.33329064
   0.66693805  0.16819423  0.83180542
   0.66734385  0.33329041  0.66670989
   0.66734385  0.66670987  0.66670976
   0.66693802  0.83180555  0.83180532
   0.66700469 -0.00000031 -0.00000044
   0.50990014  0.50000027  0.67411340
   0.83323733  0.50000034 -0.00000049
   0.83323722 -0.00000030  0.50000057
   0.83351443  0.33285330  0.16544583
   0.83351440  0.66714714  0.16544590
   0.83351435  0.16544578  0.33285346
   0.83351433  0.83455388  0.33285355
   0.83351433  0.16544587  0.66714716
   0.83351438  0.33285331  0.83455366
   0.83351434  0.66714713  0.83455361
   0.83351433  0.83455381  0.66714717
   0.83285279 -0.00000028  0.16630916
   0.83285284  0.16630915 -0.00000045
   0.83285249  0.83368912 -0.00000074
   0.83169161  0.33396938  0.50000054
   0.83169170  0.50000036  0.33396951
   0.83169164  0.66603085  0.50000050
   0.83285217 -0.00000027  0.83368740
   0.83169162  0.50000035  0.66603080
   0.33393151  0.49999948  0.49999888
Direct configuration=     8
  -0.00046427 -0.00000009 -0.00000020
   0.00007362  0.16619295  0.16619291
  -0.00143260  0.33322061 -0.00000015
  -0.00284100  0.50000009  0.16820002
  -0.00143250  0.66677955 -0.00000014
   0.00007364  0.83380705  0.16619293
  -0.00143262 -0.00000004  0.33322062
  -0.00284104  0.16820013  0.50000017
  -0.00034380  0.33242544  0.33242542
  -0.00095888  0.50000011  0.50000014
  -0.00034372  0.66757474  0.33242552
  -0.00284098  0.83179985  0.50000007
  -0.00143248 -0.00000003  0.66677954
   0.00007363  0.16619294  0.83380699
  -0.00034377  0.33242546  0.66757477
  -0.00284099  0.50000007  0.83179980
  -0.00034370  0.66757470  0.66757476
   0.00007368  0.83380709  0.83380702
   0.16636354 -0.00000004  0.16513508
   0.16636357  0.16513516 -0.00000014
   0.16636362  0.83486474 -0.00000001
   0.15820125  0.32491748  0.50000011
   0.15820121  0.50000010  0.32491743
   0.15820147  0.67508240  0.50000017
   0.16636361 -0.00000003  0.83486471
   0.15820150  0.50000011  0.67508236
   0.16580103  0.33300452  0.16593906
   0.16580109  0.66699566  0.16593913
   0.16580103  0.16593915  0.33300448