 107 107   0   0
  0.1031640E+02  0.1033485E-08  0.1033485E-08  0.1033485E-08  0.5000000E-15
  1.000000000000000E-004
  CAR 
 Opt                                     
      9.82323026     -8.94293776  301      6.93752596      1.00000000
     -8.943  0.0000E+00  0.0000E+00
     -8.880  0.0000E+00  0.0000E+00
     -8.818  0.0000E+00  0.0000E+00
     -8.755  0.0000E+00  0.0000E+00
     -8.693  0.0000E+00  0.0000E+00
     -8.630  0.0000E+00  0.0000E+00
     -8.568 -0.1561E-28 -0.9762E-30
     -8.505 -0.2178E-26 -0.1372E-27
     -8.443 -0.2509E-24 -0.1583E-25
     -8.380 -0.2372E-22 -0.1499E-23
     -8.317 -0.1840E-20 -0.1166E-21
     -8.255 -0.1170E-18 -0.7436E-20
     -8.192 -0.6103E-17 -0.3892E-18
     -8.130 -0.2609E-15 -0.1671E-16
     -8.067 -0.8843E-14 -0.5699E-15
     -8.005 -0.2528E-12 -0.1638E-13
     -7.942 -0.5903E-11 -0.3856E-12
     -7.880 -0.1126E-09 -0.7428E-11
     -7.817 -0.1751E-08 -0.1170E-09
     -7.754 -0.2219E-07 -0.1505E-08
     -7.692 -0.2283E-06 -0.1579E-07
     -7.629 -0.1903E-05 -0.1348E-06
     -7.567 -0.1279E-04 -0.9350E-06
     -7.504 -0.6888E-04 -0.5244E-05
     -7.442 -0.2941E-03 -0.2364E-04
     -7.379 -0.9783E-03 -0.8484E-04
     -7.317 -0.2447E-02 -0.2379E-03
     -7.254 -0.4207E-02 -0.5011E-03
     -7.191 -0.3308E-02 -0.7080E-03
     -7.129  0.6048E-02 -0.3297E-03
     -7.066  0.2821E-01  0.1435E-02
     -7.004  0.5827E-01  0.5080E-02
     -6.941  0.8049E-01  0.1011E-01
     -6.879  0.7993E-01  0.1511E-01
     -6.816  0.5699E-01  0.1868E-01
     -6.754  0.2700E-01  0.2037E-01
     -6.691  0.5386E-02  0.2071E-01
     -6.628 -0.3476E-02  0.2049E-01
     -6.566 -0.4152E-02  0.2023E-01
     -6.503 -0.2367E-02  0.2008E-01
     -6.441 -0.9338E-03  0.2002E-01
     -6.378 -0.2776E-03  0.2000E-01
     -6.316 -0.6433E-04  0.2000E-01
     -6.253 -0.1183E-04  0.2000E-01
     -6.191 -0.1744E-05  0.2000E-01
     -6.128 -0.2073E-06  0.2000E-01
     -6.065 -0.1996E-07  0.2000E-01
     -6.003 -0.1561E-08  0.2000E-01
     -5.940 -0.9949E-10  0.2000E-01
     -5.878 -0.5171E-11  0.2000E-01
     -5.815 -0.2195E-12  0.2000E-01
     -5.753 -0.7632E-14  0.2000E-01
     -5.690 -0.2130E-15  0.2000E-01
     -5.628  0.0000E+00  0.2000E-01
     -5.565  0.0000E+00  0.2000E-01
     -5.502  0.0000E+00  0.2000E-01
     -5.440  0.0000E+00  0.2000E-01
     -5.377  0.0000E+00  0.2000E-01
     -5.315  0.0000E+00  0.2000E-01
     -5.252  0.0000E+00  0.2000E-01
     -5.190  0.0000E+00  0.2000E-01
     -5.127  0.0000E+00  0.2000E-01
     -5.065  0.0000E+00  0.2000E-01
     -5.002  0.0000E+00  0.2000E-01
     -4.939  0.0000E+00  0.2000E-01
     -4.877  0.0000E+00  0.2000E-01
     -4.814  0.0000E+00  0.2000E-01
     -4.752  0.0000E+00  0.2000E-01
     -4.689  0.0000E+00  0.2000E-01
     -4.627  0.0000E+00  0.2000E-01
     -4.564  0.0000E+00  0.2000E-01
     -4.502  0.0000E+00  0.2000E-01
     -4.439  0.0000E+00  0.2000E-01
     -4.377  0.0000E+00  0.2000E-01
     -4.314  0.0000E+00  0.2000E-01
     -4.251  0.0000E+00  0.2000E-01
     -4.189  0.0000E+00  0.2000E-01
     -4.126  0.0000E+00  0.2000E-01
     -4.064  0.0000E+00  0.2000E-01
     -4.001  0.0000E+00  0.2000E-01
     -3.939  0.0000E+00  0.2000E-01
     -3.876  0.0000E+00  0.2000E-01
     -3.814  0.0000E+00  0.2000E-01
     -3.751  0.0000E+00  0.2000E-01
     -3.688  0.0000E+00  0.2000E-01
     -3.626  0.0000E+00  0.2000E-01
     -3.563  0.0000E+00  0.2000E-01
     -3.501  0.0000E+00  0.2000E-01
     -3.438  0.0000E+00  0.2000E-01
     -3.376  0.0000E+00  0.2000E-01
     -3.313 -0.1246E-29  0.2000E-01
     -3.251 -0.1770E-27  0.2000E-01
     -3.188 -0.2076E-25  0.2000E-01
     -3.125 -0.1997E-23  0.2000E-01
     -3.063 -0.1577E-21  0.2000E-01
     -3.000 -0.1021E-19  0.2000E-01
     -2.938 -0.5420E-18  0.2000E-01
     -2.875 -0.2359E-16  0.2000E-01
     -2.813 -0.8146E-15  0.2000E-01
     -2.750 -0.2372E-13  0.2000E-01
     -2.688 -0.5644E-12  0.2000E-01
     -2.625 -0.1098E-10  0.2000E-01
     -2.562 -0.1744E-09  0.2000E-01
     -2.500 -0.2258E-08  0.2000E-01
     -2.437 -0.2381E-07  0.2000E-01
     -2.375 -0.2041E-06  0.2000E-01
     -2.312 -0.1418E-05  0.2000E-01
     -2.250 -0.7965E-05  0.2000E-01
     -2.187 -0.3599E-04  0.2000E-01
     -2.125 -0.1299E-03  0.1999E-01
     -2.062 -0.3701E-03  0.1997E-01
     -1.999 -0.8095E-03  0.1992E-01
     -1.937 -0.1265E-02  0.1984E-01
     -1.874 -0.1020E-02  0.1977E-01
     -1.812  0.1242E-02  0.1985E-01
     -1.749  0.6905E-02  0.2028E-01
     -1.687  0.1635E-01  0.2130E-01
     -1.624  0.2803E-01  0.2306E-01
     -1.562  0.3871E-01  0.2548E-01
     -1.499  0.4518E-01  0.2830E-01
     -1.436  0.4661E-01  0.3122E-01
     -1.374  0.4593E-01  0.3409E-01
     -1.311  0.4851E-01  0.3713E-01
     -1.249  0.5730E-01  0.4071E-01
     -1.186  0.6836E-01  0.4499E-01
     -1.124  0.7377E-01  0.4960E-01
     -1.061  0.7112E-01  0.5405E-01
     -0.999  0.6772E-01  0.5829E-01
     -0.936  0.7298E-01  0.6285E-01
     -0.873  0.8831E-01  0.6838E-01
     -0.811  0.1065E+00  0.7504E-01
     -0.748  0.1194E+00  0.8251E-01
     -0.686  0.1241E+00  0.9027E-01
     -0.623  0.1222E+00  0.9791E-01
     -0.561  0.1152E+00  0.1051E+00
     -0.498  0.1053E+00  0.1117E+00
     -0.436  0.1003E+00  0.1180E+00
     -0.373  0.1088E+00  0.1248E+00
     -0.311  0.1268E+00  0.1327E+00
     -0.248  0.1359E+00  0.1412E+00
     -0.185  0.1229E+00  0.1489E+00
     -0.123  0.9617E-01  0.1549E+00
     -0.060  0.7708E-01  0.1597E+00
      0.002  0.7806E-01  0.1646E+00
      0.065  0.9596E-01  0.1706E+00
      0.127  0.1212E+00  0.1782E+00
      0.190  0.1454E+00  0.1873E+00
      0.252  0.1625E+00  0.1975E+00
      0.315  0.1688E+00  0.2080E+00
      0.378  0.1642E+00  0.2183E+00
      0.440  0.1512E+00  0.2278E+00
      0.503  0.1340E+00  0.2361E+00
      0.565  0.1193E+00  0.2436E+00
      0.628  0.1131E+00  0.2507E+00
      0.690  0.1163E+00  0.2579E+00
      0.753  0.1255E+00  0.2658E+00
      0.815  0.1377E+00  0.2744E+00
      0.878  0.1522E+00  0.2839E+00
      0.941  0.1689E+00  0.2945E+00
      1.003  0.1870E+00  0.3062E+00
      1.066  0.2043E+00  0.3190E+00
      1.128  0.2161E+00  0.3325E+00
      1.191  0.2174E+00  0.3461E+00
      1.253  0.2086E+00  0.3591E+00
      1.316  0.1968E+00  0.3714E+00
      1.378  0.1897E+00  0.3833E+00
      1.441  0.1915E+00  0.3953E+00
      1.504  0.2065E+00  0.4082E+00
      1.566  0.2368E+00  0.4230E+00
      1.629  0.2746E+00  0.4402E+00
      1.691  0.3015E+00  0.4591E+00
      1.754  0.3054E+00  0.4782E+00
      1.816  0.2979E+00  0.4968E+00
      1.879  0.3106E+00  0.5162E+00
      1.941  0.3718E+00  0.5395E+00
      2.004  0.4859E+00  0.5699E+00
      2.067  0.6339E+00  0.6095E+00
      2.129  0.7868E+00  0.6587E+00
      2.192  0.9159E+00  0.7160E+00
      2.254  0.9990E+00  0.7785E+00
      2.317  0.1029E+01  0.8429E+00
      2.379  0.1021E+01  0.9068E+00
      2.442  0.1007E+01  0.9697E+00
      2.504  0.1008E+01  0.1033E+01
      2.567  0.1031E+01  0.1097E+01
      2.630  0.1068E+01  0.1164E+01
      2.692  0.1116E+01  0.1234E+01
      2.755  0.1181E+01  0.1308E+01
      2.817  0.1264E+01  0.1387E+01
      2.880  0.1351E+01  0.1471E+01
      2.942  0.1420E+01  0.1560E+01
      3.005  0.1466E+01  0.1652E+01
      3.067  0.1507E+01  0.1746E+01
      3.130  0.1558E+01  0.1844E+01
      3.193  0.1610E+01  0.1944E+01
      3.255  0.1643E+01  0.2047E+01
      3.318  0.1644E+01  0.2150E+01
      3.380  0.1614E+01  0.2251E+01
      3.443  0.1566E+01  0.2349E+01
      3.505  0.1520E+01  0.2444E+01
      3.568  0.1497E+01  0.2537E+01
      3.630  0.1500E+01  0.2631E+01
      3.693  0.1509E+01  0.2726E+01
      3.756  0.1494E+01  0.2819E+01
      3.818  0.1447E+01  0.2910E+01
      3.881  0.1386E+01  0.2996E+01
      3.943  0.1338E+01  0.3080E+01
      4.006  0.1319E+01  0.3163E+01
      4.068  0.1317E+01  0.3245E+01
      4.131  0.1309E+01  0.3327E+01
      4.193  0.1286E+01  0.3407E+01
      4.256  0.1267E+01  0.3487E+01
      4.318  0.1286E+01  0.3567E+01
      4.381  0.1352E+01  0.3652E+01
      4.444  0.1451E+01  0.3742E+01
      4.506  0.1560E+01  0.3840E+01
      4.569  0.1665E+01  0.3944E+01
      4.631  0.1753E+01  0.4054E+01
      4.694  0.1793E+01  0.4166E+01
      4.756  0.1772E+01  0.4277E+01
      4.819  0.1720E+01  0.4384E+01
      4.881  0.1702E+01  0.4491E+01
      4.944  0.1764E+01  0.4601E+01
      5.007  0.1897E+01  0.4720E+01
      5.069  0.2045E+01  0.4848E+01
      5.132  0.2156E+01  0.4983E+01
      5.194  0.2216E+01  0.5121E+01
      5.257  0.2246E+01  0.5262E+01
      5.319  0.2275E+01  0.5404E+01
      5.382  0.2323E+01  0.5549E+01
      5.444  0.2393E+01  0.5699E+01
      5.507  0.2472E+01  0.5854E+01
      5.570  0.2522E+01  0.6011E+01
      5.632  0.2497E+01  0.6168E+01
      5.695  0.2371E+01  0.6316E+01
      5.757  0.2167E+01  0.6451E+01
      5.820  0.1945E+01  0.6573E+01
      5.882  0.1755E+01  0.6683E+01
      5.945  0.1615E+01  0.6784E+01
      6.007  0.1520E+01  0.6879E+01
      6.070  0.1464E+01  0.6971E+01
      6.133  0.1452E+01  0.7061E+01
      6.195  0.1484E+01  0.7154E+01
      6.258  0.1550E+01  0.7251E+01
      6.320  0.1632E+01  0.7353E+01
      6.383  0.1715E+01  0.7460E+01
      6.445  0.1793E+01  0.7573E+01
      6.508  0.1873E+01  0.7690E+01
      6.570  0.1953E+01  0.7812E+01
      6.633  0.2015E+01  0.7938E+01
      6.696  0.2035E+01  0.8065E+01
      6.758  0.2016E+01  0.8191E+01
      6.821  0.1981E+01  0.8315E+01
      6.883  0.1944E+01  0.8437E+01
      6.946  0.1891E+01  0.8555E+01
      7.008  0.1810E+01  0.8668E+01
      7.071  0.1727E+01  0.8777E+01
      7.133  0.1686E+01  0.8882E+01
      7.196  0.1704E+01  0.8989E+01
      7.259  0.1752E+01  0.9098E+01
      7.321  0.1792E+01  0.9210E+01
      7.384  0.1816E+01  0.9324E+01
      7.446  0.1849E+01  0.9440E+01
      7.509  0.1927E+01  0.9560E+01
      7.571  0.2058E+01  0.9689E+01
      7.634  0.2190E+01  0.9826E+01
      7.696  0.2211E+01  0.9964E+01
      7.759  0.2003E+01  0.1009E+02
      7.822  0.1539E+01  0.1019E+02
      7.884  0.9385E+00  0.1024E+02
      7.947  0.4000E+00  0.1027E+02
      8.009  0.6255E-01  0.1027E+02
      8.072 -0.6798E-01  0.1027E+02
      8.134 -0.7509E-01  0.1026E+02
      8.197 -0.4433E-01  0.1026E+02
      8.259 -0.1868E-01  0.1026E+02
      8.322 -0.6037E-02  0.1026E+02
      8.384 -0.1541E-02  0.1026E+02
      8.447 -0.3149E-03  0.1026E+02
      8.510 -0.5197E-04  0.1026E+02
      8.572 -0.6963E-05  0.1026E+02
      8.635 -0.7596E-06  0.1026E+02
      8.697 -0.6764E-07  0.1026E+02
      8.760 -0.4925E-08  0.1026E+02
      8.822 -0.2935E-09  0.1026E+02
      8.885 -0.1433E-10  0.1026E+02
      8.947 -0.5738E-12  0.1026E+02
      9.010 -0.1889E-13  0.1026E+02
      9.073 -0.4836E-15  0.1026E+02
      9.135  0.0000E+00  0.1026E+02
      9.198  0.0000E+00  0.1026E+02
      9.260  0.0000E+00  0.1026E+02
      9.323  0.0000E+00  0.1026E+02
      9.385  0.0000E+00  0.1026E+02
      9.448  0.0000E+00  0.1026E+02
      9.510  0.0000E+00  0.1026E+02
      9.573  0.0000E+00  0.1026E+02
      9.636  0.0000E+00  0.1026E+02
      9.698  0.0000E+00  0.1026E+02
      9.761  0.0000E+00  0.1026E+02
      9.823  0.0000E+00  0.1026E+02
