  107  107  100    1
  0.1031640E+02  0.1033485E-08  0.1033485E-08  0.1033485E-08  0.5000000E-15
  1.000000000000000E-004
  CAR 
 Opt                                     
    854     32    513
 
  0.1250000E+00  0.1250000E+00  0.1250000E+00  0.3125000E-01
    1       -6.942938   1.000000
    2       -1.682499   1.000000
    3       -0.877649   1.000000
    4       -0.843636   1.000000
    5       -0.690762   1.000000
    6       -0.297533   1.000000
    7       -0.264395   1.000000
    8       -0.213224   1.000000
    9        0.159230   1.000000
   10        0.205206   1.000000
   11        0.405810   1.000000
   12        0.459658   1.000000
   13        0.534463   1.000000
   14        0.769238   1.000000
   15        0.944815   1.000000
   16        0.961327   1.000000
   17        1.029826   1.000000
   18        1.112346   1.000000
   19        1.243877   1.000000
   20        1.281802   1.000000
   21        1.306564   1.000000
   22        1.476460   1.000000
   23        1.532280   1.000000
   24        1.619907   1.000000
   25        1.639372   1.000000
   26        1.658718   1.000000
   27        1.694921   1.000000
   28        1.828798   1.000000
   29        1.843056   1.000000
   30        1.872265   1.000000
   31        1.999829   1.000000
   32        2.014378   1.000000
   33        2.027469   1.000000
   34        2.063133   1.000000
   35        2.078886   1.000000
   36        2.115727   1.000000
   37        2.164485   1.000000
   38        2.196854   1.000000
   39        2.213745   1.000000
   40        2.466585   1.000000
   41        2.488076   1.000000
   42        2.493179   1.000000
   43        2.521809   1.000000
   44        2.583430   1.000000
   45        2.592363   1.000000
   46        2.597873   1.000000
   47        2.605486   1.000000
   48        2.609863   1.000000
   49        2.613355   1.000000
   50        2.618116   1.000000
   51        2.626502   1.000000
   52        2.637963   1.000000
   53        2.645744   1.000000
   54        2.647266   1.000000
   55        2.652417   1.000000
   56        2.664021   1.000000
   57        2.667654   1.000000
   58        2.673877   1.000000
   59        2.688995   1.000000
   60        2.706816   1.000000
   61        2.724037   1.000000
   62        2.734733   1.000000
   63        2.750089   1.000000
   64        2.759153   1.000000
   65        2.768452   1.000000
   66        2.774862   1.000000
   67        2.795562   1.000000
   68        2.803209   1.000000
   69        2.831126   1.000000
   70        2.841971   1.000000
   71        2.853110   1.000000
   72        2.859802   1.000000
   73        2.865943   1.000000
   74        2.869471   1.000000
   75        2.875680   1.000000
   76        2.889858   1.000000
   77        2.895783   1.000000
   78        2.909011   1.000000
   79        2.911907   1.000000
   80        2.920606   1.000000
   81        2.931279   1.000000
   82        2.936621   1.000000
   83        2.944300   1.000000
   84        2.959943   1.000000
   85        2.973039   1.000000
   86        2.980333   1.000000
   87        2.998916   1.000000
   88        3.012743   1.000000
   89        3.021200   1.000000
   90        3.035579   1.000000
   91        3.062310   1.000000
   92        3.101213   1.000000
   93        3.114463   1.000000
   94        3.156550   1.000000
   95        3.172256   1.000000
   96        3.178680   1.000000
   97        3.188571   1.000000
   98        3.193185   1.000000
   99        3.196263   1.000000
  100        3.205038   1.000000
  101        3.214759   1.000000
  102        3.238278   1.000000
  103        3.266589   1.000000
  104        3.276135   1.000000
  105        3.291370   1.000000
  106        3.293362   1.000000
  107        3.306361   1.000000
  108        3.315570   1.000000
  109        3.324677   1.000000
  110        3.337997   1.000000
  111        3.383520   1.000000
  112        3.416169   1.000000
  113        3.433919   1.000000
  114        3.441872   1.000000
  115        3.449221   1.000000
  116        3.454911   1.000000
  117        3.459731   1.000000
  118        3.470964   1.000000
  119        3.478572   1.000000
  120        3.488578   1.000000
  121        3.503136   1.000000
  122        3.516830   1.000000
  123        3.538410   1.000000
  124        3.561806   1.000000
  125        3.567879   1.000000
  126        3.576025   1.000000
  127        3.590977   1.000000
  128        3.593913   1.000000
  129        3.600888   1.000000
  130        3.606426   1.000000
  131        3.615991   1.000000
  132        3.625145   1.000000
  133        3.635023   1.000000
  134        3.645193   1.000000
  135        3.654749   1.000000
  136        3.663521   1.000000
  137        3.672110   1.000000
  138        3.677148   1.000000
  139        3.687242   1.000000
  140        3.698049   1.000000
  141        3.711453   1.000000
  142        3.717464   1.000000
  143        3.734823   1.000000
  144        3.739303   1.000000
  145        3.758442   1.000000
  146        3.781484   1.000000
  147        3.799600   1.000000
  148        3.819591   1.000000
  149        3.822162   1.000000
  150        3.838040   1.000000
  151        3.849806   1.000000
  152        3.851488   1.000000
  153        3.869444   1.000000
  154        3.879372   1.000000
  155        3.894313   1.000000
  156        3.898486   1.000000
  157        3.916203   1.000000
  158        3.939225   1.000000
  159        3.948474   1.000000
  160        3.967908   1.000000
  161        3.987908   1.000000
  162        4.020280   1.000000
  163        4.043208   1.000000
  164        4.054564   1.000000
  165        4.077277   1.000000
  166        4.093123   1.000000
  167        4.127957   1.000000
  168        4.142398   1.000000
  169        4.154927   1.000000
  170        4.177442   1.000000
  171        4.190666   1.000000
  172        4.228522   1.000000
  173        4.242421   1.000000
  174        4.269264   1.000000
  175        4.290871   1.000000
  176        4.315203   1.000000
  177        4.335578   1.000000
  178        4.389544   1.000000
  179        4.394678   1.000000
  180        4.403642   1.000000
  181        4.408140   1.000000
  182        4.416206   1.000000
  183        4.418450   1.000000
  184        4.429614   1.000000
  185        4.436156   1.000000
  186        4.444857   1.000000
  187        4.453095   1.000000
  188        4.461057   1.000000
  189        4.473543   1.000000
  190        4.488409   1.000000
  191        4.495132   1.000000
  192        4.518104   1.000000
  193        4.522415   1.000000
  194        4.526433   1.000000
  195        4.537845   1.000000
  196        4.554097   1.000000
  197        4.568291   1.000000
  198        4.573667   1.000000
  199        4.577952   1.000000
  200        4.584000   1.000000
  201        4.594188   1.000000
  202        4.599774   1.000000
  203        4.608893   1.000000
  204        4.619469   1.000000
  205        4.624144   1.000000
  206        4.645332   1.000000
  207        4.652022   1.000000
  208        4.661641   1.000000
  209        4.667548   1.000000
  210        4.673656   1.000000
  211        4.681541   1.000000
  212        4.686875   1.000000
  213        4.698881   1.000000
  214        4.718151   1.000000
  215        4.735296   1.000000
  216        4.747855   1.000000
  217        4.757906   1.000000
  218        4.766462   1.000000
  219        4.788910   1.000000
  220        4.804076   1.000000
  221        4.831430   1.000000
  222        4.839521   1.000000
  223        4.858583   1.000000
  224        4.887118   1.000000
  225        4.898935   1.000000
  226        4.917387   1.000000
  227        4.928568   1.000000
  228        4.935440   1.000000
  229        4.945850   1.000000
  230        4.955553   1.000000
  231        4.961070   1.000000
  232        4.971073   1.000000
  233        4.984962   1.000000
  234        4.992077   1.000000
  235        5.008442   1.000000
  236        5.026187   1.000000
  237        5.035484   1.000000
  238        5.053033   1.000000
  239        5.059437   1.000000
  240        5.081988   1.000000
  241        5.088984   1.000000
  242        5.099560   1.000000
  243        5.123464   1.000000
  244        5.132346   1.000000
  245        5.139947   1.000000
  246        5.144309   1.000000
  247        5.154647   1.000000
  248        5.160469   1.000000
  249        5.178962   1.000000
  250        5.189963   1.000000
  251        5.196276   1.000000
  252        5.203379   1.000000
  253        5.207646   1.000000
  254        5.218809   1.000000
  255        5.222093   1.000000
  256        5.232969   1.000000
  257        5.239999   1.000000
  258        5.246418   1.000000
  259        5.253377   1.000000
  260        5.257682   1.000000
  261        5.265667   1.000000
  262        5.272406   1.000000
  263        5.275554   1.000000
  264        5.285860   1.000000
  265        5.290435   1.000000
  266        5.301011   1.000000
  267        5.304358   1.000000
  268        5.312334   1.000000
  269        5.319837   1.000000
  270        5.324644   1.000000
  271        5.327980   1.000000
  272        5.332886   1.000000
  273        5.340605   1.000000
  274        5.349547   1.000000
  275        5.356733   1.000000
  276        5.364448   1.000000
  277        5.376936   1.000000
  278        5.380971   1.000000
  279        5.387123   1.000000
  280        5.391887   1.000000
  281        5.397354   1.000000
  282        5.405368   1.000000
  283        5.409657   1.000000
  284        5.413871   1.000000
  285        5.422819   1.000000
  286        5.425363   1.000000
  287        5.428144   1.000000
  288        5.433265   1.000000
  289        5.443104   1.000000
  290        5.445568   1.000000
  291        5.456439   1.000000
  292        5.461626   1.000000
  293        5.470986   1.000000
  294        5.480005   1.000000
  295        5.483747   1.000000
  296        5.492043   1.000000
  297        5.497269   1.000000
  298        5.518043   1.000000
  299        5.520917   1.000000
  300        5.526618   1.000000
  301        5.534390   1.000000
  302        5.539727   1.000000
  303        5.549475   1.000000
  304        5.556598   1.000000
  305        5.567746   1.000000
  306        5.579074   1.000000
  307        5.604405   1.000000
  308        5.606560   1.000000
  309        5.623783   1.000000
  310        5.626734   1.000000
  311        5.638843   1.000000
  312        5.662961   1.000000
  313        5.671924   1.000000
  314        5.678786   1.000000
  315        5.696707   1.000000
  316        5.708993   1.000000
  317        5.720302   1.000000
  318        5.724844   1.000000
  319        5.731472   1.000000
  320        5.745147   1.000000
  321        5.749670   1.000000
  322        5.761410   1.000000
  323        5.768709   1.000000
  324        5.773999   1.000000
  325        5.785536   1.000000
  326        5.789246   1.000000
  327        5.793676   1.000000
  328        5.807767   1.000000
  329        5.815017   1.000000
  330        5.831382   1.000000
  331        5.841611   1.000000
  332        5.846085   1.000000
  333        5.849493   1.000000
  334        5.863762   1.000000
  335        5.875784   1.000000
  336        5.887668   1.000000
  337        5.891678   1.000000
  338        5.901019   1.000000
  339        5.907780   1.000000
  340        5.915970   1.000000
  341        5.922286   1.000000
  342        5.940224   1.000000
  343        5.949830   1.000000
  344        5.950879   1.000000
  345        5.960084   1.000000
  346        5.968183   1.000000
  347        5.979678   1.000000
  348        5.986371   1.000000
  349        5.987166   1.000000
  350        5.999211   1.000000
  351        6.017860   1.000000
  352        6.027439   1.000000
  353        6.031534   1.000000
  354        6.046210   1.000000
  355        6.061091   1.000000
  356        6.079464   1.000000
  357        6.089889   1.000000
  358        6.111999   1.000000
  359        6.123217   1.000000
  360        6.141702   1.000000
  361        6.155451   1.000000
  362        6.195476   1.000001
  363        6.217080   1.000002
  364        6.221808   1.000003
  365        6.239741   1.000005
  366        6.249219   1.000006
  367        6.262837   1.000010
  368        6.279426   1.000017
  369        6.321959   1.000060
  370        6.333041   1.000082
  371        6.339601   1.000099
  372        6.356981   1.000159
  373        6.365481   1.000200
  374        6.366224   1.000204
  375        6.373204   1.000245
  376        6.384013   1.000323
  377        6.387768   1.000355
  378        6.406982   1.000570
  379        6.411895   1.000641
  380        6.422789   1.000828
  381        6.438907   1.001194
  382        6.453865   1.001655
  383        6.463838   1.002042
  384        6.470872   1.002361
  385        6.491594   1.003554
  386        6.513941   1.005362
  387        6.521802   1.006150
  388        6.539262   1.008221
  389        6.561712   1.011583
  390        6.578644   1.014647
  391        6.594417   1.017875
  392        6.602147   1.019565
  393        6.608064   1.020895
  394        6.619969   1.023631
  395        6.636070   1.027326
  396        6.658002   1.031859
  397        6.663863   1.032865
  398        6.680609   1.034950
  399        6.694324   1.035446
  400        6.710031   1.034140
  401        6.718385   1.032420
  402        6.722753   1.031192
  403        6.742447   1.022381
  404        6.744327   1.021229
  405        6.755202   1.013358
  406        6.763549   1.005829
  407        6.776487   0.991365
  408        6.790611   0.971367
  409        6.798663   0.957874
  410        6.804383   0.947329
  411        6.806052   0.944101
  412        6.814454   0.926787
  413        6.820513   0.913199
  414        6.832423   0.883788
  415        6.845753   0.846676
  416        6.855683   0.816248
  417        6.860749   0.799854
  418        6.872304   0.760381
  419        6.890549   0.692827
  420        6.902775   0.644611
  421        6.908595   0.621008
  422        6.917316   0.585036
  423        6.941582   0.482841
  424        6.960458   0.403671
  425        6.966736   0.377851
  426        6.984083   0.308796
  427        6.989489   0.288138
  428        7.005010   0.231673
  429        7.008023   0.221253
  430        7.022204   0.174830
  431        7.030494   0.149821
  432        7.046200   0.107018
  433        7.056905   0.081384
  434        7.063116   0.067838
  435        7.074203   0.046061
  436        7.086509   0.025417
  437        7.098278   0.008996
  438        7.112005  -0.006321
  439        7.121259  -0.014498
  440        7.135301  -0.023934
  441        7.151219  -0.030851
  442        7.159166  -0.033019
  443        7.173128  -0.035099
  444        7.192987  -0.035062
  445        7.195632  -0.034849
  446        7.198632  -0.034559
  447        7.203906  -0.033935
  448        7.209641  -0.033111
  449        7.214228  -0.032358
  450        7.216459  -0.031965
  451        7.220872  -0.031144
  452        7.223037  -0.030722
  453        7.230707  -0.029142
  454        7.237938  -0.027560
  455        7.246038  -0.025721
  456        7.251659  -0.024424
  457        7.263141  -0.021773
  458        7.267382  -0.020806
  459        7.280666  -0.017869
  460        7.286206  -0.016698
  461        7.295529  -0.014818
  462        7.300715  -0.013826
  463        7.317866  -0.010840
  464        7.327193  -0.009413
  465        7.349291  -0.006580
  466        7.353125  -0.006164
  467        7.360237  -0.005445
  468        7.372807  -0.004340
  469        7.380252  -0.003777
  470        7.389984  -0.003133
  471        7.400409  -0.002548
  472        7.406107  -0.002269
  473        7.418662  -0.001747
  474        7.423152  -0.001587
  475        7.431249  -0.001331
  476        7.442259  -0.001041
  477        7.446468  -0.000946
  478        7.457058  -0.000740
  479        7.469755  -0.000547
  480        7.485670  -0.000370
  481        7.500868  -0.000251
  482        7.504360  -0.000229
  483        7.515129  -0.000172
  484        7.525280  -0.000131
  485        7.532623  -0.000107
  486        7.539940  -0.000087
  487        7.545866  -0.000074
  488        7.554234  -0.000058
  489        7.559759  -0.000049
  490        7.565810  -0.000041
  491        7.579644  -0.000027
  492        7.582413  -0.000025
  493        7.593070  -0.000018
  494        7.594901  -0.000017
  495        7.596780  -0.000016
  496        7.602838  -0.000013
  497        7.616941  -0.000009
  498        7.619886  -0.000008
  499        7.638055  -0.000004
  500        7.651958  -0.000003
  501        7.659813  -0.000002
  502        7.666476  -0.000002
  503        7.671555  -0.000001
  504        7.676294  -0.000001
  505        7.683385  -0.000001
  506        7.695596  -0.000001
  507        7.699645  -0.000000
  508        7.709747  -0.000000
  509        7.711379  -0.000000
  510        7.721601  -0.000000
  511        7.736802  -0.000000
  512        7.754952  -0.000000
  513        7.758133  -0.000000
 
  0.3750000E+00  0.1250000E+00  0.1250000E+00  0.3125000E-01
    1       -6.942710   1.000000
    2       -1.531115   1.000000
    3       -1.181506   1.000000
    4       -0.764451   1.000000
    5       -0.615669   1.000000
    6       -0.498344   1.000000
    7       -0.296978   1.000000
    8       -0.042439   1.000000
    9        0.033581   1.000000
   10        0.187218   1.000000
   11        0.332590   1.000000
   12        0.480687   1.000000
   13        0.618492   1.000000
   14        0.650775   1.000000
   15        0.869752   1.000000
   16        0.923104   1.000000
   17        1.086598   1.000000
   18        1.164803   1.000000
   19        1.237254   1.000000
   20        1.372364   1.000000
   21        1.495535   1.000000
   22        1.583399   1.000000
   23        1.638022   1.000000
   24        1.701154   1.000000
   25        1.748520   1.000000
   26        1.868435   1.000000
   27        1.956862   1.000000
   28        2.020635   1.000000
   29        2.026883   1.000000
   30        2.041710   1.000000
   31        2.079461   1.000000
   32        2.083898   1.000000
   33        2.124875   1.000000
   34        2.134247   1.000000
   35        2.156691   1.000000
   36        2.180653   1.000000
   37        2.206253   1.000000
   38        2.237578   1.000000
   39        2.244437   1.000000
   40        2.255925   1.000000
   41        2.284359   1.000000
   42        2.294906   1.000000
   43        2.301416   1.000000
   44        2.336910   1.000000
   45        2.356019   1.000000
   46        2.368376   1.000000
   47        2.384574   1.000000
   48        2.411507   1.000000
   49        2.417189   1.000000
   50        2.462145   1.000000
   51        2.513271   1.000000
   52        2.538359   1.000000
   53        2.569330   1.000000
   54        2.604704   1.000000
   55        2.625278   1.000000
   56        2.636401   1.000000
   57        2.650060   1.000000
   58        2.661795   1.000000
   59        2.677536   1.000000
   60        2.683899   1.000000
   61        2.704396   1.000000
   62        2.720202   1.000000
   63        2.738775   1.000000
   64        2.758325   1.000000
   65        2.766733   1.000000
   66        2.770988   1.000000
   67        2.779288   1.000000
   68        2.805064   1.000000
   69        2.822261   1.000000
   70        2.839247   1.000000
   71        2.847677   1.000000
   72        2.856736   1.000000
   73        2.862170   1.000000
   74        2.879211   1.000000
   75        2.887716   1.000000
   76        2.899408   1.000000
   77        2.908601   1.000000
   78        2.924241   1.000000
   79        2.930916   1.000000
   80        2.940058   1.000000
   81        2.969376   1.000000
   82        2.980534   1.000000
   83        2.987556   1.000000
   84        3.009127   1.000000
   85        3.017202   1.000000
   86        3.033461   1.000000
   87        3.038798   1.000000
   88        3.047259   1.000000
   89        3.062569   1.000000
   90        3.071752   1.000000
   91        3.084154   1.000000
   92        3.091546   1.000000
   93        3.107966   1.000000
   94        3.137227   1.000000
   95        3.141844   1.000000
   96        3.154019   1.000000
   97        3.166379   1.000000
   98        3.177224   1.000000
   99        3.198784   1.000000
  100        3.218663   1.000000
  101        3.239881   1.000000
  102        3.252274   1.000000
  103        3.265230   1.000000
  104        3.276201   1.000000
  105        3.287427   1.000000
  106        3.302677   1.000000
  107        3.309995   1.000000
  108        3.322213   1.000000
  109        3.337663   1.000000
  110        3.347900   1.000000
  111        3.357484   1.000000
  112        3.363283   1.000000
  113        3.375622   1.000000
  114        3.396690   1.000000
  115        3.407603   1.000000
  116        3.415415   1.000000
  117        3.433090   1.000000
  118        3.444023   1.000000
  119        3.457974   1.000000
  120        3.473436   1.000000
  121        3.487476   1.000000
  122        3.508968   1.000000
  123        3.525050   1.000000
  124        3.534173   1.000000
  125        3.546775   1.000000
  126        3.560908   1.000000
  127        3.585414   1.000000
  128        3.612087   1.000000
  129        3.623601   1.000000
  130        3.632543   1.000000
  131        3.646352   1.000000
  132        3.653441   1.000000
  133        3.660635   1.000000
  134        3.679071   1.000000
  135        3.693057   1.000000
  136        3.693788   1.000000
  137        3.709517   1.000000
  138        3.719216   1.000000
  139        3.722460   1.000000
  140        3.737916   1.000000
  141        3.749887   1.000000
  142        3.753876   1.000000
  143        3.771733   1.000000
  144        3.777900   1.000000
  145        3.798418   1.000000
  146        3.802135   1.000000
  147        3.817538   1.000000
  148        3.837194   1.000000
  149        3.851611   1.000000
  150        3.864630   1.000000
  151        3.882294   1.000000
  152        3.914783   1.000000
  153        3.923248   1.000000
  154        3.932651   1.000000
  155        3.955957   1.000000
  156        3.976174   1.000000
  157        3.990247   1.000000
  158        4.004934   1.000000
  159        4.016398   1.000000
  160        4.037254   1.000000
  161        4.043814   1.000000
  162        4.064773   1.000000
  163        4.068842   1.000000
  164        4.079655   1.000000
  165        4.087982   1.000000
  166        4.108596   1.000000
  167        4.124267   1.000000
  168        4.136512   1.000000
  169        4.143327   1.000000
  170        4.160375   1.000000
  171        4.171330   1.000000
  172        4.180653   1.000000
  173        4.184056   1.000000
  174        4.215028   1.000000
  175        4.231872   1.000000
  176        4.253158   1.000000
  177        4.261699   1.000000
  178        4.274639   1.000000
  179        4.293392   1.000000
  180        4.316082   1.000000
  181        4.327480   1.000000
  182        4.336109   1.000000
  183        4.355809   1.000000
  184        4.364561   1.000000
  185        4.378935   1.000000
  186        4.399929   1.000000
  187        4.419962   1.000000
  188        4.424768   1.000000
  189        4.442059   1.000000
  190        4.459337   1.000000
  191        4.469749   1.000000
  192        4.476213   1.000000
  193        4.484983   1.000000
  194        4.500658   1.000000
  195        4.525124   1.000000
  196        4.548103   1.000000
  197        4.565243   1.000000
  198        4.570540   1.000000
  199        4.585910   1.000000
  200        4.592481   1.000000
  201        4.623997   1.000000
  202        4.631290   1.000000
  203        4.641218   1.000000
  204        4.654355   1.000000
  205        4.657966   1.000000
  206        4.668472   1.000000
  207        4.675143   1.000000
  208        4.690219   1.000000
  209        4.697111   1.000000
  210        4.715968   1.000000
  211        4.726297   1.000000
  212        4.735665   1.000000
  213        4.742140   1.000000
  214        4.754190   1.000000
  215        4.763760   1.000000
  216        4.771112   1.000000
  217        4.791479   1.000000
  218        4.804782   1.000000
  219        4.811590   1.000000
  220        4.822445   1.000000
  221        4.843506   1.000000
  222        4.852879   1.000000
  223        4.868158   1.000000
  224        4.882511   1.000000
  225        4.898298   1.000000
  226        4.908280   1.000000
  227        4.927232   1.000000
  228        4.937348   1.000000
  229        4.959833   1.000000
  230        4.965008   1.000000
  231        4.973435   1.000000
  232        4.993761   1.000000
  233        5.009083   1.000000
  234        5.013397   1.000000
  235        5.016854   1.000000
  236        5.022474   1.000000
  237        5.026821   1.000000
  238        5.034486   1.000000
  239        5.044648   1.000000
  240        5.051913   1.000000
  241        5.056969   1.000000
  242        5.067027   1.000000
  243        5.071737   1.000000
  244        5.079714   1.000000
  245        5.094962   1.000000
  246        5.100105   1.000000
  247        5.109548   1.000000
  248        5.124940   1.000000
  249        5.127306   1.000000
  250        5.139186   1.000000
  251        5.148962   1.000000
  252        5.160436   1.000000
  253        5.167597   1.000000
  254        5.171322   1.000000
  255        5.190659   1.000000
  256        5.195203   1.000000
  257        5.203831   1.000000
  258        5.210762   1.000000
  259        5.219312   1.000000
  260        5.228898   1.000000
  261        5.240492   1.000000
  262        5.252589   1.000000
  263        5.259622   1.000000
  264        5.269274   1.000000
  265        5.277526   1.000000
  266        5.295590   1.000000
  267        5.299315   1.000000
  268        5.316727   1.000000
  269        5.331755   1.000000
  270        5.337825   1.000000
  271        5.344948   1.000000
  272        5.352372   1.000000
  273        5.357177   1.000000
  274        5.362903   1.000000
  275        5.372171   1.000000
  276        5.375884   1.000000
  277        5.388802   1.000000
  278        5.394608   1.000000
  279        5.404360   1.000000
  280        5.411447   1.000000
  281        5.418965   1.000000
  282        5.425153   1.000000
  283        5.434238   1.000000
  284        5.442535   1.000000
  285        5.449517   1.000000
  286        5.462731   1.000000
  287        5.469890   1.000000
  288        5.478252   1.000000
  289        5.490352   1.000000
  290        5.497724   1.000000
  291        5.503978   1.000000
  292        5.508659   1.000000
  293        5.514395   1.000000
  294        5.520546   1.000000
  295        5.527192   1.000000
  296        5.529498   1.000000
  297        5.544192   1.000000
  298        5.551940   1.000000
  299        5.561607   1.000000
  300        5.565347   1.000000
  301        5.576805   1.000000
  302        5.580523   1.000000
  303        5.587155   1.000000
  304        5.598222   1.000000
  305        5.602108   1.000000
  306        5.607560   1.000000
  307        5.614044   1.000000
  308        5.620701   1.000000
  309        5.626797   1.000000
  310        5.631731   1.000000
  311        5.638816   1.000000
  312        5.643136   1.000000
  313        5.654593   1.000000
  314        5.667804   1.000000
  315        5.676035   1.000000
  316        5.682431   1.000000
  317        5.687273   1.000000
  318        5.694320   1.000000
  319        5.698943   1.000000
  320        5.708563   1.000000
  321        5.709608   1.000000
  322        5.717683   1.000000
  323        5.726379   1.000000
  324        5.741937   1.000000
  325        5.745498   1.000000
  326        5.758232   1.000000
  327        5.769755   1.000000
  328        5.778229   1.000000
  329        5.785532   1.000000
  330        5.799329   1.000000
  331        5.810236   1.000000
  332        5.823045   1.000000
  333        5.835335   1.000000
  334        5.849942   1.000000
  335        5.855815   1.000000
  336        5.872948   1.000000
  337        5.882921   1.000000
  338        5.898312   1.000000
  339        5.912176   1.000000
  340        5.922622   1.000000
  341        5.926705   1.000000
  342        5.943917   1.000000
  343        5.958478   1.000000
  344        5.967547   1.000000
  345        5.997606   1.000000
  346        6.003831   1.000000
  347        6.014007   1.000000
  348        6.034447   1.000000
  349        6.048839   1.000000
  350        6.073283   1.000000
  351        6.102125   1.000000
  352        6.115053   1.000000
  353        6.142409   1.000000
  354        6.155898   1.000000
  355        6.166627   1.000000
  356        6.176083   1.000001
  357        6.196190   1.000001
  358        6.204887   1.000001
  359        6.222013   1.000003
  360        6.229141   1.000003
  361        6.240158   1.000005
  362        6.262246   1.000010
  363        6.280234   1.000017
  364        6.284924   1.000020
  365        6.304281   1.000036
  366        6.308527   1.000041
  367        6.323034   1.000062
  368        6.329609   1.000075
  369        6.335026   1.000087
  370        6.344030   1.000112
  371        6.352055   1.000139
  372        6.357237   1.000160
  373        6.362211   1.000183
  374        6.376978   1.000270
  375        6.387585   1.000353
  376        6.398823   1.000467
  377        6.414373   1.000680
  378        6.417982   1.000740
  379        6.427738   1.000928
  380        6.435245   1.001100
  381        6.444509   1.001352
  382        6.450001   1.001523
  383        6.453690   1.001649
  384        6.466491   1.002158
  385        6.474447   1.002538
  386        6.483537   1.003041