       N       E                     dE             d eps       ncg     rms          rms(c)
DAV:   1     0.750415145260E+04    0.75042E+04   -0.28527E+05 32922   0.182E+03
DAV:   2    -0.133711080095E+02   -0.75175E+04   -0.73487E+04 32832   0.456E+02
DAV:   3    -0.833775622917E+03   -0.82040E+03   -0.70184E+03 33093   0.191E+02
DAV:   4    -0.100655452983E+04   -0.17278E+03   -0.16196E+03 59904   0.571E+01
DAV:   5    -0.102125881381E+04   -0.14704E+02   -0.13885E+02 52812   0.216E+01    0.922E+01
RMM:   6    -0.883026201864E+03    0.13823E+03   -0.14205E+03 32832   0.112E+02    0.478E+01
RMM:   7    -0.116521681326E+04   -0.28219E+03   -0.51562E+02 41403   0.408E+01    0.174E+02
RMM:   8    -0.888076987601E+03    0.27714E+03   -0.23674E+02 32832   0.451E+01    0.634E+01
RMM:   9    -0.861800991767E+03    0.26276E+02   -0.62851E+01 33086   0.174E+01    0.190E+01
RMM:  10    -0.863825410261E+03   -0.20244E+01   -0.41765E+01 46111   0.861E+00    0.177E+01
RMM:  11    -0.863404987935E+03    0.42042E+00   -0.11450E+01 38055   0.603E+00    0.161E+01
RMM:  12    -0.862335952053E+03    0.10690E+01   -0.42783E+00 39266   0.361E+00    0.101E+01
RMM:  13    -0.862099328974E+03    0.23662E+00   -0.21417E+00 38288   0.266E+00    0.996E+00
RMM:  14    -0.861679179233E+03    0.42015E+00   -0.16021E+00 34969   0.284E+00    0.822E+00
RMM:  15    -0.861654334122E+03    0.24845E-01   -0.11886E+00 44987   0.132E+00    0.839E+00
RMM:  16    -0.861361626310E+03    0.29271E+00   -0.39363E-01 33977   0.162E+00    0.507E+00
RMM:  17    -0.861280261971E+03    0.81364E-01   -0.23787E-01 36106   0.963E-01    0.311E+00
RMM:  18    -0.861294544845E+03   -0.14283E-01   -0.34819E-01 41944   0.956E-01    0.311E+00
RMM:  19    -0.861252367443E+03    0.42177E-01   -0.13944E-01 36598   0.730E-01    0.122E+00
RMM:  20    -0.861256454313E+03   -0.40869E-02   -0.97798E-02 49168   0.301E-01    0.131E+00
RMM:  21    -0.861254503722E+03    0.19506E-02   -0.26464E-02 34876   0.389E-01    0.125E+00
RMM:  22    -0.861252099413E+03    0.24043E-02   -0.13426E-02 36555   0.240E-01    0.102E+00
RMM:  23    -0.861250336789E+03    0.17626E-02   -0.70493E-03 35968   0.177E-01    0.816E-01
RMM:  24    -0.861247438294E+03    0.28985E-02   -0.28844E-03 34770   0.132E-01    0.349E-01
RMM:  25    -0.861247365367E+03    0.72927E-04   -0.20959E-03 47840   0.558E-02    0.261E-01
RMM:  26    -0.861247145984E+03    0.21938E-03   -0.16580E-03 44055   0.543E-02    0.144E-01
RMM:  27    -0.861247075603E+03    0.70381E-04   -0.58107E-04 43085   0.362E-02    0.924E-02
RMM:  28    -0.861247057837E+03    0.17765E-04   -0.11165E-04 41681   0.218E-02    0.898E-02
RMM:  29    -0.861246992054E+03    0.65783E-04   -0.72589E-06 34571   0.212E-02    0.252E-02
RMM:  30    -0.861246985863E+03    0.61908E-05    0.13083E-05 45713   0.855E-03    0.298E-02
RMM:  31    -0.861246966969E+03    0.18894E-04    0.31999E-05 36135   0.672E-03    0.246E-02
RMM:  32    -0.861246957408E+03    0.95607E-05    0.40950E-05 25238   0.519E-03    0.864E-03
RMM:  33    -0.861246953603E+03    0.38051E-05    0.33206E-05 22316   0.349E-03    0.112E-02
RMM:  34    -0.861246949452E+03    0.41512E-05    0.29779E-05 21353   0.445E-03    0.339E-03
RMM:  35    -0.861246946745E+03    0.27071E-05    0.29408E-05 19941   0.201E-03    0.486E-03
RMM:  36    -0.861246944904E+03    0.18407E-05    0.25489E-05 19592   0.234E-03    0.271E-03
RMM:  37    -0.861246942628E+03    0.22757E-05    0.23389E-05 19224   0.102E-03    0.172E-03
RMM:  38    -0.861246940683E+03    0.19456E-05    0.21406E-05 18557   0.113E-03    0.188E-03
RMM:  39    -0.861246938878E+03    0.18046E-05    0.19485E-05 17313   0.756E-04    0.102E-03
RMM:  40    -0.861246937155E+03    0.17233E-05    0.17890E-05 14652   0.652E-04    0.112E-03
RMM:  41    -0.861246935767E+03    0.13875E-05    0.16252E-05 13999   0.592E-04    0.527E-04
RMM:  42    -0.861246934306E+03    0.14610E-05    0.14944E-05  9446   0.444E-04    0.539E-04
RMM:  43    -0.861246933035E+03    0.12711E-05    0.13834E-05 10084   0.462E-04    0.505E-04
RMM:  44    -0.861246931813E+03    0.12228E-05    0.12434E-05  7947   0.377E-04    0.272E-04
RMM:  45    -0.861246930639E+03    0.11732E-05    0.11655E-05  7695   0.376E-04    0.266E-04
RMM:  46    -0.861246929568E+03    0.10716E-05    0.10676E-05  7192   0.344E-04    0.141E-04
RMM:  47    -0.861246928587E+03    0.98104E-06    0.96737E-06  6553   0.337E-04
   1 F= -.86124693E+03 E0= -.86123888E+03  d E =-.861247E+03
       N       E                     dE             d eps       ncg     rms          rms(c)
DAV:   1    -0.862295323182E+03   -0.10484E+01   -0.49437E+02 32832   0.321E+01    0.119E+01
RMM:   2    -0.912812959207E+03   -0.50518E+02   -0.24147E+02 38360   0.345E+01    0.652E+01
RMM:   3    -0.865911999636E+03    0.46901E+02   -0.45135E+01 32832   0.207E+01    0.261E+01
RMM:   4    -0.863052057545E+03    0.28599E+01   -0.61833E+00 34933   0.473E+00    0.116E+01
RMM:   5    -0.862986141489E+03    0.65916E-01   -0.31177E+00 47044   0.193E+00    0.791E+00
RMM:   6    -0.862865720843E+03    0.12042E+00   -0.25313E+00 42499   0.229E+00    0.485E+00
RMM:   7    -0.862940541965E+03   -0.74821E-01   -0.88130E-01 47274   0.124E+00    0.626E+00
RMM:   8    -0.862744255540E+03    0.19629E+00   -0.27511E-01 33485   0.122E+00    0.285E+00
RMM:   9    -0.862725360651E+03    0.18895E-01   -0.20146E-01 34700   0.927E-01    0.203E+00
RMM:  10    -0.862809428949E+03   -0.84068E-01   -0.45386E-01 43881   0.104E+00    0.449E+00
RMM:  11    -0.862738836684E+03    0.70592E-01   -0.11912E-01 32920   0.815E-01    0.256E+00
RMM:  12    -0.862733038431E+03    0.57983E-02   -0.77999E-02 46972   0.322E-01    0.240E+00
RMM:  13    -0.862707090238E+03    0.25948E-01   -0.26301E-02 36145   0.320E-01    0.116E+00
RMM:  14    -0.862704242331E+03    0.28479E-02   -0.21748E-02 46064   0.199E-01    0.683E-01
RMM:  15    -0.862703205240E+03    0.10371E-02   -0.12458E-02 45688   0.148E-01    0.403E-01
RMM:  16    -0.862702751954E+03    0.45329E-03   -0.48769E-03 42612   0.104E-01    0.177E-01
RMM:  17    -0.862703011259E+03   -0.25931E-03   -0.20303E-03 47287   0.524E-02    0.279E-01
RMM:  18    -0.862702790292E+03    0.22097E-03   -0.36525E-04 36365   0.395E-02    0.196E-01
RMM:  19    -0.862702753885E+03    0.36407E-04   -0.20981E-04 44914   0.200E-02    0.178E-01
RMM:  20    -0.862702680709E+03    0.73176E-04   -0.11267E-04 37168   0.209E-02    0.136E-01
RMM:  21    -0.862702600811E+03    0.79898E-04   -0.16553E-04 39524   0.230E-02    0.461E-02
RMM:  22    -0.862702604286E+03   -0.34754E-05   -0.81754E-05 48341   0.106E-02    0.378E-02
RMM:  23    -0.862702600574E+03    0.37127E-05   -0.41291E-05 41667   0.978E-03    0.208E-02
RMM:  24    -0.862702599999E+03    0.57500E-06   -0.96215E-06 33371   0.468E-03
   2 F= -.86270260E+03 E0= -.86269753E+03  d E =-.145567E+01
       N       E                     dE             d eps       ncg     rms          rms(c)
DAV:   1    -0.862737085791E+03   -0.34485E-01   -0.21486E+01 33102   0.657E+00    0.178E+00
RMM:   2    -0.864183275251E+03   -0.14462E+01   -0.42310E+00 35451   0.469E+00    0.152E+01
RMM:   3    -0.862775459461E+03    0.14078E+01   -0.10162E+00 32832   0.310E+00    0.253E+00
RMM:   4    -0.862749605617E+03    0.25854E-01   -0.22227E-01 45737   0.582E-01    0.853E-01
RMM:   5    -0.862761324194E+03   -0.11719E-01   -0.91267E-02 42160   0.452E-01    0.161E+00
RMM:   6    -0.862749413159E+03    0.11911E-01   -0.35466E-02 36019   0.364E-01    0.621E-01
RMM:   7    -0.862752522288E+03   -0.31091E-02   -0.27722E-02 43964   0.234E-01    0.971E-01
RMM:   8    -0.862749418417E+03    0.31039E-02   -0.92556E-03 33292   0.216E-01    0.672E-01
RMM:   9    -0.862747359380E+03    0.20590E-02   -0.40942E-03 33844   0.149E-01    0.240E-01
RMM:  10    -0.862747772274E+03   -0.41289E-03   -0.38158E-03 43438   0.920E-02    0.365E-01
RMM:  11    -0.862747112764E+03    0.65951E-03   -0.98118E-04 34194   0.750E-02    0.873E-02
RMM:  12    -0.862747152609E+03   -0.39845E-04   -0.75819E-04 47455   0.299E-02    0.832E-02
RMM:  13    -0.862747168034E+03   -0.15425E-04   -0.20464E-04 39281   0.230E-02    0.963E-02
RMM:  14    -0.862747123899E+03    0.44134E-04   -0.81786E-05 34366   0.211E-02    0.318E-02
RMM:  15    -0.862747135220E+03   -0.11321E-04   -0.85223E-05 43597   0.135E-02    0.531E-02
RMM:  16    -0.862747123410E+03    0.11811E-04   -0.21724E-05 34780   0.106E-02    0.219E-02
RMM:  17    -0.862747123518E+03   -0.10792E-06   -0.14247E-05 36631   0.568E-03    0.202E-02
RMM:  18    -0.862747122649E+03    0.86835E-06   -0.49800E-06 28117   0.519E-03
   3 F= -.86274712E+03 E0= -.86274197E+03  d E =-.150019E+01
       N       E                     dE             d eps       ncg     rms          rms(c)
DAV:   1    -0.862808435408E+03   -0.61312E-01   -0.18054E+01 32832   0.610E+00    0.171E+00
RMM:   2    -0.864967606685E+03   -0.21592E+01   -0.46732E+00 37145   0.421E+00    0.199E+01
RMM:   3    -0.862835065213E+03    0.21325E+01   -0.11910E+00 32832   0.311E+00    0.237E+00
RMM:   4    -0.862809557157E+03    0.25508E-01   -0.47536E-01 44336   0.695E-01    0.971E-01
RMM:   5    -0.862822279963E+03   -0.12723E-01   -0.14806E-01 45687   0.396E-01    0.143E+00
RMM:   6    -0.862813958934E+03    0.83210E-02   -0.33250E-02 37220   0.314E-01    0.566E-01
RMM:   7    -0.862817228192E+03   -0.32693E-02   -0.27021E-02 44179   0.237E-01    0.991E-01
RMM:   8    -0.862812246298E+03    0.49819E-02   -0.68163E-03 33035   0.196E-01    0.444E-01
RMM:   9    -0.862811662416E+03    0.58388E-03   -0.44871E-03 34670   0.147E-01    0.298E-01
RMM:  10    -0.862812195963E+03   -0.53355E-03   -0.45379E-03 41102   0.112E-01    0.421E-01
RMM:  11    -0.862811285247E+03    0.91072E-03   -0.12165E-03 33539   0.874E-02    0.104E-01
RMM:  12    -0.862811333397E+03   -0.48150E-04   -0.85164E-04 47702   0.316E-02    0.116E-01
RMM:  13    -0.862811300791E+03    0.32605E-04   -0.17187E-04 38054   0.228E-02    0.785E-02
RMM:  14    -0.862811277241E+03    0.23551E-04   -0.74456E-05 37658   0.164E-02    0.387E-02
RMM:  15    -0.862811286416E+03   -0.91757E-05   -0.70198E-05 43009   0.133E-02    0.535E-02
RMM:  16    -0.862811274160E+03    0.12257E-04   -0.22915E-05 34389   0.112E-02    0.190E-02
RMM:  17    -0.862811276881E+03   -0.27217E-05   -0.23744E-05 42674   0.738E-03    0.273E-02
RMM:  18    -0.862811273782E+03    0.30994E-05   -0.53341E-06 28640   0.580E-03    0.992E-03
RMM:  19    -0.862811273707E+03    0.74782E-07   -0.16159E-06 19969   0.256E-03
   4 F= -.86281127E+03 E0= -.86280529E+03  d E =-.641511E-01
       N       E                     dE             d eps       ncg     rms          rms(c)
DAV:   1    -0.862823659134E+03   -0.12385E-01   -0.96583E+00 32832   0.446E+00    0.125E+00
RMM:   2    -0.863980952934E+03   -0.11573E+01   -0.25077E+00 37141   0.308E+00    0.146E+01
RMM:   3    -0.862838681023E+03    0.11423E+01   -0.63477E-01 32832   0.227E+00    0.173E+00
RMM:   4    -0.862824032600E+03    0.14648E-01   -0.25654E-01 44065   0.512E-01    0.705E-01
RMM:   5    -0.862831315811E+03   -0.72832E-02   -0.81775E-02 46534   0.289E-01    0.107E+00
RMM:   6    -0.862826485755E+03    0.48301E-02   -0.17914E-02 37251   0.229E-01    0.412E-01
RMM:   7    -0.862828320161E+03   -0.18344E-02   -0.14356E-02 44416   0.171E-01    0.739E-01
RMM:   8    -0.862825451920E+03    0.28682E-02   -0.34859E-03 32986   0.140E-01    0.286E-01
RMM:   9    -0.862825342697E+03    0.10922E-03   -0.26257E-03 34974   0.110E-01    0.245E-01
RMM:  10    -0.862825447566E+03   -0.10487E-03   -0.19974E-03 40021   0.768E-02    0.273E-01
RMM:  11    -0.862825068761E+03    0.37880E-03   -0.49771E-04 33904   0.543E-02    0.703E-02
RMM:  12    -0.862825091819E+03   -0.23058E-04   -0.39752E-04 46765   0.224E-02    0.820E-02
RMM:  13    -0.862825074668E+03    0.17150E-04   -0.78308E-05 37341   0.158E-02    0.556E-02
RMM:  14    -0.862825061956E+03    0.12712E-04   -0.34019E-05 36441   0.118E-02    0.255E-02
RMM:  15    -0.862825067546E+03   -0.55897E-05   -0.37130E-05 43275   0.957E-03    0.388E-02
RMM:  16    -0.862825061175E+03    0.63711E-05   -0.11935E-05 33077   0.807E-03    0.139E-02
RMM:  17    -0.862825062398E+03   -0.12234E-05   -0.97979E-06 33375   0.536E-03    0.191E-02
RMM:  18    -0.862825061072E+03    0.13260E-05   -0.22854E-06 20427   0.412E-03    0.920E-03
RMM:  19    -0.862825060844E+03    0.22827E-06   -0.10435E-06 18457   0.241E-03
   5 F= -.86282506E+03 E0= -.86281855E+03  d E =-.779382E-01
       N       E                     dE             d eps       ncg     rms          rms(c)
DAV:   1    -0.862829750151E+03   -0.46891E-02   -0.19372E+00 33678   0.199E+00    0.544E-01
RMM:   2    -0.863050118250E+03   -0.22037E+00   -0.46655E-01 37025   0.134E+00    0.641E+00
RMM:   3    -0.862833139939E+03    0.21698E+00   -0.11959E-01 32832   0.984E-01    0.758E-01
RMM:   4    -0.862829848652E+03    0.32913E-02   -0.48283E-02 43220   0.232E-01    0.294E-01
RMM:   5    -0.862831596797E+03   -0.17481E-02   -0.16102E-02 45759   0.140E-01    0.542E-01
RMM:   6    -0.862830347839E+03    0.12490E-02   -0.42715E-03 36933   0.115E-01    0.185E-01
RMM:   7    -0.862830708718E+03   -0.36088E-03   -0.30126E-03 45401   0.741E-02    0.323E-01
RMM:   8    -0.862830195727E+03    0.51299E-03   -0.64237E-04 33319   0.587E-02    0.147E-01
RMM:   9    -0.862830125080E+03    0.70646E-04   -0.48546E-04 34358   0.495E-02    0.980E-02
RMM:  10    -0.862830180432E+03   -0.55352E-04   -0.44289E-04 40060   0.358E-02    0.136E-01
RMM:  11    -0.862830086408E+03    0.94024E-04   -0.12183E-04 33293   0.272E-02    0.317E-02
RMM:  12    -0.862830091168E+03   -0.47596E-05   -0.91547E-05 46629   0.111E-02    0.357E-02
RMM:  13    -0.862830089252E+03    0.19157E-05   -0.19730E-05 35932   0.746E-03    0.284E-02
RMM:  14    -0.862830085792E+03    0.34602E-05   -0.71408E-06 28799   0.554E-03    0.118E-02
RMM:  15    -0.862830086283E+03   -0.49095E-06   -0.40609E-06 25002   0.397E-03
   6 F= -.86283009E+03 E0= -.86282365E+03  d E =-.502544E-02
       N       E                     dE             d eps       ncg     rms          rms(c)
DAV:   1    -0.862830523127E+03   -0.43734E-03   -0.35656E-01 34038   0.854E-01    0.237E-01
RMM:   2    -0.862872119041E+03   -0.41596E-01   -0.89619E-02 37087   0.583E-01    0.277E+00
RMM:   3    -0.862831125457E+03    0.40994E-01   -0.22673E-02 32832   0.428E-01    0.331E-01
RMM:   4    -0.862830526507E+03    0.59895E-03   -0.92072E-03 43313   0.100E-01    0.128E-01
RMM:   5    -0.862830853603E+03   -0.32710E-03   -0.30749E-03 45967   0.606E-02    0.232E-01
RMM:   6    -0.862830626396E+03    0.22721E-03   -0.79063E-04 37055   0.488E-02    0.815E-02
RMM:   7    -0.862830688586E+03   -0.62190E-04   -0.55612E-04 45577   0.317E-02    0.136E-01
RMM:   8    -0.862830596140E+03    0.92446E-04   -0.11958E-04 33331   0.253E-02    0.625E-02
RMM:   9    -0.862830584234E+03    0.11906E-04   -0.89849E-05 34349   0.213E-02    0.433E-02
RMM:  10    -0.862830595335E+03   -0.11101E-04   -0.82594E-05 39525   0.158E-02    0.605E-02
RMM:  11    -0.862830576584E+03    0.18751E-04   -0.23177E-05 32949   0.120E-02    0.135E-02
RMM:  12    -0.862830577229E+03   -0.64525E-06   -0.15241E-05 36312   0.477E-03    0.143E-02
RMM:  13    -0.862830577046E+03    0.18367E-06   -0.25976E-06 22331   0.361E-03
   7 F= -.86283058E+03 E0= -.86282417E+03  d E =-.551620E-02
       N       E                     dE             d eps       ncg     rms          rms(c)
DAV:   1    -0.862830727703E+03   -0.15047E-03   -0.89411E-02 33786   0.426E-01    0.926E-02
RMM:   2    -0.862835379695E+03   -0.46520E-02   -0.12446E-02 36573   0.238E-01    0.913E-01
RMM:   3    -0.862830894159E+03    0.44855E-02   -0.31132E-03 32836   0.163E-01    0.140E-01
RMM:   4    -0.862830803191E+03    0.90968E-04   -0.95473E-04 44979   0.357E-02    0.550E-02
RMM:   5    -0.862830844293E+03   -0.41101E-04   -0.36108E-04 43418   0.255E-02    0.953E-02
RMM:   6    -0.862830799955E+03    0.44338E-04   -0.13614E-04 36470   0.216E-02    0.311E-02
RMM:   7    -0.862830821864E+03   -0.21910E-04   -0.12003E-04 40934   0.178E-02    0.723E-02
RMM:   8    -0.862830798521E+03    0.23343E-04   -0.30872E-05 33137   0.130E-02    0.361E-02
RMM:   9    -0.862830792666E+03    0.58543E-05   -0.19253E-05 35984   0.871E-03    0.137E-02
RMM:  10    -0.862830795089E+03   -0.24222E-05   -0.15056E-05 37267   0.654E-03    0.244E-02
RMM:  11    -0.862830792016E+03    0.30728E-05   -0.40266E-06 24254   0.535E-03    0.489E-03
RMM:  12    -0.862830792015E+03    0.62573E-09   -0.14058E-06 18871   0.205E-03
   8 F= -.86283079E+03 E0= -.86282440E+03  d E =-.214969E-03
       N       E                     dE             d eps       ncg     rms          rms(c)
DAV:   1    -0.862830794444E+03   -0.24284E-05   -0.74484E-03 34542   0.123E-01    0.283E-02
RMM:   2    -0.862831223199E+03   -0.42875E-03   -0.11440E-03 36524   0.720E-02    0.277E-01
RMM:   3    -0.862830808589E+03    0.41461E-03   -0.29319E-04 32836   0.501E-02    0.434E-02
RMM:   4    -0.862830800007E+03    0.85819E-05   -0.89993E-05 44861   0.110E-02    0.159E-02
RMM:   5    -0.862830803744E+03   -0.37374E-05   -0.32691E-05 41706   0.753E-03    0.281E-02
RMM:   6    -0.862830799778E+03    0.39666E-05   -0.11555E-05 30882   0.634E-03    0.909E-03
RMM:   7    -0.862830801288E+03   -0.15102E-05   -0.77473E-06 30236   0.523E-03    0.197E-02
RMM:   8    -0.862830799547E+03    0.17409E-05   -0.24350E-06 19963   0.431E-03    0.106E-02
RMM:   9    -0.862830799003E+03    0.54425E-06   -0.11961E-06 17743   0.302E-03
   9 F= -.86283080E+03 E0= -.86282442E+03  d E =-.221957E-03
       N       E                     dE             d eps       ncg     rms          rms(c)
DAV:   1    -0.862830835173E+03   -0.35626E-04   -0.30544E-02 33426   0.248E-01    0.362E-02
RMM:   2    -0.862831422395E+03   -0.58722E-03   -0.16159E-03 35038   0.971E-02    0.317E-01
RMM:   3    -0.862830889408E+03    0.53299E-03   -0.34839E-04 32846   0.561E-02    0.577E-02
RMM:   4    -0.862830869763E+03    0.19644E-04   -0.10038E-04 44020   0.146E-02    0.216E-02
RMM:   5    -0.862830874680E+03   -0.49165E-05   -0.50037E-05 43007   0.108E-02    0.416E-02
RMM:   6    -0.862830864189E+03    0.10491E-04   -0.18203E-05 34707   0.915E-03    0.144E-02
RMM:   7    -0.862830871341E+03   -0.71522E-05   -0.34117E-05 39503   0.998E-03    0.400E-02
RMM:   8    -0.862830864437E+03    0.69041E-05   -0.96858E-06 30501   0.748E-03    0.200E-02
RMM:   9    -0.862830862320E+03    0.21171E-05   -0.32990E-06 22545   0.467E-03    0.586E-03
RMM:  10    -0.862830862442E+03   -0.12149E-06   -0.16144E-06 18603   0.245E-03
  10 F= -.86283086E+03 E0= -.86282448E+03  d E =-.634389E-04
