<?xml version="1.0" encoding="ISO-8859-1"?>
<modeling>
 <generator>
  <i name="program" type="string">vasp </i>
  <i name="version" type="string">5.4.1  </i>
  <i name="subversion" type="string">24Jun15 (build Jun 21 2019 17:19:10) complex                          parallel </i>
  <i name="platform" type="string">IFC91_ompi </i>
  <i name="date" type="string">2019 08 27 </i>
  <i name="time" type="string">06:03:16 </i>
 </generator>
 <incar>
  <i type="string" name="SYSTEM">Opt</i>
  <i type="int" name="ISTART">     0</i>
  <i type="string" name="PREC">normal</i>
  <i type="string" name="ALGO"> Fast</i>
  <i type="int" name="ISPIN">     1</i>
  <i type="int" name="ICHARG">     2</i>
  <i type="int" name="NELM">   400</i>
  <i type="int" name="IBRION">     2</i>
  <i name="EDIFF">      0.00000100</i>
  <i name="EDIFFG">     -0.01000000</i>
  <i type="int" name="NSW">   100</i>
  <i type="int" name="ISIF">     2</i>
  <i type="int" name="ISYM">     0</i>
  <i name="ENCUT">    400.00000000</i>
  <i type="int" name="NGX">    72</i>
  <i type="int" name="NGY">    72</i>
  <i type="int" name="NGZ">    72</i>
  <i name="POTIM">      0.50000000</i>
  <i type="string" name="LREAL">Auto</i>
  <i type="logical" name="LWAVE"> F  </i>
  <i type="logical" name="LCHARG"> F  </i>
  <v type="int" name="KPOINT_BSE">    -1     0     0     0</v>
  <i type="int" name="NELM">   400</i>
 </incar>
 <kpoints>
  <generation param="Monkhorst-Pack">
   <v type="int" name="divisions">       4        4        4 </v>
   <v name="usershift">      0.00000000       0.00000000       0.00000000 </v>
   <v name="genvec1">      0.25000000       0.00000000       0.00000000 </v>
   <v name="genvec2">      0.00000000       0.25000000       0.00000000 </v>
   <v name="genvec3">      0.00000000       0.00000000       0.25000000 </v>
   <v name="shift">      0.50000000       0.50000000       0.50000000 </v>
  </generation>
  <varray name="kpointlist" >
   <v>       0.12500000       0.12500000       0.12500000 </v>
   <v>       0.37500000       0.12500000       0.12500000 </v>
   <v>      -0.37500000       0.12500000       0.12500000 </v>
   <v>      -0.12500000       0.12500000       0.12500000 </v>
   <v>       0.12500000       0.37500000       0.12500000 </v>
   <v>       0.37500000       0.37500000       0.12500000 </v>
   <v>      -0.37500000       0.37500000       0.12500000 </v>
   <v>      -0.12500000       0.37500000       0.12500000 </v>
   <v>       0.12500000      -0.37500000       0.12500000 </v>
   <v>       0.37500000      -0.37500000       0.12500000 </v>
   <v>      -0.37500000      -0.37500000       0.12500000 </v>
   <v>      -0.12500000      -0.37500000       0.12500000 </v>
   <v>       0.12500000      -0.12500000       0.12500000 </v>
   <v>       0.37500000      -0.12500000       0.12500000 </v>
   <v>      -0.37500000      -0.12500000       0.12500000 </v>
   <v>      -0.12500000      -0.12500000       0.12500000 </v>
   <v>       0.12500000       0.12500000       0.37500000 </v>
   <v>       0.37500000       0.12500000       0.37500000 </v>
   <v>      -0.37500000       0.12500000       0.37500000 </v>
   <v>      -0.12500000       0.12500000       0.37500000 </v>
   <v>       0.12500000       0.37500000       0.37500000 </v>
   <v>       0.37500000       0.37500000       0.37500000 </v>
   <v>      -0.37500000       0.37500000       0.37500000 </v>
   <v>      -0.12500000       0.37500000       0.37500000 </v>
   <v>       0.12500000      -0.37500000       0.37500000 </v>
   <v>       0.37500000      -0.37500000       0.37500000 </v>
   <v>      -0.37500000      -0.37500000       0.37500000 </v>
   <v>      -0.12500000      -0.37500000       0.37500000 </v>
   <v>       0.12500000      -0.12500000       0.37500000 </v>
   <v>       0.37500000      -0.12500000       0.37500000 </v>
   <v>      -0.37500000      -0.12500000       0.37500000 </v>
   <v>      -0.12500000      -0.12500000       0.37500000 </v>
  </varray>
  <varray name="weights" >
   <v>       0.03125000 </v>
   <v>       0.03125000 </v>
   <v>       0.03125000 </v>
   <v>       0.03125000 </v>
   <v>       0.03125000 </v>
   <v>       0.03125000 </v>
   <v>       0.03125000 </v>
   <v>       0.03125000 </v>
   <v>       0.03125000 </v>
   <v>       0.03125000 </v>
   <v>       0.03125000 </v>
   <v>       0.03125000 </v>
   <v>       0.03125000 </v>
   <v>       0.03125000 </v>
   <v>       0.03125000 </v>
   <v>       0.03125000 </v>
   <v>       0.03125000 </v>
   <v>       0.03125000 </v>
   <v>       0.03125000 </v>
   <v>       0.03125000 </v>
   <v>       0.03125000 </v>
   <v>       0.03125000 </v>
   <v>       0.03125000 </v>
   <v>       0.03125000 </v>
   <v>       0.03125000 </v>
   <v>       0.03125000 </v>
   <v>       0.03125000 </v>
   <v>       0.03125000 </v>
   <v>       0.03125000 </v>
   <v>       0.03125000 </v>
   <v>       0.03125000 </v>
   <v>       0.03125000 </v>
  </varray>
 </kpoints>
 <parameters>
  <separator name="general" >
   <i type="string" name="SYSTEM">Opt</i>
   <i type="logical" name="LCOMPAT"> F  </i>
  </separator>
  <separator name="electronic" >
   <i type="string" name="PREC">normal</i>
   <i name="ENMAX">    400.00000000</i>
   <i name="ENAUG">    511.36800000</i>
   <i name="EDIFF">      0.00000100</i>
   <i type="int" name="IALGO">    68</i>
   <i type="int" name="IWAVPR">    11</i>
   <i type="int" name="NBANDS">   513</i>
   <i name="NELECT">    854.00000000</i>
   <i type="int" name="TURBO">     0</i>
   <i type="int" name="IRESTART">     0</i>
   <i type="int" name="NREBOOT">     0</i>
   <i type="int" name="NMIN">     0</i>
   <i name="EREF">      0.00000000</i>
   <separator name="electronic smearing" >
    <i type="int" name="ISMEAR">     1</i>
    <i name="SIGMA">      0.20000000</i>
    <i name="KSPACING">      0.50000000</i>
    <i type="logical" name="KGAMMA"> T  </i>
   </separator>
   <separator name="electronic projectors" >
    <i type="logical" name="LREAL"> T  </i>
    <v name="ROPT">     -0.00050000     -0.00050000</v>
    <i type="int" name="LMAXPAW">  -100</i>
    <i type="int" name="LMAXMIX">     2</i>
    <i type="logical" name="NLSPLINE"> F  </i>
   </separator>
   <separator name="electronic startup" >
    <i type="int" name="ISTART">     0</i>
    <i type="int" name="ICHARG">     2</i>
    <i type="int" name="INIWAV">     1</i>
   </separator>
   <separator name="electronic spin" >
    <i type="int" name="ISPIN">     1</i>
    <i type="logical" name="LNONCOLLINEAR"> F  </i>
    <v name="MAGMOM">      1.00000000      1.00000000      1.00000000      1.00000000      1.00000000      1.00000000      1.00000000      1.00000000      1.00000000      1.00000000      1.00000000      1.00000000      1.00000000      1.00000000      1.00000000      1.00000000      1.00000000      1.00000000      1.00000000      1.00000000
      1.00000000      1.00000000      1.00000000      1.00000000      1.00000000      1.00000000      1.00000000      1.00000000      1.00000000      1.00000000      1.00000000      1.00000000      1.00000000      1.00000000      1.00000000      1.00000000      1.00000000      1.00000000      1.00000000      1.00000000
      1.00000000      1.00000000      1.00000000      1.00000000      1.00000000      1.00000000      1.00000000      1.00000000      1.00000000      1.00000000      1.00000000      1.00000000      1.00000000      1.00000000      1.00000000      1.00000000      1.00000000      1.00000000      1.00000000      1.00000000
      1.00000000      1.00000000      1.00000000      1.00000000      1.00000000      1.00000000      1.00000000      1.00000000      1.00000000      1.00000000      1.00000000      1.00000000      1.00000000      1.00000000      1.00000000      1.00000000      1.00000000      1.00000000      1.00000000      1.00000000
      1.00000000      1.00000000      1.00000000      1.00000000      1.00000000      1.00000000      1.00000000      1.00000000      1.00000000      1.00000000      1.00000000      1.00000000      1.00000000      1.00000000      1.00000000      1.00000000      1.00000000      1.00000000      1.00000000      1.00000000
      1.00000000      1.00000000      1.00000000      1.00000000      1.00000000      1.00000000      1.00000000</v>
    <i name="NUPDOWN">     -1.00000000</i>
    <i type="logical" name="LSORBIT"> F  </i>
    <v name="SAXIS">      0.00000000      0.00000000      1.00000000</v>
    <i type="logical" name="LSPIRAL"> F  </i>
    <v name="QSPIRAL">      0.00000000      0.00000000      0.00000000</v>
    <i type="logical" name="LZEROZ"> F  </i>
   </separator>
   <separator name="electronic exchange-correlation" >
    <i type="logical" name="LASPH"> F  </i>
    <i type="logical" name="LMETAGGA"> F  </i>
   </separator>
   <separator name="electronic convergence" >
    <i type="int" name="NELM">   400</i>
    <i type="int" name="NELMDL">    -5</i>
    <i type="int" name="NELMIN">     2</i>
    <i name="ENINI">    400.00000000</i>
    <separator name="electronic convergence detail" >
     <i type="logical" name="LDIAG"> T  </i>
     <i type="logical" name="LSUBROT"> F  </i>
     <i name="WEIMIN">      0.00100000</i>
     <i name="EBREAK">      0.00000000</i>
     <i name="DEPER">      0.30000000</i>
     <i type="int" name="NRMM">     4</i>
     <i name="TIME">      0.40000000</i>
    </separator>
   </separator>
   <separator name="electronic mixer" >
    <i name="AMIX">      0.40000000</i>
    <i name="BMIX">      1.00000000</i>
    <i name="AMIN">      0.10000000</i>
    <i name="AMIX_MAG">      1.60000000</i>
    <i name="BMIX_MAG">      1.00000000</i>
    <separator name="electronic mixer details" >
     <i type="int" name="IMIX">     4</i>
     <i type="logical" name="MIXFIRST"> F  </i>
     <i type="int" name="MAXMIX">   -45</i>
     <i name="WC">    100.00000000</i>
     <i type="int" name="INIMIX">     1</i>
     <i type="int" name="MIXPRE">     1</i>
     <i type="int" name="MREMOVE">     5</i>
    </separator>
   </separator>
   <separator name="electronic dipolcorrection" >
    <i type="logical" name="LDIPOL"> F  </i>
    <i type="logical" name="LMONO"> F  </i>
    <i type="int" name="IDIPOL">     0</i>
    <i name="EPSILON">      1.00000000</i>
    <v name="DIPOL">   -100.00000000   -100.00000000   -100.00000000</v>
    <i name="EFIELD">      0.00000000</i>
   </separator>
  </separator>
  <separator name="grids" >
   <i type="int" name="NGX">    72</i>
   <i type="int" name="NGY">    72</i>
   <i type="int" name="NGZ">    72</i>
   <i type="int" name="NGXF">   144</i>
   <i type="int" name="NGYF">   144</i>
   <i type="int" name="NGZF">   144</i>
   <i type="logical" name="ADDGRID"> F  </i>
  </separator>
  <separator name="ionic" >
   <i type="int" name="NSW">   100</i>
   <i type="int" name="IBRION">     2</i>
   <i type="int" name="ISIF">     2</i>
   <i name="PSTRESS">      0.00000000</i>
   <i name="EDIFFG">     -0.01000000</i>
   <i type="int" name="NFREE">     1</i>
   <i name="POTIM">      0.50000000</i>
   <i name="SMASS">     -3.00000000</i>
   <i name="SCALEE">      1.00000000</i>
  </separator>
  <separator name="ionic md" >
   <i name="TEBEG">      0.00010000</i>
   <i name="TEEND">      0.00010000</i>
   <i type="int" name="NBLOCK">     1</i>
   <i type="int" name="KBLOCK">   100</i>
   <i type="int" name="NPACO">   256</i>
   <i name="APACO">     16.00000000</i>
  </separator>
  <separator name="symmetry" >
   <i type="int" name="ISYM">     0</i>
   <i name="SYMPREC">      0.00001000</i>
  </separator>
  <separator name="dos" >
   <i type="logical" name="LORBIT"> F  </i>
   <v name="RWIGS">     -1.00000000     -1.00000000</v>
   <i type="int" name="NEDOS">   301</i>
   <i name="EMIN">     10.00000000</i>
   <i name="EMAX">    -10.00000000</i>
   <i name="EFERMI">      0.00000000</i>
  </separator>
  <separator name="writing" >
   <i type="int" name="NWRITE">     2</i>
   <i type="logical" name="LWAVE"> F  </i>
   <i type="logical" name="LCHARG"> F  </i>
   <i type="logical" name="LPARD"> F  </i>
   <i type="logical" name="LVTOT"> F  </i>
   <i type="logical" name="LVHAR"> F  </i>
   <i type="logical" name="LELF"> F  </i>
   <i type="logical" name="LOPTICS"> F  </i>
   <v name="STM">      0.00000000      0.00000000      0.00000000      0.00000000      0.00000000      0.00000000      0.00000000</v>
  </separator>
  <separator name="performance" >
   <i type="int" name="NPAR">     3</i>
   <i type="int" name="NSIM">     4</i>
   <i type="int" name="NBLK">    -1</i>
   <i type="logical" name="LPLANE"> T  </i>
   <i type="logical" name="LSCALAPACK"> T  </i>
   <i type="logical" name="LSCAAWARE"> F  </i>
   <i type="logical" name="LSCALU"> F  </i>
   <i type="logical" name="LASYNC"> F  </i>
   <i type="logical" name="LORBITALREAL"> F  </i>
  </separator>
  <separator name="miscellaneous" >
   <i type="int" name="IDIOT">     3</i>
   <i type="logical" name="LMUSIC"> F  </i>
   <v name="POMASS">     55.84700000    127.60000000</v>
   <v name="DARWINR">      0.00000000      0.00000000</v>
   <v name="DARWINV">      1.00000000      1.00000000</v>
   <i type="logical" name="LCORR"> T  </i>
  </separator>
  <i type="logical" name="GGA_COMPAT"> T  </i>
  <i type="logical" name="LBERRY"> F  </i>
  <i type="int" name="ICORELEVEL">     0</i>
  <i type="logical" name="LDAU"> F  </i>
  <i type="int" name="I_CONSTRAINED_M">     0</i>
  <separator name="electronic exchange-correlation" >
   <i type="string" name="GGA">--</i>
   <i type="int" name="VOSKOWN">     0</i>
   <i type="logical" name="LHFCALC"> F  </i>
   <i type="string" name="PRECFOCK"></i>
   <i type="logical" name="LSYMGRAD"> F  </i>
   <i type="logical" name="LHFONE"> F  </i>
   <i type="logical" name="LRHFCALC"> F  </i>
   <i type="logical" name="LTHOMAS"> F  </i>
   <i type="logical" name="LMODELHF"> F  </i>
   <i name="ENCUT4O">     -1.00000000</i>
   <i type="int" name="EXXOEP">     0</i>
   <i type="int" name="FOURORBIT">     0</i>
   <i name="AEXX">      0.00000000</i>
   <i name="HFALPHA">      0.00000000</i>
   <i name="MCALPHA">      0.00000000</i>
   <i name="ALDAX">      1.00000000</i>
   <i name="AGGAX">      1.00000000</i>
   <i name="ALDAC">      1.00000000</i>
   <i name="AGGAC">      1.00000000</i>
   <i type="int" name="NKREDX">     1</i>
   <i type="int" name="NKREDY">     1</i>
   <i type="int" name="NKREDZ">     1</i>
   <i type="logical" name="SHIFTRED"> F  </i>
   <i type="logical" name="ODDONLY"> F  </i>
   <i type="logical" name="EVENONLY"> F  </i>
   <i type="int" name="LMAXFOCK">     0</i>
   <i type="int" name="NMAXFOCKAE">     0</i>
   <i type="logical" name="LFOCKAEDFT"> F  </i>
   <i name="HFSCREEN">      0.00000000</i>
   <i name="HFSCREENC">      0.00000000</i>
   <i type="int" name="NBANDSGWLOW">     0</i>
  </separator>
  <separator name="vdW DFT" >
   <i type="logical" name="LUSE_VDW"> F  </i>
   <i name="Zab_VDW">     -0.84910000</i>
   <i name="PARAM1">      0.12340000</i>
   <i name="PARAM2">      1.00000000</i>
   <i name="PARAM3">      0.00000000</i>
  </separator>
  <separator name="model GW" >
   <i type="int" name="MODEL_GW">     0</i>
   <i name="MODEL_EPS0">      6.18984300</i>
   <i name="MODEL_ALPHA">      1.00000000</i>
  </separator>
  <separator name="linear response parameters" >
   <i type="logical" name="LEPSILON"> F  </i>
   <i type="logical" name="LRPA"> F  </i>
   <i type="logical" name="LNABLA"> F  </i>
   <i type="logical" name="LVEL"> F  </i>
   <i type="int" name="KINTER">     0</i>
   <i name="CSHIFT">      0.10000000</i>
   <i name="OMEGAMAX">     -1.00000000</i>
   <i name="DEG_THRESHOLD">      0.00200000</i>
  </separator>
  <separator name="orbital magnetization" >
   <i type="logical" name="NUCIND"> F  </i>
   <v name="MAGPOS">      0.00000000      0.00000000      0.00000000</v>
   <i type="logical" name="LNICSALL"> T  </i>
   <i type="logical" name="ORBITALMAG"> F  </i>
   <i type="logical" name="LMAGBLOCH"> F  </i>
   <i type="logical" name="LCHIMAG"> F  </i>
   <i type="logical" name="LGAUGE"> T  </i>
   <i type="int" name="MAGATOM">     0</i>
   <v name="MAGDIPOL">      0.00000000      0.00000000      0.00000000</v>
   <v name="AVECCONST">      0.00000000      0.00000000      0.00000000</v>
  </separator>
  <separator name="response functions" >
   <i type="logical" name="LADDER"> F  </i>
   <i type="logical" name="LFXC"> F  </i>
   <i type="logical" name="LHARTREE"> T  </i>
   <i type="int" name="IBSE">     0</i>
   <v type="int" name="KPOINT">    -1     0     0     0</v>
   <i type="logical" name="LTCTE"> F  </i>
   <i type="logical" name="LTETE"> F  </i>
   <i type="logical" name="LTRIPLET"> F  </i>
   <i type="logical" name="LFXCEPS"> F  </i>
   <i type="logical" name="LFXHEG"> F  </i>
   <i type="int" name="NATURALO">     0</i>
   <i type="logical" name="L2ORDER"> F  </i>
   <i type="logical" name="LUSEW"> F  </i>
   <i name="ENCUTGW">     -2.00000000</i>
   <i name="ENCUTGWSOFT">     -2.00000000</i>
   <i name="ENCUTLF">     -1.00000000</i>
   <i type="int" name="LMAXMP2">    -1</i>
   <i name="SCISSOR">      0.00000000</i>
   <i type="int" name="NOMEGA">     0</i>
   <i type="int" name="NOMEGAR">     0</i>
   <i type="int" name="NBANDSGW">    -1</i>
   <i type="int" name="NBANDSO">    -1</i>
   <i type="int" name="NBANDSV">    -1</i>
   <i type="int" name="NELM">   400</i>
   <i type="int" name="NELMHF">     1</i>
   <i type="int" name="DIM">     3</i>
   <i type="int" name="ANTIRES">     0</i>
   <i name="OMEGAMAX">    -30.00000000</i>
   <i name="OMEGAMIN">    -30.00000000</i>
   <i name="OMEGATL">   -200.00000000</i>
   <i type="int" name="OMEGAGRID">     0</i>
   <i name="CSHIFT">     -0.10000000</i>
   <i type="logical" name="SELFENERGY"> F  </i>
   <i type="logical" name="LSPECTRAL"> F  </i>
   <i type="logical" name="LSPECTRALGW"> F  </i>
   <i type="logical" name="LSINGLES"> F  </i>
   <i type="logical" name="LFERMIGW"> F  </i>
   <i type="logical" name="ODDONLYGW"> F  </i>
   <i type="logical" name="EVENONLYGW"> F  </i>
   <i type="int" name="NKREDLFX">     1</i>
   <i type="int" name="NKREDLFY">     1</i>
   <i type="int" name="NKREDLFZ">     1</i>
   <i type="int" name="MAXMEM">  1800</i>
   <i type="int" name="TELESCOPE">     0</i>
   <i type="int" name="TAUPAR">     1</i>
   <i type="int" name="OMEGAPAR">    -1</i>
   <i name="LAMBDA">      1.00000000</i>
  </separator>
  <separator name="External order field" >
   <i name="OFIELD_KAPPA">      0.00000000</i>
   <v name="OFIELD_K">      0.00000000      0.00000000      0.00000000</v>
   <i name="OFIELD_Q6_NEAR">      0.00000000</i>
   <i name="OFIELD_Q6_FAR">      0.00000000</i>
   <i name="OFIELD_A">      0.00000000</i>
  </separator>
 </parameters>
 <atominfo>
  <atoms>     107 </atoms>
  <types>       2 </types>
  <array name="atoms" >
   <dimension dim="1">ion</dimension>
   <field type="string">element</field>
   <field type="int">atomtype</field>
   <set>
    <rc><c>Fe</c><c>   1</c></rc>
    <rc><c>Fe</c><c>   1</c></rc>
    <rc><c>Fe</c><c>   1</c></rc>
    <rc><c>Fe</c><c>   1</c></rc>
    <rc><c>Fe</c><c>   1</c></rc>
    <rc><c>Fe</c><c>   1</c></rc>
    <rc><c>Fe</c><c>   1</c></rc>
    <rc><c>Fe</c><c>   1</c></rc>
    <rc><c>Fe</c><c>   1</c></rc>
    <rc><c>Fe</c><c>   1</c></rc>
    <rc><c>Fe</c><c>   1</c></rc>
    <rc><c>Fe</c><c>   1</c></rc>
    <rc><c>Fe</c><c>   1</c></rc>
    <rc><c>Fe</c><c>   1</c></rc>
    <rc><c>Fe</c><c>   1</c></rc>
    <rc><c>Fe</c><c>   1</c></rc>
    <rc><c>Fe</c><c>   1</c></rc>
    <rc><c>Fe</c><c>   1</c></rc>
    <rc><c>Fe</c><c>   1</c></rc>
    <rc><c>Fe</c><c>   1</c></rc>
    <rc><c>Fe</c><c>   1</c></rc>
    <rc><c>Fe</c><c>   1</c></rc>
    <rc><c>Fe</c><c>   1</c></rc>
    <rc><c>Fe</c><c>   1</c></rc>
    <rc><c>Fe</c><c>   1</c></rc>
    <rc><c>Fe</c><c>   1</c></rc>
    <rc><c>Fe</c><c>   1</c></rc>
    <rc><c>Fe</c><c>   1</c></rc>
    <rc><c>Fe</c><c>   1</c></rc>
    <rc><c>Fe</c><c>   1</c></rc>
    <rc><c>Fe</c><c>   1</c></rc>
    <rc><c>Fe</c><c>   1</c></rc>
    <rc><c>Fe</c><c>   1</c></rc>
    <rc><c>Fe</c><c>   1</c></rc>
    <rc><c>Fe</c><c>   1</c></rc>
    <rc><c>Fe</c><c>   1</c></rc>
    <rc><c>Fe</c><c>   1</c></rc>
    <rc><c>Fe</c><c>   1</c></rc>
    <rc><c>Fe</c><c>   1</c></rc>
    <rc><c>Fe</c><c>   1</c></rc>
    <rc><c>Fe</c><c>   1</c></rc>
    <rc><c>Fe</c><c>   1</c></rc>
    <rc><c>Fe</c><c>   1</c></rc>
    <rc><c>Fe</c><c>   1</c></rc>
    <rc><c>Fe</c><c>   1</c></rc>
    <rc><c>Fe</c><c>   1</c></rc>
    <rc><c>Fe</c><c>   1</c></rc>
    <rc><c>Fe</c><c>   1</c></rc>
    <rc><c>Fe</c><c>   1</c></rc>
    <rc><c>Fe</c><c>   1</c></rc>
    <rc><c>Fe</c><c>   1</c></rc>
    <rc><c>Fe</c><c>   1</c></rc>
    <rc><c>Fe</c><c>   1</c></rc>
    <rc><c>Fe</c><c>   1</c></rc>
    <rc><c>Fe</c><c>   1</c></rc>
    <rc><c>Fe</c><c>   1</c></rc>
    <rc><c>Fe</c><c>   1</c></rc>
    <rc><c>Fe</c><c>   1</c></rc>
    <rc><c>Fe</c><c>   1</c></rc>
    <rc><c>Fe</c><c>   1</c></rc>
    <rc><c>Fe</c><c>   1</c></rc>
    <rc><c>Fe</c><c>   1</c></rc>
    <rc><c>Fe</c><c>   1</c></rc>
    <rc><c>Fe</c><c>   1</c></rc>
    <rc><c>Fe</c><c>   1</c></rc>
    <rc><c>Fe</c><c>   1</c></rc>
    <rc><c>Fe</c><c>   1</c></rc>
    <rc><c>Fe</c><c>   1</c></rc>
    <rc><c>Fe</c><c>   1</c></rc>
    <rc><c>Fe</c><c>   1</c></rc>
    <rc><c>Fe</c><c>   1</c></rc>
    <rc><c>Fe</c><c>   1</c></rc>
    <rc><c>Fe</c><c>   1</c></rc>
    <rc><c>Fe</c><c>   1</c></rc>
    <rc><c>Fe</c><c>   1</c></rc>
    <rc><c>Fe</c><c>   1</c></rc>
    <rc><c>Fe</c><c>   1</c></rc>
    <rc><c>Fe</c><c>   1</c></rc>
    <rc><c>Fe</c><c>   1</c></rc>
    <rc><c>Fe</c><c>   1</c></rc>
    <rc><c>Fe</c><c>   1</c></rc>
    <rc><c>Fe</c><c>   1</c></rc>
    <rc><c>Fe</c><c>   1</c></rc>
    <rc><c>Fe</c><c>   1</c></rc>
    <rc><c>Fe</c><c>   1</c></rc>
    <rc><c>Fe</c><c>   1</c></rc>
    <rc><c>Fe</c><c>   1</c></rc>
    <rc><c>Fe</c><c>   1</c></rc>
    <rc><c>Fe</c><c>   1</c></rc>
    <rc><c>Fe</c><c>   1</c></rc>
    <rc><c>Fe</c><c>   1</c></rc>
    <rc><c>Fe</c><c>   1</c></rc>
    <rc><c>Fe</c><c>   1</c></rc>
    <rc><c>Fe</c><c>   1</c></rc>
    <rc><c>Fe</c><c>   1</c></rc>
    <rc><c>Fe</c><c>   1</c></rc>
    <rc><c>Fe</c><c>   1</c></rc>
    <rc><c>Fe</c><c>   1</c></rc>
    <rc><c>Fe</c><c>   1</c></rc>
    <rc><c>Fe</c><c>   1</c></rc>
    <rc><c>Fe</c><c>   1</c></rc>
    <rc><c>Fe</c><c>   1</c></rc>
    <rc><c>Fe</c><c>   1</c></rc>
    <rc><c>Fe</c><c>   1</c></rc>
    <rc><c>Fe</c><c>   1</c></rc>
    <rc><c>Fe</c><c>   1</c></rc>
    <rc><c>Te</c><c>   2</c></rc>
   </set>
  </array>
  <array name="atomtypes" >
   <dimension dim="1">type</dimension>
   <field type="int">atomspertype</field>
   <field type="string">element</field>
   <field>mass</field>
   <field>valence</field>
   <field type="string">pseudopotential</field>
   <set>
    <rc><c> 106</c><c>Fe</c><c>     55.84700000</c><c>      8.00000000</c><c> PAW_PBE Fe 06Sep2000                   </c></rc>
    <rc><c>   1</c><c>Te</c><c>    127.60000000</c><c>      6.00000000</c><c> PAW_PBE Te 08Apr2002                   </c></rc>
   </set>
  </array>
 </atominfo>
 <structure name="initialpos" >
  <crystal>
   <varray name="basis" >
    <v>      10.33484705       0.00000000       0.00000000 </v>
    <v>       0.00000000      10.33484705       0.00000000 </v>
    <v>       0.00000000       0.00000000      10.33484705 </v>
   </varray>
   <i name="volume">   1103.85533447 </i>
   <varray name="rec_basis" >
    <v>       0.09676002       0.00000000       0.00000000 </v>
    <v>       0.00000000       0.09676002       0.00000000 </v>
    <v>       0.00000000       0.00000000       0.09676002 </v>
   </varray>
  </crystal>
  <varray name="positions" >
   <v>       0.00000000       0.00000000       0.00000000 </v>
   <v>       0.00000000       0.16666893       0.16666893 </v>
   <v>       0.00000000       0.33333106       0.00000000 </v>
   <v>       0.00000000       0.50000000       0.16666894 </v>
   <v>       0.00000000       0.66666897       0.00000000 </v>
   <v>       0.00000000       0.83333104       0.16666893 </v>
   <v>       0.00000000       0.00000000       0.33333106 </v>
   <v>       0.00000000       0.16666894       0.50000000 </v>
   <v>       0.00000000       0.33333107       0.33333107 </v>
   <v>       0.00000000       0.50000000       0.50000000 </v>
   <v>       0.00000000       0.66666896       0.33333107 </v>
   <v>       0.00000000       0.83333103       0.50000000 </v>
   <v>       0.00000000       0.00000000       0.66666897 </v>
   <v>       0.00000000       0.16666893       0.83333104 </v>
   <v>       0.00000000       0.33333107       0.66666896 </v>
   <v>       0.00000000       0.50000000       0.83333103 </v>
   <v>       0.00000000       0.66666896       0.66666896 </v>
   <v>       0.00000000       0.83333104       0.83333104 </v>
   <v>       0.16666893       0.00000000       0.16666893 </v>
   <v>       0.16666893       0.16666893       0.00000000 </v>
   <v>       0.16666893       0.83333104       0.00000000 </v>
   <v>       0.16666893       0.33333107       0.50000000 </v>
   <v>       0.16666893       0.50000000       0.33333107 </v>
   <v>       0.16666893       0.66666896       0.50000000 </v>
   <v>       0.16666893       0.00000000       0.83333104 </v>
   <v>       0.16666893       0.50000000       0.66666896 </v>
   <v>       0.16666893       0.33333107       0.16666893 </v>
   <v>       0.16666893       0.66666896       0.16666893 </v>
   <v>       0.16666893       0.16666893       0.33333107 </v>
   <v>       0.16666893       0.83333104       0.33333107 </v>
   <v>       0.16666893       0.16666893       0.66666896 </v>
   <v>       0.16666893       0.33333107       0.83333104 </v>
   <v>       0.16666893       0.66666896       0.83333104 </v>
   <v>       0.16666893       0.83333104       0.66666896 </v>
   <v>       0.16666894       0.50000000       0.00000000 </v>
   <v>       0.16666894       0.00000000       0.50000000 </v>
   <v>       0.33333106       0.00000000       0.00000000 </v>
   <v>       0.33333107       0.16666893       0.16666893 </v>
   <v>       0.33333107       0.83333104       0.16666893 </v>
   <v>       0.33333107       0.33333107       0.33333107 </v>
   <v>       0.33333107       0.66666896       0.33333107 </v>
   <v>       0.33333107       0.16666893       0.83333104 </v>
   <v>       0.33333107       0.33333107       0.66666896 </v>
   <v>       0.33333107       0.66666896       0.66666896 </v>
   <v>       0.33333107       0.83333104       0.83333104 </v>
   <v>       0.33333107       0.33333107       0.00000000 </v>
   <v>       0.33333107       0.50000000       0.16666893 </v>
   <v>       0.33333107       0.66666896       0.00000000 </v>
   <v>       0.33333107       0.00000000       0.33333107 </v>
   <v>       0.33333107       0.16666893       0.50000000 </v>
   <v>       0.33333107       0.83333104       0.50000000 </v>
   <v>       0.33333107       0.00000000       0.66666896 </v>
   <v>       0.33333107       0.50000000       0.83333104 </v>
   <v>       0.50000000       0.00000000       0.16666894 </v>
   <v>       0.50000000       0.16666894       0.00000000 </v>
   <v>       0.50000000       0.33333107       0.16666893 </v>
   <v>       0.50000000       0.50000000       0.00000000 </v>
   <v>       0.50000000       0.66666896       0.16666893 </v>
   <v>       0.50000000       0.83333103       0.00000000 </v>
   <v>       0.50000000       0.00000000       0.50000000 </v>
   <v>       0.50000000       0.16666893       0.33333107 </v>
   <v>       0.50000000       0.33333106       0.50000000 </v>
   <v>       0.50000000       0.50000000       0.33333106 </v>
   <v>       0.50000000       0.66666897       0.50000000 </v>
   <v>       0.50000000       0.83333104       0.33333107 </v>
   <v>       0.50000000       0.00000000       0.83333103 </v>
   <v>       0.50000000       0.16666893       0.66666896 </v>
   <v>       0.50000000       0.33333107       0.83333104 </v>
   <v>       0.50000000       0.66666896       0.83333104 </v>
   <v>       0.50000000       0.83333104       0.66666896 </v>
   <v>       0.66666896       0.33333107       0.00000000 </v>
   <v>       0.66666896       0.50000000       0.16666893 </v>
   <v>       0.66666896       0.66666896       0.00000000 </v>
   <v>       0.66666896       0.00000000       0.33333107 </v>
   <v>       0.66666896       0.16666893       0.50000000 </v>
   <v>       0.66666896       0.83333104       0.50000000 </v>
   <v>       0.66666896       0.00000000       0.66666896 </v>
   <v>       0.66666896       0.50000000       0.83333104 </v>
   <v>       0.66666896       0.16666893       0.16666893 </v>
   <v>       0.66666896       0.83333104       0.16666893 </v>
   <v>       0.66666896       0.33333107       0.33333107 </v>
   <v>       0.66666896       0.66666896       0.33333107 </v>
   <v>       0.66666896       0.16666893       0.83333104 </v>
   <v>       0.66666896       0.33333107       0.66666896 </v>
   <v>       0.66666896       0.66666896       0.66666896 </v>
   <v>       0.66666896       0.83333104       0.83333104 </v>
   <v>       0.66666897       0.00000000       0.00000000 </v>
   <v>       0.66666897       0.50000000       0.50000000 </v>
   <v>       0.83333103       0.50000000       0.00000000 </v>
   <v>       0.83333103       0.00000000       0.50000000 </v>
   <v>       0.83333104       0.33333107       0.16666893 </v>
   <v>       0.83333104       0.66666896       0.16666893 </v>
   <v>       0.83333104       0.16666893       0.33333107 </v>
   <v>       0.83333104       0.83333104       0.33333107 </v>
   <v>       0.83333104       0.16666893       0.66666896 </v>
   <v>       0.83333104       0.33333107       0.83333104 </v>
   <v>       0.83333104       0.66666896       0.83333104 </v>
   <v>       0.83333104       0.83333104       0.66666896 </v>
   <v>       0.83333104       0.00000000       0.16666893 </v>
   <v>       0.83333104       0.16666893       0.00000000 </v>
   <v>       0.83333104       0.83333104       0.00000000 </v>
   <v>       0.83333104       0.33333107       0.50000000 </v>
   <v>       0.83333104       0.50000000       0.33333107 </v>
   <v>       0.83333104       0.66666896       0.50000000 </v>
   <v>       0.83333104       0.00000000       0.83333104 </v>
   <v>       0.50000000       0.50000000       0.66666667 </v>
   <v>       0.33333106       0.50000000       0.50000000 </v>
  </varray>
 </structure>
 <calculation>
  <scstep>
   <time name="dav">  265.70  265.80</time>
   <time name="total">  265.94  266.04</time>
   <energy>
    <i name="alphaZ">   7085.54738553 </i>
    <i name="ewald"> -64839.18447959 </i>
    <i name="hartreedc"> -11373.99943365 </i>
    <i name="XCdc">    411.95233440 </i>
    <i name="pawpsdc">  50869.49801454 </i>
    <i name="pawaedc"> -51640.13888436 </i>
    <i name="eentropy">     -0.00199399 </i>
    <i name="bandstr">  13754.45647151 </i>
    <i name="atom">  63236.02203821 </i>
    <i name="e_fr_energy">   7504.15145260 </i>
    <i name="e_wo_entrp">   7504.15344659 </i>
    <i name="e_0_energy">   7504.15211726 </i>
   </energy>
  </scstep>
  <scstep>
   <time name="dav">  264.34  264.40</time>
   <time name="total">  264.37  264.44</time>
   <energy>
    <i name="e_fr_energy">    -13.37110801 </i>
    <i name="e_wo_entrp">    -13.37976435 </i>
    <i name="e_0_energy">    -13.37399346 </i>
   </energy>
  </scstep>
  <scstep>
   <time name="dav">  267.57  267.71</time>
   <time name="total">  267.60  267.74</time>
   <energy>
    <i name="e_fr_energy">   -833.77562292 </i>
    <i name="e_wo_entrp">   -833.79108889 </i>
    <i name="e_0_energy">   -833.78077824 </i>
   </energy>
  </scstep>
  <scstep>
   <time name="dav">  426.89  427.02</time>
   <time name="total">  426.93  427.05</time>
   <energy>
    <i name="e_fr_energy">  -1006.55452983 </i>
    <i name="e_wo_entrp">  -1006.54122871 </i>
    <i name="e_0_energy">  -1006.55009612 </i>
   </energy>
  </scstep>
  <scstep>
   <time name="dav">  395.74  395.94</time>
   <time name="total">  405.52  405.73</time>
   <energy>
    <i name="e_fr_energy">  -1021.25881381 </i>
    <i name="e_wo_entrp">  -1021.22901266 </i>
    <i name="e_0_energy">  -1021.24888009 </i>
   </energy>
  </scstep>
  <scstep>
   <time name="diag">   26.37   26.38</time>
   <time name="diis">  168.51  168.61</time>
   <time name="orth">    5.94    5.94</time>
   <time name="total">  211.48  211.61</time>
   <energy>
    <i name="e_fr_energy">   -883.02620186 </i>
    <i name="e_wo_entrp">   -883.01881714 </i>
    <i name="e_0_energy">   -883.02374029 </i>
   </energy>
  </scstep>
  <scstep>
   <time name="diag">   31.27   31.28</time>
   <time name="diis">  199.67  199.75</time>
   <time name="orth">    5.93    5.93</time>
   <time name="total">  247.57  247.65</time>
   <energy>
    <i name="e_fr_energy">  -1165.21681326 </i>
    <i name="e_wo_entrp">  -1165.22844316 </i>
    <i name="e_0_energy">  -1165.22068990 </i>
   </energy>
  </scstep>
  <scstep>
   <time name="diag">   31.20   31.21</time>
   <time name="diis">  156.71  156.75</time>
   <time name="orth">    5.94    5.94</time>
   <time name="total">  204.56  204.62</time>
   <energy>
    <i name="e_fr_energy">   -888.07698760 </i>
    <i name="e_wo_entrp">   -888.02836347 </i>
    <i name="e_0_energy">   -888.06077956 </i>
   </energy>
  </scstep>
  <scstep>
   <time name="diag">   31.61   31.62</time>
   <time name="diis">  155.85  155.91</time>
   <time name="orth">    5.94    5.94</time>
   <time name="total">  204.09  204.17</time>
   <energy>
    <i name="e_fr_energy">   -861.80099177 </i>
    <i name="e_wo_entrp">   -861.77444407 </i>
    <i name="e_0_energy">   -861.79214254 </i>
   </energy>
  </scstep>
  <scstep>
   <time name="diag">   31.63   31.63</time>
   <time name="diis">  225.45  225.54</time>
   <time name="orth">    5.95    5.95</time>
   <time name="total">  273.75  273.84</time>
   <energy>
    <i name="e_fr_energy">   -863.82541026 </i>
    <i name="e_wo_entrp">   -863.82702793 </i>
    <i name="e_0_energy">   -863.82594948 </i>
   </energy>
  </scstep>
  <scstep>
   <time name="diag">   31.76   31.78</time>
   <time name="diis">  181.64  181.71</time>
   <time name="orth">    5.85    5.85</time>
   <time name="total">  229.92  230.01</time>
   <energy>
    <i name="e_fr_energy">   -863.40498794 </i>
    <i name="e_wo_entrp">   -863.39692501 </i>
    <i name="e_0_energy">   -863.40230029 </i>
   </energy>
  </scstep>
  <scstep>
   <time name="diag">   31.72   31.75</time>
   <time name="diis">  189.21  189.26</time>
   <time name="orth">    5.75    5.75</time>
   <time name="total">  235.91  235.98</time>
   <energy>
    <i name="e_fr_energy">   -862.33595205 </i>
    <i name="e_wo_entrp">   -862.32505603 </i>
    <i name="e_0_energy">   -862.33232005 </i>
   </energy>
  </scstep>
  <scstep>
   <time name="diag">   28.29   28.31</time>
   <time name="diis">  184.77  184.83</time>
   <time name="orth">    5.76    5.76</time>
   <time name="total">  228.47  228.55</time>
   <energy>
    <i name="e_fr_energy">   -862.09932897 </i>
    <i name="e_wo_entrp">   -862.08923876 </i>
    <i name="e_0_energy">   -862.09596557 </i>
   </energy>
  </scstep>
  <scstep>
   <time name="diag">   25.60   25.60</time>
   <time name="diis">  162.18  162.24</time>
   <time name="orth">    5.82    5.82</time>
   <time name="total">  203.67  203.73</time>
   <energy>
    <i name="e_fr_energy">   -861.67917923 </i>
    <i name="e_wo_entrp">   -861.64632496 </i>
    <i name="e_0_energy">   -861.66822781 </i>
   </energy>
  </scstep>
  <scstep>
   <time name="diag">   29.65   29.67</time>
   <time name="diis">  216.96  217.02</time>
   <time name="orth">    5.95    5.97</time>
   <time name="total">  263.24  263.34</time>
   <energy>
    <i name="e_fr_energy">   -861.65433412 </i>
    <i name="e_wo_entrp">   -861.62070313 </i>
    <i name="e_0_energy">   -861.64312379 </i>
   </energy>
  </scstep>
  <scstep>
   <time name="diag">   31.69   31.68</time>
   <time name="diis">  166.43  166.51</time>
   <time name="orth">    5.85    5.85</time>
   <time name="total">  214.30  214.39</time>
   <energy>
    <i name="e_fr_energy">   -861.36162631 </i>
    <i name="e_wo_entrp">   -861.33116070 </i>
    <i name="e_0_energy">   -861.35147111 </i>
   </energy>
  </scstep>
  <scstep>
   <time name="diag">   31.65   31.66</time>
   <time name="diis">  178.86  178.91</time>
   <time name="orth">    5.85    5.85</time>
   <time name="total">  226.74  226.81</time>
   <energy>
    <i name="e_fr_energy">   -861.28026197 </i>
    <i name="e_wo_entrp">   -861.25090190 </i>
    <i name="e_0_energy">   -861.27047528 </i>
   </energy>
  </scstep>
  <scstep>
   <time name="diag">   31.65   31.67</time>
   <time name="diis">  210.68  210.72</time>
   <time name="orth">    5.70    5.70</time>
   <time name="total">  258.14  258.21</time>
   <energy>
    <i name="e_fr_energy">   -861.29454484 </i>
    <i name="e_wo_entrp">   -861.26814859 </i>
    <i name="e_0_energy">   -861.28574609 </i>
   </energy>
  </scstep>
  <scstep>
   <time name="diag">   30.55   30.58</time>
   <time name="diis">  196.19  196.27</time>
   <time name="orth">    5.52    5.52</time>
   <time name="total">  241.58  241.68</time>
   <energy>
    <i name="e_fr_energy">   -861.25236744 </i>
    <i name="e_wo_entrp">   -861.22687018 </i>
    <i name="e_0_energy">   -861.24386836 </i>
   </energy>
  </scstep>
  <scstep>
   <time name="diag">   27.00   27.01</time>
   <time name="diis">  256.84  256.92</time>
   <time name="orth">    5.83    5.83</time>
   <time name="total">  299.40  299.50</time>
   <energy>
    <i name="e_fr_energy">   -861.25645431 </i>
    <i name="e_wo_entrp">   -861.23142376 </i>
    <i name="e_0_energy">   -861.24811080 </i>
   </energy>
  </scstep>
  <scstep>
   <time name="diag">   32.15   32.17</time>
   <time name="diis">  208.22  208.27</time>
   <time name="orth">    5.47    5.47</time>
   <time name="total">  255.32  255.39</time>
   <energy>
    <i name="e_fr_energy">   -861.25450372 </i>
    <i name="e_wo_entrp">   -861.22995320 </i>
    <i name="e_0_energy">   -861.24632021 </i>
   </energy>
  </scstep>
  <scstep>
   <time name="diag">   30.33   30.33</time>
   <time name="diis">  211.89  211.96</time>
   <time name="orth">    5.86    5.86</time>
   <time name="total">  258.01  258.09</time>
   <energy>
    <i name="e_fr_energy">   -861.25209941 </i>
    <i name="e_wo_entrp">   -861.22767215 </i>
    <i name="e_0_energy">   -861.24395699 </i>
   </energy>
  </scstep>
  <scstep>
   <time name="diag">   32.95   32.95</time>
   <time name="diis">  207.47  207.54</time>
   <time name="orth">    5.70    5.70</time>
   <time name="total">  256.69  256.75</time>
   <energy>
    <i name="e_fr_energy">   -861.25033679 </i>
    <i name="e_wo_entrp">   -861.22556323 </i>
    <i name="e_0_energy">   -861.24207894 </i>
   </energy>
  </scstep>
  <scstep>
   <time name="diag">   33.13   33.14</time>
   <time name="diis">  205.02  205.10</time>
   <time name="orth">    5.47    5.47</time>
   <time name="total">  253.29  253.38</time>
   <energy>
    <i name="e_fr_energy">   -861.24743829 </i>
    <i name="e_wo_entrp">   -861.22237501 </i>
    <i name="e_0_energy">   -861.23908387 </i>
   </energy>
  </scstep>
  <scstep>
   <time name="diag">   30.77   30.78</time>
   <time name="diis">  260.94  261.01</time>
   <time name="orth">    6.11    6.11</time>
   <time name="total">  309.60  309.69</time>
   <energy>
    <i name="e_fr_energy">   -861.24736537 </i>
    <i name="e_wo_entrp">   -861.22242898 </i>
    <i name="e_0_energy">   -861.23905324 </i>
   </energy>
  </scstep>
  <scstep>
   <time name="diag">   33.48   33.47</time>
   <time name="diis">  238.74  238.81</time>
   <time name="orth">    6.12    6.12</time>
   <time name="total">  289.98  290.05</time>
   <energy>
    <i name="e_fr_energy">   -861.24714598 </i>
    <i name="e_wo_entrp">   -861.22197667 </i>
    <i name="e_0_energy">   -861.23875621 </i>
   </energy>
  </scstep>
  <scstep>
   <time name="diag">   33.43   33.44</time>
   <time name="diis">  233.41  233.50</time>
   <time name="orth">    6.10    6.10</time>
   <time name="total">  284.58  284.69</time>
   <energy>
    <i name="e_fr_energy">   -861.24707560 </i>
    <i name="e_wo_entrp">   -861.22203350 </i>
    <i name="e_0_energy">   -861.23872823 </i>
   </energy>
  </scstep>
  <scstep>
   <time name="diag">   33.41   33.43</time>
   <time name="diis">  236.29  236.34</time>
   <time name="orth">    6.11    6.11</time>
   <time name="total">  288.17  288.25</time>
   <energy>
    <i name="e_fr_energy">   -861.24705784 </i>
    <i name="e_wo_entrp">   -861.22213003 </i>
    <i name="e_0_energy">   -861.23874857 </i>
   </energy>
  </scstep>
  <scstep>
   <time name="diag">   35.23   35.24</time>
   <time name="diis">  191.56  191.59</time>
   <time name="orth">    6.15    6.15</time>
   <time name="total">  246.04  246.09</time>
   <energy>
    <i name="e_fr_energy">   -861.24699205 </i>
    <i name="e_wo_entrp">   -861.22220552 </i>
    <i name="e_0_energy">   -861.23872988 </i>
   </energy>
  </scstep>
  <scstep>
   <time name="diag">   39.00   39.02</time>
   <time name="diis">  273.21  273.29</time>
   <time name="orth">    5.82    5.82</time>
   <time name="total">  329.23  329.35</time>
   <energy>
    <i name="e_fr_energy">   -861.24698586 </i>
    <i name="e_wo_entrp">   -861.22226890 </i>
    <i name="e_0_energy">   -861.23874688 </i>
   </energy>
  </scstep>
  <scstep>
   <time name="diag">   29.70   29.70</time>
   <time name="diis">  223.82  223.91</time>
   <time name="orth">    5.85    5.84</time>
   <time name="total">  271.08  271.17</time>
   <energy>
    <i name="e_fr_energy">   -861.24696697 </i>
    <i name="e_wo_entrp">   -861.22231324 </i>
    <i name="e_0_energy">   -861.23874906 </i>
   </energy>
  </scstep>
  <scstep>
   <time name="diag">   38.67   38.68</time>
   <time name="diis">  161.25  161.28</time>
   <time name="orth">    5.89    5.89</time>
   <time name="total">  216.94  217.01</time>
   <energy>
    <i name="e_fr_energy">   -861.24695741 </i>
    <i name="e_wo_entrp">   -861.22237907 </i>
    <i name="e_0_energy">   -861.23876463 </i>
   </energy>
  </scstep>
  <scstep>
   <time name="diag">   30.91   30.94</time>
   <time name="diis">  148.08  148.15</time>
   <time name="orth">    5.90    5.90</time>
   <time name="total">  196.38  196.48</time>
   <energy>
    <i name="e_fr_energy">   -861.24695360 </i>
    <i name="e_wo_entrp">   -861.22243156 </i>
    <i name="e_0_energy">   -861.23877959 </i>
   </energy>
  </scstep>
  <scstep>
   <time name="diag">   35.30   35.31</time>
   <time name="diis">  111.59  111.60</time>
   <time name="orth">    6.04    6.04</time>
   <time name="total">  165.25  165.30</time>
   <energy>
    <i name="e_fr_energy">   -861.24694945 </i>
    <i name="e_wo_entrp">   -861.22248113 </i>
    <i name="e_0_energy">   -861.23879335 </i>
   </energy>
  </scstep>
  <scstep>
   <time name="diag">   38.13   38.13</time>
   <time name="diis">  137.95  138.03</time>
   <time name="orth">    6.08    6.08</time>
   <time name="total">  194.82  194.90</time>
   <energy>
    <i name="e_fr_energy">   -861.24694674 </i>
    <i name="e_wo_entrp">   -861.22252216 </i>
    <i name="e_0_energy">   -861.23880522 </i>
   </energy>
  </scstep>
  <scstep>
   <time name="diag">   37.97   37.97</time>
   <time name="diis">  132.37  132.40</time>
   <time name="orth">    6.21    6.21</time>
   <time name="total">  190.94  190.98</time>
   <energy>
    <i name="e_fr_energy">   -861.24694490 </i>
    <i name="e_wo_entrp">   -861.22255482 </i>
    <i name="e_0_energy">   -861.23881488 </i>
   </energy>
  </scstep>
  <scstep>
   <time name="diag">   44.51   44.54</time>
   <time name="diis">  131.42  131.48</time>
   <time name="orth">    5.73    5.73</time>
   <time name="total">  192.95  193.05</time>
   <energy>
    <i name="e_fr_energy">   -861.24694263 </i>
    <i name="e_wo_entrp">   -861.22258617 </i>
    <i name="e_0_energy">   -861.23882381 </i>
   </energy>
  </scstep>
  <scstep>
   <time name="diag">   39.53   39.54</time>
   <time name="diis">  146.02  146.07</time>
   <time name="orth">    5.55    5.55</time>
   <time name="total">  201.01  201.09</time>
   <energy>
    <i name="e_fr_energy">   -861.24694068 </i>
    <i name="e_wo_entrp">   -861.22261477 </i>
    <i name="e_0_energy">   -861.23883205 </i>
   </energy>
  </scstep>
  <scstep>
   <time name="diag">   34.23   34.23</time>
   <time name="diis">  143.62  143.68</time>
   <time name="orth">    6.24    6.24</time>
   <time name="total">  199.46  199.52</time>
   <energy>
    <i name="e_fr_energy">   -861.24693888 </i>
    <i name="e_wo_entrp">   -861.22264099 </i>
    <i name="e_0_energy">   -861.23883958 </i>
   </energy>
  </scstep>
  <scstep>
   <time name="diag">   44.31   44.32</time>
   <time name="diis">  103.90  103.91</time>
   <time name="orth">    6.01    6.02</time>
   <time name="total">  166.39  166.43</time>
   <energy>
    <i name="e_fr_energy">   -861.24693715 </i>
    <i name="e_wo_entrp">   -861.22266543 </i>
    <i name="e_0_energy">   -861.23884658 </i>
   </energy>
  </scstep>
  <scstep>
   <time name="diag">   46.20   46.23</time>
   <time name="diis">  139.64  139.67</time>
   <time name="orth">    5.89    5.89</time>
   <time name="total">  203.48  203.54</time>
   <energy>
    <i name="e_fr_energy">   -861.24693577 </i>
    <i name="e_wo_entrp">   -861.22268671 </i>
    <i name="e_0_energy">   -861.23885275 </i>
   </energy>
  </scstep>
  <scstep>
   <time name="diag">   32.48   32.49</time>
   <time name="diis">  106.20  106.22</time>
   <time name="orth">    6.21    6.23</time>
   <time name="total">  160.07  160.11</time>
   <energy>
    <i name="e_fr_energy">   -861.24693431 </i>
    <i name="e_wo_entrp">   -861.22270699 </i>
    <i name="e_0_energy">   -861.23885854 </i>
   </energy>
  </scstep>
  <scstep>
   <time name="diag">   46.10   46.12</time>
   <time name="diis">  106.40  106.40</time>
   <time name="orth">    5.98    5.98</time>
   <time name="total">  169.45  169.50</time>
   <energy>
    <i name="e_fr_energy">   -861.24693304 </i>
    <i name="e_wo_entrp">   -861.22272588 </i>
    <i name="e_0_energy">   -861.23886398 </i>
   </energy>
  </scstep>
  <scstep>
   <time name="diag">   39.95   39.95</time>
   <time name="diis">  122.37  122.41</time>
   <time name="orth">    6.23    6.23</time>
   <time name="total">  183.84  183.90</time>
   <energy>
    <i name="e_fr_energy">   -861.24693181 </i>
    <i name="e_wo_entrp">   -861.22274274 </i>
    <i name="e_0_energy">   -861.23886879 </i>
   </energy>
  </scstep>
  <scstep>
   <time name="diag">   42.03   42.03</time>
   <time name="diis">   86.88   86.90</time>
   <time name="orth">    6.00    6.00</time>
   <time name="total">  147.10  147.13</time>
   <energy>
    <i name="e_fr_energy">   -861.24693064 </i>
    <i name="e_wo_entrp">   -861.22275852 </i>
    <i name="e_0_energy">   -861.23887327 </i>
   </energy>
  </scstep>
  <scstep>
   <time name="diag">   45.72   45.75</time>
   <time name="diis">  114.32  114.37</time>
   <time name="orth">    5.55    5.55</time>
   <time name="total">  175.67  175.76</time>
   <energy>
    <i name="e_fr_energy">   -861.24692957 </i>
    <i name="e_wo_entrp">   -861.22277297 </i>
    <i name="e_0_energy">   -861.23887737 </i>
   </energy>
  </scstep>
  <scstep>
   <time name="diag">   35.26   35.27</time>
   <time name="diis">  110.55  110.58</time>
   <time name="orth">    6.22    6.24</time>
   <time name="total">  152.31  152.37</time>
   <energy>
    <i name="alphaZ">   7085.54738553 </i>
    <i name="ewald"> -64839.18447959 </i>
    <i name="hartreedc">  -9589.86260598 </i>
    <i name="XCdc">    328.90686187 </i>
    <i name="pawpsdc">  57142.19765294 </i>
    <i name="pawaedc"> -58022.66724639 </i>
    <i name="eentropy">     -0.02414236 </i>
    <i name="bandstr">   3797.81760718 </i>
    <i name="atom">  63236.02203821 </i>
    <i name="e_fr_energy">   -861.24692859 </i>
    <i name="e_wo_entrp">   -861.22278623 </i>
    <i name="e_0_energy">   -861.23888113 </i>
   </energy>
  </scstep>
  <structure>
   <crystal>
    <varray name="basis" >
     <v>      10.33484705       0.00000000       0.00000000 </v>
     <v>       0.00000000      10.33484705       0.00000000 </v>
     <v>       0.00000000       0.00000000      10.33484705 </v>
    </varray>
    <i name="volume">   1103.85533447 </i>
    <varray name="rec_basis" >
     <v>       0.09676002       0.00000000       0.00000000 </v>
     <v>       0.00000000       0.09676002       0.00000000 </v>
     <v>       0.00000000       0.00000000       0.09676002 </v>
    </varray>
   </crystal>
   <varray name="positions" >
    <v>       0.00000000       0.00000000       0.00000000 </v>
    <v>       0.00000000       0.16666893       0.16666893 </v>
    <v>       0.00000000       0.33333106       0.00000000 </v>
    <v>       0.00000000       0.50000000       0.16666894 </v>
    <v>       0.00000000       0.66666897       0.00000000 </v>
    <v>       0.00000000       0.83333104       0.16666893 </v>
    <v>       0.00000000       0.00000000       0.33333106 </v>
    <v>       0.00000000       0.16666894       0.50000000 </v>
    <v>       0.00000000       0.33333107       0.33333107 </v>
    <v>       0.00000000       0.50000000       0.50000000 </v>
    <v>       0.00000000       0.66666896       0.33333107 </v>
    <v>       0.00000000       0.83333103       0.50000000 </v>
    <v>       0.00000000       0.00000000       0.66666897 </v>
    <v>       0.00000000       0.16666893       0.83333104 </v>
    <v>       0.00000000       0.33333107       0.66666896 </v>
    <v>       0.00000000       0.50000000       0.83333103 </v>
    <v>       0.00000000       0.66666896       0.66666896 </v>
    <v>       0.00000000       0.83333104       0.83333104 </v>
    <v>       0.16666893       0.00000000       0.16666893 </v>
    <v>       0.16666893       0.16666893       0.00000000 </v>
    <v>       0.16666893       0.83333104       0.00000000 </v>
    <v>       0.16666893       0.33333107       0.50000000 </v>
    <v>       0.16666893       0.50000000       0.33333107 </v>
    <v>       0.16666893       0.66666896       0.50000000 </v>
    <v>       0.16666893       0.00000000       0.83333104 </v>
    <v>       0.16666893       0.50000000       0.66666896 </v>
    <v>       0.16666893       0.33333107       0.16666893 </v>
    <v>       0.16666893       0.66666896       0.16666893 </v>
    <v>       0.16666893       0.16666893       0.33333107 </v>
    <v>       0.16666893       0.83333104       0.33333107 </v>
    <v>       0.16666893       0.16666893       0.66666896 </v>
    <v>       0.16666893       0.33333107       0.83333104 </v>
    <v>       0.16666893       0.66666896       0.83333104 </v>
    <v>       0.16666893       0.83333104       0.66666896 </v>
    <v>       0.16666894       0.50000000       0.00000000 </v>
    <v>       0.16666894       0.00000000       0.50000000 </v>
    <v>       0.33333106       0.00000000       0.00000000 </v>
    <v>       0.33333107       0.16666893       0.16666893 </v>
    <v>       0.33333107       0.83333104       0.16666893 </v>
    <v>       0.33333107       0.33333107       0.33333107 </v>
    <v>       0.33333107       0.66666896       0.33333107 </v>
    <v>       0.33333107       0.16666893       0.83333104 </v>
    <v>       0.33333107       0.33333107       0.66666896 </v>
    <v>       0.33333107       0.66666896       0.66666896 </v>
    <v>       0.33333107       0.83333104       0.83333104 </v>
    <v>       0.33333107       0.33333107       0.00000000 </v>
    <v>       0.33333107       0.50000000       0.16666893 </v>
    <v>       0.33333107       0.66666896       0.00000000 </v>
    <v>       0.33333107       0.00000000       0.33333107 </v>
    <v>       0.33333107       0.16666893       0.50000000 </v>
    <v>       0.33333107       0.83333104       0.50000000 </v>
    <v>       0.33333107       0.00000000       0.66666896 </v>
    <v>       0.33333107       0.50000000       0.83333104 </v>
    <v>       0.50000000       0.00000000       0.16666894 </v>
    <v>       0.50000000       0.16666894       0.00000000 </v>
    <v>       0.50000000       0.33333107       0.16666893 </v>
    <v>       0.50000000       0.50000000       0.00000000 </v>
    <v>       0.50000000       0.66666896       0.16666893 </v>
    <v>       0.50000000       0.83333103       0.00000000 </v>
    <v>       0.50000000       0.00000000       0.50000000 </v>
    <v>       0.50000000       0.16666893       0.33333107 </v>
    <v>       0.50000000       0.33333106       0.50000000 </v>
    <v>       0.50000000       0.50000000       0.33333106 </v>
    <v>       0.50000000       0.66666897       0.50000000 </v>
    <v>       0.50000000       0.83333104       0.33333107 </v>
    <v>       0.50000000       0.00000000       0.83333103 </v>
    <v>       0.50000000       0.16666893       0.66666896 </v>
    <v>       0.50000000       0.33333107       0.83333104 </v>
    <v>       0.50000000       0.66666896       0.83333104 </v>
    <v>       0.50000000       0.83333104       0.66666896 </v>
    <v>       0.66666896       0.33333107       0.00000000 </v>
    <v>       0.66666896       0.50000000       0.16666893 </v>
    <v>       0.66666896       0.66666896       0.00000000 </v>
    <v>       0.66666896       0.00000000       0.33333107 </v>
    <v>       0.66666896       0.16666893       0.50000000 </v>
    <v>       0.66666896       0.83333104       0.50000000 </v>
    <v>       0.66666896       0.00000000       0.66666896 </v>
    <v>       0.66666896       0.50000000       0.83333104 </v>
    <v>       0.66666896       0.16666893       0.16666893 </v>
    <v>       0.66666896       0.83333104       0.16666893 </v>
    <v>       0.66666896       0.33333107       0.33333107 </v>
    <v>       0.66666896       0.66666896       0.33333107 </v>
    <v>       0.66666896       0.16666893       0.83333104 </v>
    <v>       0.66666896       0.33333107       0.66666896 </v>
    <v>       0.66666896       0.66666896       0.66666896 </v>
    <v>       0.66666896       0.83333104       0.83333104 </v>
    <v>       0.66666897       0.00000000       0.00000000 </v>
    <v>       0.66666897       0.50000000       0.50000000 </v>
    <v>       0.83333103       0.50000000       0.00000000 </v>
    <v>       0.83333103       0.00000000       0.50000000 </v>
    <v>       0.83333104       0.33333107       0.16666893 </v>
    <v>       0.83333104       0.66666896       0.16666893 </v>
    <v>       0.83333104       0.16666893       0.33333107 </v>
    <v>       0.83333104       0.83333104       0.33333107 </v>
    <v>       0.83333104       0.16666893       0.66666896 </v>
    <v>       0.83333104       0.33333107       0.83333104 </v>
    <v>       0.83333104       0.66666896       0.83333104 </v>
    <v>       0.83333104       0.83333104       0.66666896 </v>
    <v>       0.83333104       0.00000000       0.16666893 </v>
    <v>       0.83333104       0.16666893       0.00000000 </v>
    <v>       0.83333104       0.83333104       0.00000000 </v>
    <v>       0.83333104       0.33333107       0.50000000 </v>
    <v>       0.83333104       0.50000000       0.33333107 </v>
    <v>       0.83333104       0.66666896       0.50000000 </v>
    <v>       0.83333104       0.00000000       0.83333104 </v>
    <v>       0.50000000       0.50000000       0.66666667 </v>
    <v>       0.33333106       0.50000000       0.50000000 </v>
   </varray>
  </structure>
  <varray name="forces" >
   <v>      -0.06469155      -0.00000107      -0.01131537 </v>
   <v>       0.00011786       0.01773589       0.00568282 </v>
   <v>      -0.00148306       0.00013610      -0.01592865 </v>
   <v>       0.14234579       0.00000307       0.17673169 </v>
   <v>      -0.00148678      -0.00013443      -0.01592904 </v>
   <v>       0.00011715      -0.01773474       0.00568391 </v>
   <v>      -0.00891510      -0.00000371       0.02178933 </v>
   <v>       0.18378290       0.17421702      -0.00381991 </v>
   <v>       0.03991586      -0.03689310      -0.02260237 </v>
   <v>      -0.15219107       0.00000594       0.05998968 </v>
   <v>       0.03991396       0.03689325      -0.02260081 </v>
   <v>       0.18377911      -0.17421885      -0.00381907 </v>
   <v>      -0.02343127      -0.00000348      -0.00850653 </v>
   <v>       0.02066625       0.01696776       0.00482913 </v>
   <v>      -0.02683630       0.01091373       0.01910677 </v>
   <v>       0.14610001       0.00000269      -0.23222925 </v>
   <v>      -0.02684027      -0.01091166       0.01910511 </v>
   <v>       0.02066228      -0.01697098       0.00482637 </v>
   <v>       0.06964649      -0.00000127      -0.00756018 </v>
   <v>       0.03755718      -0.03452545       0.02480406 </v>
   <v>       0.03755669       0.03452604       0.02480628 </v>
   <v>      -1.42842076      -1.45312692      -0.00341574 </v>
   <v>      -1.62894725       0.00000305      -1.22373921 </v>
   <v>      -1.42841881       1.45312592      -0.00341628 </v>
   <v>      -0.00435226       0.00000127      -0.00292881 </v>
   <v>      -1.60079420       0.00000295       1.41542967 </v>
   <v>      -0.04150811      -0.02643638       0.02327673 </v>
   <v>      -0.04150842       0.02643631       0.02327874 </v>
   <v>      -0.00827114       0.00128070      -0.05562599 </v>
   <v>      -0.00827147      -0.00128207      -0.05562591 </v>
   <v>      -0.23629672       0.21783775       0.03116560 </v>
   <v>      -0.05672845      -0.04584604       0.00333701 </v>
   <v>      -0.05672907       0.04584412       0.00333598 </v>
   <v>      -0.23629992      -0.21783842       0.03116364 </v>
   <v>      -0.19943219       0.00000062      -0.19802066 </v>
   <v>      -0.03583184      -0.00000326       0.00718276 </v>
   <v>       0.00040197      -0.00000102       0.06264694 </v>
   <v>       0.00040668       0.11898273       0.17109071 </v>
   <v>       0.00040818      -0.11898281       0.17109209 </v>
   <v>       0.00047731      -1.42764737      -1.40166437 </v>
   <v>       0.00047919       1.42764691      -1.40166056 </v>
   <v>       0.00040335       0.18851931      -0.17640518 </v>
   <v>       0.00046244      -1.39706813       1.41449267 </v>
   <v>       0.00046470       1.39706476       1.41448866 </v>
   <v>       0.00040540      -0.18851851      -0.17640548 </v>
   <v>       0.00039794      -0.00324288      -0.00339200 </v>
   <v>       0.00038660       0.00000307      -0.09988695 </v>
   <v>       0.00039874       0.00324269      -0.00339218 </v>
   <v>       0.00039976      -0.00000315      -0.06130900 </v>
   <v>       0.00039667      -0.05931709      -0.00017296 </v>
   <v>       0.00039926       0.05931588      -0.00017480 </v>
   <v>       0.00038614      -0.00000233       0.01006664 </v>
   <v>       0.00040955       0.00000203       0.03611738 </v>
   <v>      -0.07006000      -0.00000297      -0.00755770 </v>
   <v>      -0.03796274      -0.03451984       0.02479572 </v>
   <v>       0.04110292      -0.02643730       0.02328792 </v>
   <v>       0.19907980       0.00000251      -0.19803559 </v>
   <v>       0.04110315       0.02643786       0.02328987 </v>
   <v>      -0.03796245       0.03451949       0.02479769 </v>
   <v>       0.03545524      -0.00000419       0.00718644 </v>
   <v>       0.00784272       0.00127320      -0.05564543 </v>
   <v>       1.42782005      -1.45289759      -0.00342472 </v>
   <v>       1.62832658       0.00000396      -1.22349815 </v>
   <v>       1.42782277       1.45289923      -0.00342303 </v>
   <v>       0.00784362      -0.00127492      -0.05564338 </v>
   <v>       0.00396547      -0.00000329      -0.00293067 </v>
   <v>       0.23590384       0.21785850       0.03117156 </v>
   <v>       0.05634151      -0.04581960       0.00331121 </v>
   <v>       0.05634623       0.04582003       0.00330601 </v>
   <v>       0.23590745      -0.21786082       0.03116861 </v>
   <v>       0.00107070       0.00013715      -0.01592136 </v>
   <v>      -0.14272694       0.00000304       0.17671841 </v>
   <v>       0.00107418      -0.00013650      -0.01592271 </v>
   <v>       0.00851580      -0.00000392       0.02179548 </v>
   <v>      -0.18419374       0.17418558      -0.00381529 </v>
   <v>      -0.18419214      -0.17419188      -0.00381211 </v>
   <v>       0.02305274      -0.00000669      -0.00850147 </v>
   <v>      -0.14644308       0.00000653      -0.23231689 </v>
   <v>      -0.00053039       0.01774544       0.00568045 </v>
   <v>      -0.00053108      -0.01774643       0.00568031 </v>
   <v>      -0.04031352      -0.03689107      -0.02262466 </v>
   <v>      -0.04031224       0.03689439      -0.02262101 </v>
   <v>      -0.02109234       0.01695485       0.00482990 </v>
   <v>       0.02652460       0.01098762       0.01910935 </v>
   <v>       0.02652439      -0.01098253       0.01910846 </v>
   <v>      -0.02108970      -0.01695900       0.00482592 </v>
   <v>       0.06427543      -0.00000243      -0.01132989 </v>
   <v>       0.15185400       0.00000784       0.06005843 </v>
   <v>       0.00038714       0.00000437      -0.17965322 </v>
   <v>       0.00040159      -0.00000538       0.02264191 </v>
   <v>       0.00040261       0.03312626      -0.01108409 </v>
   <v>       0.00040216      -0.03312638      -0.01108231 </v>
   <v>       0.00040817       0.18771225       0.20025249 </v>
   <v>       0.00040546      -0.18771573       0.20025761 </v>
   <v>       0.00040708       0.17948589      -0.00572104 </v>
   <v>       0.00038975       0.04002983      -0.03198243 </v>
   <v>       0.00038614      -0.04002792      -0.03198622 </v>
   <v>       0.00040472      -0.17949373      -0.00572348 </v>
   <v>       0.00041576      -0.00000336      -0.06473551 </v>
   <v>       0.00040728       0.14318554      -0.19134943 </v>
   <v>       0.00040570      -0.14318735      -0.19135073 </v>
   <v>       0.00037987       0.05235841       0.04722192 </v>
   <v>       0.00040709       0.00000537       0.18701939 </v>
   <v>       0.00037866      -0.05235443       0.04722450 </v>
   <v>       0.00040120      -0.00000286       0.01974455 </v>
   <v>       1.60025155       0.00000702       1.41548734 </v>
   <v>       0.00105582       0.00000954       0.00774798 </v>
  </varray>
  <varray name="stress" >
   <v>      18.16046951      -0.00001987       0.00001728 </v>
   <v>      -0.00001996      18.44916017       0.00000357 </v>
   <v>       0.00001722       0.00000365      17.93629434 </v>
  </varray>
  <energy>
   <i name="e_fr_energy">   -861.24692859 </i>
   <i name="e_wo_entrp">   -861.23888113 </i>
   <i name="e_0_energy">     -0.02414236 </i>
  </energy>
  <time name="totalsc">11597.0311600.90</time>
 </calculation>
 <calculation>
  <scstep>
   <time name="dav">  342.80  342.89</time>
   <time name="total">  358.25  358.33</time>
   <energy>
    <i name="alphaZ">   7085.54738553 </i>
    <i name="ewald"> -64767.35994670 </i>
    <i name="hartreedc">  -9665.92582823 </i>
    <i name="XCdc">    329.22403171 </i>
    <i name="pawpsdc">  57142.19686322 </i>
    <i name="pawaedc"> -58022.66642493 </i>
    <i name="eentropy">      0.00271203 </i>
    <i name="bandstr">   3800.66384597 </i>
    <i name="atom">  63236.02203821 </i>
    <i name="e_fr_energy">   -862.29532318 </i>
    <i name="e_wo_entrp">   -862.29803522 </i>
    <i name="e_0_energy">   -862.29622719 </i>
   </energy>
  </scstep>
  <scstep>
   <time name="diag">   44.74   44.75</time>
   <time name="diis">  249.56  249.63</time>
   <time name="orth">    6.24    6.24</time>
   <time name="total">  314.23  314.33</time>
   <energy>
    <i name="e_fr_energy">   -912.81295921 </i>
    <i name="e_wo_entrp">   -912.80189193 </i>
    <i name="e_0_energy">   -912.80927011 </i>
   </energy>
  </scstep>
  <scstep>
   <time name="diag">   36.20   36.20</time>
   <time name="diis">  222.66  222.72</time>
   <time name="orth">    5.89    5.89</time>
   <time name="total">  275.78  275.83</time>
   <energy>
    <i name="e_fr_energy">   -865.91199964 </i>
    <i name="e_wo_entrp">   -865.88862401 </i>
    <i name="e_0_energy">   -865.90420776 </i>
   </energy>
  </scstep>
  <scstep>
   <time name="diag">   33.30   33.31</time>
   <time name="diis">  241.71  241.77</time>
   <time name="orth">    5.57    5.57</time>
   <time name="total">  290.95  291.01</time>
   <energy>
    <i name="e_fr_energy">   -863.05205754 </i>
    <i name="e_wo_entrp">   -863.02868256 </i>
    <i name="e_0_energy">   -863.04426588 </i>
   </energy>
  </scstep>
  <scstep>
   <time name="diag">   38.52   38.52</time>
   <time name="diis">  314.05  314.11</time>
   <time name="orth">    5.76    5.76</time>
   <time name="total">  369.24  369.31</time>
   <energy>
    <i name="e_fr_energy">   -862.98614149 </i>
    <i name="e_wo_entrp">   -862.96366353 </i>
    <i name="e_0_energy">   -862.97864883 </i>
   </energy>
  </scstep>
  <scstep>
   <time name="diag">   41.12   41.14</time>
   <time name="diis">  276.00  276.04</time>
   <time name="orth">    5.50    5.50</time>
   <time name="total">  332.14  332.20</time>
   <energy>
    <i name="e_fr_energy">   -862.86572084 </i>
    <i name="e_wo_entrp">   -862.85813099 </i>
    <i name="e_0_energy">   -862.86319089 </i>
   </energy>
  </scstep>
  <scstep>
   <time name="diag">   31.66   31.66</time>
   <time name="diis">  297.05  297.13</time>
   <time name="orth">    6.09    6.09</time>
   <time name="total">  347.59  347.67</time>
   <energy>
    <i name="e_fr_energy">   -862.94054196 </i>
    <i name="e_wo_entrp">   -862.93399253 </i>
    <i name="e_0_energy">   -862.93835882 </i>
   </energy>
  </scstep>
  <scstep>
   <time name="diag">   41.11   41.13</time>
   <time name="diis">  237.69  237.76</time>
   <time name="orth">    6.14    6.14</time>
   <time name="total">  297.54  297.64</time>
   <energy>
    <i name="e_fr_energy">   -862.74425554 </i>
    <i name="e_wo_entrp">   -862.72858987 </i>
    <i name="e_0_energy">   -862.73903365 </i>
   </energy>
  </scstep>
  <scstep>
   <time name="diag">   34.96   34.98</time>
   <time name="diis">  237.13  237.21</time>
   <time name="orth">    5.57    5.57</time>
   <time name="total">  287.69  287.79</time>
   <energy>
    <i name="e_fr_energy">   -862.72536065 </i>
    <i name="e_wo_entrp">   -862.71163671 </i>
    <i name="e_0_energy">   -862.72078600 </i>
   </energy>
  </scstep>
  <scstep>
   <time name="diag">   35.17   35.17</time>
   <time name="diis">  302.84  302.92</time>
   <time name="orth">    5.96    5.96</time>
   <time name="total">  355.12  355.22</time>
   <energy>
    <i name="e_fr_energy">   -862.80942895 </i>
    <i name="e_wo_entrp">   -862.79140665 </i>
    <i name="e_0_energy">   -862.80342151 </i>
   </energy>
  </scstep>
  <scstep>
   <time name="diag">   40.39   40.42</time>
   <time name="diis">  239.57  239.63</time>
   <time name="orth">    5.57    5.57</time>
   <time name="total">  295.61  295.70</time>
   <energy>
    <i name="e_fr_energy">   -862.73883668 </i>
    <i name="e_wo_entrp">   -862.71971505 </i>
    <i name="e_0_energy">   -862.73246281 </i>
   </energy>
  </scstep>
  <scstep>
   <time name="diag">   36.78   36.79</time>
   <time name="diis">  318.55  318.62</time>
   <time name="orth">    6.23    6.23</time>
   <time name="total">  376.90  376.99</time>
   <energy>
    <i name="e_fr_energy">   -862.73303843 </i>
    <i name="e_wo_entrp">   -862.71518269 </i>
    <i name="e_0_energy">   -862.72708652 </i>
   </energy>
  </scstep>
  <scstep>
   <time name="diag">   46.57   46.58</time>
   <time name="diis">  238.31  238.39</time>
   <time name="orth">    6.13    6.13</time>
   <time name="total">  306.29  306.40</time>
   <energy>
    <i name="e_fr_energy">   -862.70709024 </i>
    <i name="e_wo_entrp">   -862.69078249 </i>
    <i name="e_0_energy">   -862.70165432 </i>
   </energy>
  </scstep>
  <scstep>
   <time name="diag">   46.46   46.48</time>
   <time name="diis">  312.09  312.17</time>
   <time name="orth">    5.89    5.89</time>
   <time name="total">  377.00  377.11</time>
   <energy>
    <i name="e_fr_energy">   -862.70424233 </i>
    <i name="e_wo_entrp">   -862.68834447 </i>
    <i name="e_0_energy">   -862.69894304 </i>
   </energy>
  </scstep>
  <scstep>
   <time name="diag">   33.18   33.18</time>
   <time name="diis">  308.34  308.41</time>
   <time name="orth">    5.59    5.59</time>
   <time name="total">  357.82  357.91</time>
   <energy>
    <i name="e_fr_energy">   -862.70320524 </i>
    <i name="e_wo_entrp">   -862.68812991 </i>
    <i name="e_0_energy">   -862.69818013 </i>
   </energy>
  </scstep>
  <scstep>
   <time name="diag">   38.57   38.58</time>
   <time name="diis">  291.54  291.60</time>
   <time name="orth">    6.24    6.24</time>
   <time name="total">  351.65  351.73</time>
   <energy>
    <i name="e_fr_energy">   -862.70275195 </i>
    <i name="e_wo_entrp">   -862.68785090 </i>
    <i name="e_0_energy">   -862.69778494 </i>
   </energy>
  </scstep>
  <scstep>
   <time name="diag">   46.69   46.71</time>
   <time name="diis">  313.17  313.27</time>
   <time name="orth">    5.89    5.90</time>
   <time name="total">  378.50  378.63</time>
   <energy>
    <i name="e_fr_energy">   -862.70301126 </i>
    <i name="e_wo_entrp">   -862.68800441 </i>
    <i name="e_0_energy">   -862.69800898 </i>
   </energy>
  </scstep>
  <scstep>
   <time name="diag">   33.30   33.30</time>
   <time name="diis">  234.44  234.50</time>
   <time name="orth">    5.93    5.93</time>
   <time name="total">  286.32  286.39</time>
   <energy>
    <i name="e_fr_energy">   -862.70279029 </i>
    <i name="e_wo_entrp">   -862.68782191 </i>
    <i name="e_0_energy">   -862.69780083 </i>
   </energy>
  </scstep>
  <scstep>
   <time name="diag">   42.00   42.00</time>
   <time name="diis">  260.72  260.79</time>
   <time name="orth">    6.08    6.08</time>
   <time name="total">  322.10  322.17</time>
   <energy>
    <i name="e_fr_energy">   -862.70275388 </i>
    <i name="e_wo_entrp">   -862.68779980 </i>
    <i name="e_0_energy">   -862.69776919 </i>
   </energy>
  </scstep>
  <scstep>
   <time name="diag">   41.68   41.68</time>
   <time name="diis">  249.47  249.51</time>
   <time name="orth">    6.24    6.24</time>
   <time name="total">  312.96  313.00</time>
   <energy>
    <i name="e_fr_energy">   -862.70268071 </i>
    <i name="e_wo_entrp">   -862.68764174 </i>
    <i name="e_0_energy">   -862.69766772 </i>
   </energy>
  </scstep>
  <scstep>
   <time name="diag">   46.68   46.68</time>
   <time name="diis">  261.61  261.61</time>
   <time name="orth">    6.24    6.24</time>
   <time name="total">  328.33  328.34</time>
   <energy>
    <i name="e_fr_energy">   -862.70260081 </i>
    <i name="e_wo_entrp">   -862.68746715 </i>
    <i name="e_0_energy">   -862.69755626 </i>
   </energy>
  </scstep>
  <scstep>
   <time name="diag">   35.68   35.68</time>
   <time name="diis">  327.61  327.64</time>
   <time name="orth">    5.57    5.57</time>
   <time name="total">  378.97  379.01</time>
   <energy>
    <i name="e_fr_energy">   -862.70260429 </i>
    <i name="e_wo_entrp">   -862.68745446 </i>
    <i name="e_0_energy">   -862.69755434 </i>
   </energy>
  </scstep>
  <scstep>
   <time name="diag">   37.29   37.28</time>
   <time name="diis">  289.96  289.96</time>
   <time name="orth">    5.90    5.90</time>
   <time name="total">  344.38  344.37</time>
   <energy>
    <i name="e_fr_energy">   -862.70260057 </i>
    <i name="e_wo_entrp">   -862.68740601 </i>
    <i name="e_0_energy">   -862.69753572 </i>
   </energy>
  </scstep>
  <scstep>
   <time name="diag">   40.80   40.80</time>
   <time name="diis">  232.69  232.70</time>
   <time name="orth">    6.00    6.00</time>
   <time name="total">  279.81  279.83</time>
   <energy>
    <i name="alphaZ">   7085.54738553 </i>
    <i name="ewald"> -64767.35994670 </i>
    <i name="hartreedc">  -9664.78530687 </i>
    <i name="XCdc">    328.88416553 </i>
    <i name="pawpsdc">  57168.38004303 </i>
    <i name="pawaedc"> -58049.42436749 </i>
    <i name="eentropy">     -0.01519748 </i>
    <i name="bandstr">   3800.04858623 </i>
    <i name="atom">  63236.02203821 </i>
    <i name="e_fr_energy">   -862.70260000 </i>
    <i name="e_wo_entrp">   -862.68740252 </i>
    <i name="e_0_energy">   -862.69753417 </i>
   </energy>
  </scstep>
  <structure>
   <crystal>
    <varray name="basis" >
     <v>      10.33484705       0.00000000       0.00000000 </v>
     <v>       0.00000000      10.33484705       0.00000000 </v>
     <v>       0.00000000       0.00000000      10.33484705 </v>
    </varray>
    <i name="volume">   1103.85533447 </i>
    <varray name="rec_basis" >
     <v>       0.09676002       0.00000000       0.00000000 </v>
     <v>       0.00000000       0.09676002       0.00000000 </v>
     <v>       0.00000000       0.00000000       0.09676002 </v>
    </varray>
   </crystal>
   <varray name="positions" >
    <v>      -0.00030198      -0.00000000      -0.00005282 </v>
    <v>       0.00000055       0.16675172       0.16669546 </v>
    <v>      -0.00000692       0.33333170      -0.00007435 </v>
    <v>       0.00066446       0.50000001       0.16749391 </v>
    <v>      -0.00000694       0.66666834      -0.00007436 </v>
    <v>       0.00000055       0.83324825       0.16669547 </v>
    <v>      -0.00004162      -0.00000002       0.33343277 </v>
    <v>       0.00085789       0.16748218       0.49998217 </v>
    <v>       0.00018633       0.33315885       0.33322556 </v>
    <v>      -0.00071042       0.50000003       0.50028003 </v>
    <v>       0.00018632       0.66684118       0.33322557 </v>
    <v>       0.00085787       0.83251779       0.49998217 </v>
    <v>      -0.00010938      -0.00000002       0.66662926 </v>
    <v>       0.00009647       0.16674814       0.83335358 </v>
    <v>      -0.00012527       0.33338201       0.66675815 </v>
    <v>       0.00068199       0.50000001       0.83224700 </v>
    <v>      -0.00012529       0.66661803       0.66675814 </v>
    <v>       0.00009645       0.83325182       0.83335357 </v>
    <v>       0.16699404      -0.00000001       0.16663364 </v>
    <v>       0.16684425       0.16650777       0.00011578 </v>
    <v>       0.16684425       0.83349220       0.00011579 </v>
    <v>       0.16000112       0.32654793       0.49998406 </v>
    <v>       0.15906507       0.50000001       0.32761870 </v>
    <v>       0.16000113       0.67345210       0.49998405 </v>
    <v>       0.16664862       0.00000001       0.83331737 </v>
    <v>       0.15919649       0.50000001       0.67327613 </v>
    <v>       0.16647518       0.33320766       0.16677759 </v>
    <v>       0.16647517       0.66679237       0.16677760 </v>
    <v>       0.16663032       0.16667491       0.33307141 </v>
    <v>       0.16663032       0.83332505       0.33307141 </v>
    <v>       0.16556591       0.16768579       0.66681444 </v>
    <v>       0.16640413       0.33311706       0.83334661 </v>
    <v>       0.16640412       0.66688296       0.83334661 </v>
    <v>       0.16556590       0.83231418       0.66681443 </v>
    <v>       0.16573800       0.50000000      -0.00092435 </v>
    <v>       0.16650168      -0.00000002       0.50003353 </v>
    <v>       0.33333294      -0.00000000       0.00029243 </v>
    <v>       0.33333296       0.16722434       0.16746758 </v>
    <v>       0.33333297       0.83277563       0.16746759 </v>
    <v>       0.33333329       0.32666686       0.32678815 </v>
    <v>       0.33333330       0.67333316       0.32678817 </v>
    <v>       0.33333295       0.16754893       0.83250758 </v>
    <v>       0.33333322       0.32680961       0.67327176 </v>
    <v>       0.33333324       0.67319041       0.67327174 </v>
    <v>       0.33333296       0.83245104       0.83250758 </v>
    <v>       0.33333292       0.33331593      -0.00001583 </v>
    <v>       0.33333287       0.50000001       0.16620266 </v>
    <v>       0.33333293       0.66668410      -0.00001583 </v>
    <v>       0.33333293      -0.00000001       0.33304488 </v>
    <v>       0.33333292       0.16639204       0.49999919 </v>
    <v>       0.33333293       0.83360792       0.49999918 </v>
    <v>       0.33333287      -0.00000001       0.66671595 </v>
    <v>       0.33333298       0.50000001       0.83349963 </v>
    <v>       0.49967296      -0.00000001       0.16663366 </v>
    <v>       0.49982279       0.16650780       0.00011575 </v>
    <v>       0.50019187       0.33320766       0.16677764 </v>
    <v>       0.50092930       0.50000001      -0.00092442 </v>
    <v>       0.50019187       0.66679237       0.16677765 </v>
    <v>       0.49982279       0.83349217       0.00011575 </v>
    <v>       0.50016550      -0.00000002       0.50003355 </v>
    <v>       0.50003661       0.16667488       0.33307132 </v>
    <v>       0.50666501       0.32654899       0.49998401 </v>
    <v>       0.50760096       0.50000002       0.32761982 </v>
    <v>       0.50666502       0.67345104       0.49998402 </v>
    <v>       0.50003661       0.83332509       0.33307133 </v>
    <v>       0.50001851      -0.00000002       0.83331735 </v>
    <v>       0.50110119       0.16768589       0.66681447 </v>
    <v>       0.50026300       0.33311718       0.83334649 </v>
    <v>       0.50026302       0.66688285       0.83334647 </v>
    <v>       0.50110121       0.83231407       0.66681446 </v>
    <v>       0.66667396       0.33333171      -0.00007432 </v>
    <v>       0.66600272       0.50000001       0.16749385 </v>
    <v>       0.66667398       0.66666832      -0.00007433 </v>
    <v>       0.66670871      -0.00000002       0.33343281 </v>
    <v>       0.66580915       0.16748202       0.49998219 </v>
    <v>       0.66580916       0.83251792       0.49998221 </v>
    <v>       0.66677657      -0.00000003       0.66662928 </v>
    <v>       0.66598537       0.50000003       0.83224659 </v>
    <v>       0.66666649       0.16675177       0.16669545 </v>
    <v>       0.66666648       0.83324820       0.16669545 </v>
    <v>       0.66648078       0.33315886       0.33322545 </v>
    <v>       0.66648079       0.66684118       0.33322547 </v>
    <v>       0.66657050       0.16674808       0.83335358 </v>
    <v>       0.66679278       0.33338236       0.66675816 </v>
    <v>       0.66679278       0.66661770       0.66675816 </v>
    <v>       0.66657052       0.83325187       0.83335356 </v>
    <v>       0.66696900      -0.00000001      -0.00005289 </v>
    <v>       0.66737782       0.50000004       0.50028035 </v>
    <v>       0.83333284       0.50000002      -0.00083861 </v>
    <v>       0.83333291      -0.00000003       0.50010569 </v>
    <v>       0.83333292       0.33348570       0.16661719 </v>
    <v>       0.83333291       0.66651433       0.16661720 </v>
    <v>       0.83333294       0.16754517       0.33426584 </v>
    <v>       0.83333293       0.83245479       0.33426586 </v>
    <v>       0.83333294       0.16750677       0.66664226 </v>
    <v>       0.83333286       0.33351792       0.83318174 </v>
    <v>       0.83333284       0.66648211       0.83318173 </v>
    <v>       0.83333293       0.83249317       0.66664225 </v>
    <v>       0.83333298      -0.00000002       0.16636675 </v>
    <v>       0.83333294       0.16733732      -0.00089321 </v>
    <v>       0.83333293       0.83266265      -0.00089322 </v>
    <v>       0.83333281       0.33357547       0.50022043 </v>
    <v>       0.83333294       0.50000003       0.33420407 </v>
    <v>       0.83333281       0.66642457       0.50022044 </v>
    <v>       0.83333291      -0.00000001       0.83342320 </v>
    <v>       0.50746991       0.50000003       0.67327410 </v>
    <v>       0.33333599       0.50000004       0.50003617 </v>
[...]
       <r>    -6.1280    -0.0000     2.0000 </r>
       <r>    -6.0655    -0.0000     2.0000 </r>
       <r>    -6.0029    -0.0000     2.0000 </r>
       <r>    -5.9404    -0.0000     2.0000 </r>
       <r>    -5.8778    -0.0000     2.0000 </r>
       <r>    -5.8152    -0.0000     2.0000 </r>
       <r>    -5.7527    -0.0000     2.0000 </r>
       <r>    -5.6901    -0.0000     2.0000 </r>
       <r>    -5.6276     0.0000     2.0000 </r>
       <r>    -5.5650     0.0000     2.0000 </r>
       <r>    -5.5025     0.0000     2.0000 </r>
       <r>    -5.4399     0.0000     2.0000 </r>
       <r>    -5.3774     0.0000     2.0000 </r>
       <r>    -5.3148     0.0000     2.0000 </r>
       <r>    -5.2523     0.0000     2.0000 </r>
       <r>    -5.1897     0.0000     2.0000 </r>
       <r>    -5.1272     0.0000     2.0000 </r>
       <r>    -5.0646     0.0000     2.0000 </r>
       <r>    -5.0020     0.0000     2.0000 </r>
       <r>    -4.9395     0.0000     2.0000 </r>
       <r>    -4.8769     0.0000     2.0000 </r>
       <r>    -4.8144     0.0000     2.0000 </r>
       <r>    -4.7518     0.0000     2.0000 </r>
       <r>    -4.6893     0.0000     2.0000 </r>
       <r>    -4.6267     0.0000     2.0000 </r>
       <r>    -4.5642     0.0000     2.0000 </r>
       <r>    -4.5016     0.0000     2.0000 </r>
       <r>    -4.4391     0.0000     2.0000 </r>
       <r>    -4.3765     0.0000     2.0000 </r>
       <r>    -4.3139     0.0000     2.0000 </r>
       <r>    -4.2514     0.0000     2.0000 </r>
       <r>    -4.1888     0.0000     2.0000 </r>
       <r>    -4.1263     0.0000     2.0000 </r>
       <r>    -4.0637     0.0000     2.0000 </r>
       <r>    -4.0012     0.0000     2.0000 </r>
       <r>    -3.9386     0.0000     2.0000 </r>
       <r>    -3.8761     0.0000     2.0000 </r>
       <r>    -3.8135     0.0000     2.0000 </r>
       <r>    -3.7510     0.0000     2.0000 </r>
       <r>    -3.6884     0.0000     2.0000 </r>
       <r>    -3.6259     0.0000     2.0000 </r>
       <r>    -3.5633     0.0000     2.0000 </r>
       <r>    -3.5007     0.0000     2.0000 </r>
       <r>    -3.4382     0.0000     2.0000 </r>
       <r>    -3.3756     0.0000     2.0000 </r>
       <r>    -3.3131    -0.0000     2.0000 </r>
       <r>    -3.2505    -0.0000     2.0000 </r>
       <r>    -3.1880    -0.0000     2.0000 </r>
       <r>    -3.1254    -0.0000     2.0000 </r>
       <r>    -3.0629    -0.0000     2.0000 </r>
       <r>    -3.0003    -0.0000     2.0000 </r>
       <r>    -2.9378    -0.0000     2.0000 </r>
       <r>    -2.8752    -0.0000     2.0000 </r>
       <r>    -2.8127    -0.0000     2.0000 </r>
       <r>    -2.7501    -0.0000     2.0000 </r>
       <r>    -2.6875    -0.0000     2.0000 </r>
       <r>    -2.6250    -0.0000     2.0000 </r>
       <r>    -2.5624    -0.0000     2.0000 </r>
       <r>    -2.4999    -0.0000     2.0000 </r>
       <r>    -2.4373    -0.0000     2.0000 </r>
       <r>    -2.3748    -0.0000     2.0000 </r>
       <r>    -2.3122    -0.0001     2.0000 </r>
       <r>    -2.2497    -0.0008     1.9999 </r>
       <r>    -2.1871    -0.0036     1.9997 </r>
       <r>    -2.1246    -0.0130     1.9989 </r>
       <r>    -2.0620    -0.0370     1.9966 </r>
       <r>    -1.9995    -0.0810     1.9915 </r>
       <r>    -1.9369    -0.1265     1.9836 </r>
       <r>    -1.8743    -0.1020     1.9772 </r>
       <r>    -1.8118     0.1242     1.9850 </r>
       <r>    -1.7492     0.6905     2.0282 </r>
       <r>    -1.6867     1.6347     2.1304 </r>
       <r>    -1.6241     2.8027     2.3058 </r>
       <r>    -1.5616     3.8707     2.5479 </r>
       <r>    -1.4990     4.5177     2.8305 </r>
       <r>    -1.4365     4.6607     3.1220 </r>
       <r>    -1.3739     4.5931     3.4094 </r>
       <r>    -1.3114     4.8509     3.7128 </r>
       <r>    -1.2488     5.7301     4.0712 </r>
       <r>    -1.1863     6.8365     4.4989 </r>
       <r>    -1.1237     7.3772     4.9604 </r>
       <r>    -1.0611     7.1119     5.4052 </r>
       <r>    -0.9986     6.7724     5.8289 </r>
       <r>    -0.9360     7.2975     6.2854 </r>
       <r>    -0.8735     8.8310     6.8378 </r>
       <r>    -0.8109    10.6515     7.5041 </r>
       <r>    -0.7484    11.9380     8.2508 </r>
       <r>    -0.6858    12.4078     9.0270 </r>
       <r>    -0.6233    12.2166     9.7912 </r>
       <r>    -0.5607    11.5157    10.5115 </r>
       <r>    -0.4982    10.5338    11.1705 </r>
       <r>    -0.4356    10.0345    11.7982 </r>
       <r>    -0.3731    10.8817    12.4789 </r>
       <r>    -0.3105    12.6804    13.2721 </r>
       <r>    -0.2479    13.5932    14.1224 </r>
       <r>    -0.1854    12.2876    14.8910 </r>
       <r>    -0.1228     9.6169    15.4926 </r>
       <r>    -0.0603     7.7079    15.9747 </r>
       <r>     0.0023     7.8060    16.4630 </r>
       <r>     0.0648     9.5962    17.0633 </r>
       <r>     0.1274    12.1161    17.8212 </r>
       <r>     0.1899    14.5356    18.7305 </r>
       <r>     0.2525    16.2453    19.7467 </r>
       <r>     0.3150    16.8816    20.8027 </r>
       <r>     0.3776    16.4234    21.8301 </r>
       <r>     0.4401    15.1150    22.7756 </r>
       <r>     0.5027    13.3993    23.6137 </r>
       <r>     0.5653    11.9306    24.3600 </r>
       <r>     0.6278    11.3054    25.0672 </r>
       <r>     0.6904    11.6290    25.7947 </r>
       <r>     0.7529    12.5541    26.5800 </r>
       <r>     0.8155    13.7703    27.4414 </r>
       <r>     0.8780    15.2196    28.3934 </r>
       <r>     0.9406    16.8930    29.4501 </r>
       <r>     1.0031    18.6986    30.6198 </r>
       <r>     1.0657    20.4250    31.8975 </r>
       <r>     1.1282    21.6100    33.2493 </r>
       <r>     1.1908    21.7384    34.6091 </r>
       <r>     1.2533    20.8555    35.9137 </r>
       <r>     1.3159    19.6812    37.1448 </r>
       <r>     1.3785    18.9665    38.3313 </r>
       <r>     1.4410    19.1503    39.5292 </r>
       <r>     1.5036    20.6454    40.8206 </r>
       <r>     1.5661    23.6810    42.3020 </r>
       <r>     1.6287    27.4611    44.0198 </r>
       <r>     1.6912    30.1487    45.9057 </r>
       <r>     1.7538    30.5361    47.8158 </r>
       <r>     1.8163    29.7869    49.6791 </r>
       <r>     1.8789    31.0616    51.6221 </r>
       <r>     1.9414    37.1765    53.9477 </r>
       <r>     2.0040    48.5894    56.9871 </r>
       <r>     2.0665    63.3925    60.9526 </r>
       <r>     2.1291    78.6753    65.8740 </r>
       <r>     2.1917    91.5908    71.6034 </r>
       <r>     2.2542    99.8955    77.8522 </r>
       <r>     2.3168   102.8730    84.2874 </r>
       <r>     2.3793   102.1193    90.6753 </r>
       <r>     2.4419   100.6527    96.9715 </r>
       <r>     2.5044   100.8068   103.2774 </r>
       <r>     2.5670   103.0697   109.7248 </r>
       <r>     2.6295   106.7780   116.4042 </r>
       <r>     2.6921   111.5961   123.3849 </r>
       <r>     2.7546   118.0593   130.7700 </r>
       <r>     2.8172   126.3805   138.6756 </r>
       <r>     2.8797   135.0887   147.1259 </r>
       <r>     2.9423   141.9740   156.0070 </r>
       <r>     3.0049   146.5981   165.1772 </r>
       <r>     3.0674   150.7209   174.6054 </r>
       <r>     3.1300   155.7988   184.3512 </r>
       <r>     3.1925   161.0337   194.4245 </r>
       <r>     3.2551   164.3421   204.7048 </r>
       <r>     3.3176   164.4076   214.9891 </r>
       <r>     3.3802   161.3943   225.0850 </r>
       <r>     3.4427   156.5747   234.8793 </r>
       <r>     3.5053   151.9885   244.3868 </r>
       <r>     3.5678   149.6769   253.7497 </r>
       <r>     3.6304   150.0163   263.1338 </r>
       <r>     3.6929   150.8814   272.5720 </r>
       <r>     3.7555   149.3907   281.9170 </r>
       <r>     3.8181   144.6640   290.9662 </r>
       <r>     3.8806   138.5502   299.6331 </r>
       <r>     3.9432   133.8440   308.0056 </r>
       <r>     4.0057   131.9191   316.2576 </r>
       <r>     4.0683   131.6979   324.4958 </r>
       <r>     4.1308   130.8704   332.6823 </r>
       <r>     4.1934   128.5545   340.7239 </r>
       <r>     4.2559   126.7332   348.6515 </r>
       <r>     4.3185   128.5513   356.6929 </r>
       <r>     4.3810   135.1974   365.1500 </r>
       <r>     4.4436   145.0810   374.2254 </r>
       <r>     4.5061   155.9679   383.9818 </r>
       <r>     4.5687   166.5478   394.4000 </r>
       <r>     4.6313   175.2512   405.3627 </r>
       <r>     4.6938   179.3076   416.5791 </r>
       <r>     4.7564   177.2227   427.6650 </r>
       <r>     4.8189   172.0175   438.4254 </r>
       <r>     4.8815   170.1711   449.0703 </r>
       <r>     4.9440   176.4022   460.1049 </r>
       <r>     5.0066   189.6952   471.9711 </r>
       <r>     5.0691   204.5223   484.7648 </r>
       <r>     5.1317   215.6253   498.2530 </r>
       <r>     5.1942   221.6023   512.1151 </r>
       <r>     5.2568   224.5833   526.1636 </r>
       <r>     5.3193   227.5400   540.3971 </r>
       <r>     5.3819   232.3361   554.9307 </r>
       <r>     5.4445   239.3394   569.9023 </r>
       <r>     5.5070   247.1621   585.3632 </r>
       <r>     5.5696   252.1857   601.1384 </r>
       <r>     5.6321   249.6731   616.7564 </r>
       <r>     5.6947   237.0907   631.5874 </r>
       <r>     5.7572   216.7455   645.1457 </r>
       <r>     5.8198   194.4891   657.3117 </r>
       <r>     5.8823   175.4905   668.2893 </r>
       <r>     5.9449   161.5067   678.3922 </r>
       <r>     6.0074   151.9544   687.8975 </r>
       <r>     6.0700   146.3898   697.0548 </r>
       <r>     6.1326   145.1679   706.1356 </r>
       <r>     6.1951   148.3571   715.4159 </r>
       <r>     6.2577   154.9545   725.1089 </r>
       <r>     6.3202   163.1968   735.3175 </r>
       <r>     6.3828   171.4819   746.0444 </r>
       <r>     6.4453   179.3184   757.2615 </r>
       <r>     6.5079   187.2752   768.9762 </r>
       <r>     6.5704   195.3248   781.1946 </r>
       <r>     6.6330   201.5184   793.8003 </r>
       <r>     6.6955   203.5457   806.5329 </r>
       <r>     6.7581   201.6005   819.1438 </r>
       <r>     6.8206   198.1474   831.5387 </r>
       <r>     6.8832   194.4486   843.7022 </r>
       <r>     6.9458   189.0714   855.5294 </r>
       <r>     7.0083   180.9722   866.8499 </r>
       <r>     7.0709   172.6808   877.6517 </r>
       <r>     7.1334   168.6073   888.1988 </r>
       <r>     7.1960   170.3751   898.8564 </r>
       <r>     7.2585   175.2048   909.8162 </r>
       <r>     7.3211   179.2389   921.0282 </r>
       <r>     7.3836   181.5974   932.3879 </r>
       <r>     7.4462   184.9325   943.9561 </r>
       <r>     7.5087   192.7479   956.0132 </r>
       <r>     7.5713   205.7952   968.8865 </r>
       <r>     7.6338   219.0011   982.5859 </r>
       <r>     7.6964   221.1320   996.4186 </r>
       <r>     7.7590   200.3078  1008.9486 </r>
       <r>     7.8215   153.8908  1018.5751 </r>
       <r>     7.8841    93.8462  1024.4455 </r>
       <r>     7.9466    39.9987  1026.9476 </r>
       <r>     8.0092     6.2546  1027.3389 </r>
       <r>     8.0717    -6.7977  1026.9136 </r>
       <r>     8.1343    -7.5093  1026.4439 </r>
       <r>     8.1968    -4.4330  1026.1666 </r>
       <r>     8.2594    -1.8679  1026.0497 </r>
       <r>     8.3219    -0.6037  1026.0120 </r>
       <r>     8.3845    -0.1541  1026.0023 </r>
       <r>     8.4470    -0.0315  1026.0004 </r>
       <r>     8.5096    -0.0052  1026.0000 </r>
       <r>     8.5722    -0.0007  1026.0000 </r>
       <r>     8.6347    -0.0001  1026.0000 </r>
       <r>     8.6973    -0.0000  1026.0000 </r>
       <r>     8.7598    -0.0000  1026.0000 </r>
       <r>     8.8224    -0.0000  1026.0000 </r>
       <r>     8.8849    -0.0000  1026.0000 </r>
       <r>     8.9475    -0.0000  1026.0000 </r>
       <r>     9.0100    -0.0000  1026.0000 </r>
       <r>     9.0726    -0.0000  1026.0000 </r>
       <r>     9.1351     0.0000  1026.0000 </r>
       <r>     9.1977     0.0000  1026.0000 </r>
       <r>     9.2602     0.0000  1026.0000 </r>
       <r>     9.3228     0.0000  1026.0000 </r>
       <r>     9.3854     0.0000  1026.0000 </r>
       <r>     9.4479     0.0000  1026.0000 </r>
       <r>     9.5105     0.0000  1026.0000 </r>
       <r>     9.5730     0.0000  1026.0000 </r>
       <r>     9.6356     0.0000  1026.0000 </r>
       <r>     9.6981     0.0000  1026.0000 </r>
       <r>     9.7607     0.0000  1026.0000 </r>
       <r>     9.8232     0.0000  1026.0000 </r>
      </set>
     </set>
    </array>
   </total>
  </dos>
 </calculation>
 <structure name="finalpos" >
  <crystal>
   <varray name="basis" >
    <v>      10.33484705       0.00000000       0.00000000 </v>
    <v>       0.00000000      10.33484705       0.00000000 </v>
    <v>       0.00000000       0.00000000      10.33484705 </v>
   </varray>
   <i name="volume">   1103.85533447 </i>
   <varray name="rec_basis" >
    <v>       0.09676002       0.00000000       0.00000000 </v>
    <v>       0.00000000       0.09676002       0.00000000 </v>
    <v>       0.00000000       0.00000000       0.09676002 </v>
   </varray>
  </crystal>
  <varray name="positions" >
   <v>      -0.00082029       0.00000006      -0.00011546 </v>
   <v>      -0.00065478       0.16652301       0.16647255 </v>
   <v>      -0.00125810       0.33283498      -0.00009187 </v>
   <v>      -0.00109894       0.50000002       0.16628272 </v>
   <v>      -0.00125807       0.66716507      -0.00009184 </v>
   <v>      -0.00065478       0.83347705       0.16647258 </v>
   <v>      -0.00171019       0.00000006       0.33298769 </v>
   <v>      -0.00039626       0.16605155       0.50002625 </v>
   <v>      -0.00063006       0.33246109       0.33266200 </v>
   <v>      -0.00065533       0.49999999       0.50031940 </v>
   <v>      -0.00063021       0.66753898       0.33266192 </v>
   <v>      -0.00039640       0.83394864       0.50002628 </v>
   <v>      -0.00153736      -0.00000003       0.66714269 </v>
   <v>      -0.00011579       0.16634989       0.83385878 </v>
   <v>      -0.00131939       0.33282465       0.66741599 </v>
   <v>      -0.00137737       0.50000004       0.83321811 </v>
   <v>      -0.00131940       0.66717538       0.66741614 </v>
   <v>      -0.00011573       0.83365020       0.83385881 </v>
   <v>       0.16654541       0.00000005       0.16539434 </v>
   <v>       0.16653509       0.16518881       0.00022567 </v>
   <v>       0.16653509       0.83481125       0.00022572 </v>
   <v>       0.15780546       0.32451594       0.49977060 </v>
   <v>       0.15612977       0.50000005       0.32651489 </v>
   <v>       0.15780541       0.67548410       0.49977066 </v>
   <v>       0.16612999      -0.00000007       0.83414056 </v>
   <v>       0.15626894       0.50000000       0.67517674 </v>
   <v>       0.16577238       0.33315601       0.16591800 </v>
   <v>       0.16577238       0.66684404       0.16591806 </v>
   <v>       0.16616107       0.16554619       0.33239801 </v>
   <v>       0.16616101       0.83445394       0.33239801 </v>
   <v>       0.16402173       0.16775545       0.66743959 </v>
   <v>       0.16579543       0.33252485       0.83434676 </v>
   <v>       0.16579557       0.66747517       0.83434668 </v>
   <v>       0.16402201       0.83224445       0.66743954 </v>
   <v>       0.16436420       0.50000003      -0.00199662 </v>
   <v>       0.16613385       0.00000037       0.50042061 </v>
   <v>       0.33333331      -0.00000015       0.00019485 </v>
   <v>       0.33333332       0.16604239       0.16617741 </v>
   <v>       0.33333332       0.83395775       0.16617747 </v>
   <v>       0.33333338       0.32450585       0.32469053 </v>
   <v>       0.33333334       0.67549424       0.32469050 </v>
   <v>       0.33333336       0.16625939       0.83367307 </v>
   <v>       0.33333343       0.32482934       0.67521036 </v>
   <v>       0.33333336       0.67516931       0.67521018 </v>
   <v>       0.33333335       0.83374018       0.83367251 </v>
   <v>       0.33333334       0.33380591      -0.00017164 </v>
   <v>       0.33333340       0.50000000       0.16694817 </v>
   <v>       0.33333334       0.66619409      -0.00017179 </v>
   <v>       0.33333331      -0.00000003       0.33275185 </v>
   <v>       0.33333341       0.16694313       0.50025898 </v>
   <v>       0.33333333       0.83305696       0.50025903 </v>
   <v>       0.33333333      -0.00000011       0.66688609 </v>
   <v>       0.33333334       0.49999987       0.83221111 </v>
   <v>       0.50012119       0.00000003       0.16539431 </v>
   <v>       0.50013155       0.16518879       0.00022576 </v>
   <v>       0.50089425       0.33315599       0.16591806 </v>
   <v>       0.50230254       0.50000003      -0.00199655 </v>
   <v>       0.50089423       0.66684406       0.16591812 </v>
   <v>       0.50013154       0.83481125       0.00022580 </v>
   <v>       0.50053407      -0.00000004       0.50042068 </v>
   <v>       0.50050559       0.16554608       0.33239801 </v>
   <v>       0.50886095       0.32451618       0.49977073 </v>
   <v>       0.51053691       0.50000003       0.32651499 </v>
   <v>       0.50886117       0.67548401       0.49977072 </v>
   <v>       0.50050559       0.83445399       0.33239806 </v>
   <v>       0.50053665      -0.00000007       0.83414064 </v>
   <v>       0.50264497       0.16775543       0.66743969 </v>
   <v>       0.50087124       0.33252481       0.83434694 </v>
   <v>       0.50087105       0.66747519       0.83434681 </v>
   <v>       0.50264464       0.83224445       0.66743966 </v>
   <v>       0.66792479       0.33283500      -0.00009176 </v>
   <v>       0.66776562       0.50000002       0.16628272 </v>
   <v>       0.66792473       0.66716506      -0.00009173 </v>
   <v>       0.66837686       0.00000005       0.33298782 </v>
   <v>       0.66706307       0.16605133       0.50002625 </v>
   <v>       0.66706312       0.83394874       0.50002629 </v>
   <v>       0.66820402      -0.00000005       0.66714283 </v>
   <v>       0.66804427       0.50000003       0.83321822 </v>
   <v>       0.66732145       0.16652298       0.16647261 </v>
   <v>       0.66732143       0.83347706       0.16647262 </v>
   <v>       0.66729684       0.33246102       0.33266194 </v>
   <v>       0.66729689       0.66753904       0.33266198 </v>
   <v>       0.66678248       0.16634991       0.83385881 </v>
   <v>       0.66798614       0.33282459       0.66741615 </v>
   <v>       0.66798611       0.66717540       0.66741621 </v>
   <v>       0.66678240       0.83365016       0.83385885 </v>
   <v>       0.66748692       0.00000004      -0.00011541 </v>
   <v>       0.66732191       0.50000002       0.50031942 </v>
   <v>       0.83333335       0.50000002      -0.00155939 </v>
   <v>       0.83333343       0.00000008       0.50036786 </v>
   <v>       0.83333343       0.33337736       0.16532088 </v>
   <v>       0.83333336       0.66662270       0.16532086 </v>
   <v>       0.83333334       0.16744043       0.33497757 </v>
   <v>       0.83333330       0.83255965       0.33497752 </v>
   <v>       0.83333337       0.16718358       0.66724413 </v>
   <v>       0.83333339       0.33354635       0.83343674 </v>
   <v>       0.83333335       0.66645367       0.83343672 </v>
   <v>       0.83333335       0.83281655       0.66724411 </v>
   <v>       0.83333333       0.00000005       0.16604562 </v>
   <v>       0.83333335       0.16802913      -0.00168874 </v>
   <v>       0.83333334       0.83197093      -0.00168886 </v>
   <v>       0.83333337       0.33434151       0.50105026 </v>
   <v>       0.83333337       0.50000003       0.33492745 </v>
   <v>       0.83333339       0.66565855       0.50105019 </v>
   <v>       0.83333332       0.00000005       0.83313862 </v>
   <v>       0.51039752       0.49999995       0.67517652 </v>
   <v>       0.33333383       0.49999940       0.50031518 </v>
  </varray>
 </structure>
</modeling>
