Opt                                     
           1
    10.334847    0.000000    0.000000
     0.000000   10.334847    0.000000
     0.000000    0.000000   10.334847
   Fe   Te
 106   1
Direct configuration=     1
   0.00000000  0.00000000  0.00000000
   0.00000000  0.16666893  0.16666893
   0.00000000  0.33333106  0.00000000
   0.00000000  0.50000000  0.16666894
   0.00000000  0.66666897  0.00000000
   0.00000000  0.83333104  0.16666893
   0.00000000  0.00000000  0.33333106
   0.00000000  0.16666894  0.50000000
   0.00000000  0.33333107  0.33333107
   0.00000000  0.50000000  0.50000000
   0.00000000  0.66666896  0.33333107
   0.00000000  0.83333103  0.50000000
   0.00000000  0.00000000  0.66666897
   0.00000000  0.16666893  0.83333104
   0.00000000  0.33333107  0.66666896
   0.00000000  0.50000000  0.83333103
   0.00000000  0.66666896  0.66666896
   0.00000000  0.83333104  0.83333104
   0.16666893  0.00000000  0.16666893
   0.16666893  0.16666893  0.00000000
   0.16666893  0.83333104  0.00000000
   0.16666893  0.33333107  0.50000000
   0.16666893  0.50000000  0.33333107
   0.16666893  0.66666896  0.50000000
   0.16666893  0.00000000  0.83333104
   0.16666893  0.50000000  0.66666896
   0.16666893  0.33333107  0.16666893
   0.16666893  0.66666896  0.16666893
   0.16666893  0.16666893  0.33333107
   0.16666893  0.83333104  0.33333107
   0.16666893  0.16666893  0.66666896
   0.16666893  0.33333107  0.83333104
   0.16666893  0.66666896  0.83333104
   0.16666893  0.83333104  0.66666896
   0.16666894  0.50000000  0.00000000
   0.16666894  0.00000000  0.50000000
   0.33333106  0.00000000  0.00000000
   0.33333107  0.16666893  0.16666893
   0.33333107  0.83333104  0.16666893
   0.33333107  0.33333107  0.33333107
   0.33333107  0.66666896  0.33333107
   0.33333107  0.16666893  0.83333104
   0.33333107  0.33333107  0.66666896
   0.33333107  0.66666896  0.66666896
   0.33333107  0.83333104  0.83333104
   0.33333107  0.33333107  0.00000000
   0.33333107  0.50000000  0.16666893
   0.33333107  0.66666896  0.00000000
   0.33333107  0.00000000  0.33333107
   0.33333107  0.16666893  0.50000000
   0.33333107  0.83333104  0.50000000
   0.33333107  0.00000000  0.66666896
   0.33333107  0.50000000  0.83333104
   0.50000000  0.00000000  0.16666894
   0.50000000  0.16666894  0.00000000
   0.50000000  0.33333107  0.16666893
   0.50000000  0.50000000  0.00000000
   0.50000000  0.66666896  0.16666893
   0.50000000  0.83333103  0.00000000
   0.50000000  0.00000000  0.50000000
   0.50000000  0.16666893  0.33333107
   0.50000000  0.33333106  0.50000000
   0.50000000  0.50000000  0.33333106
   0.50000000  0.66666897  0.50000000
   0.50000000  0.83333104  0.33333107
   0.50000000  0.00000000  0.83333103
   0.50000000  0.16666893  0.66666896
   0.50000000  0.33333107  0.83333104
   0.50000000  0.66666896  0.83333104
   0.50000000  0.83333104  0.66666896
   0.66666896  0.33333107  0.00000000
   0.66666896  0.50000000  0.16666893
   0.66666896  0.66666896  0.00000000
   0.66666896  0.00000000  0.33333107
   0.66666896  0.16666893  0.50000000
   0.66666896  0.83333104  0.50000000
   0.66666896  0.00000000  0.66666896
   0.66666896  0.50000000  0.83333104
   0.66666896  0.16666893  0.16666893
   0.66666896  0.83333104  0.16666893
   0.66666896  0.33333107  0.33333107
   0.66666896  0.66666896  0.33333107
   0.66666896  0.16666893  0.83333104
   0.66666896  0.33333107  0.66666896
   0.66666896  0.66666896  0.66666896
   0.66666896  0.83333104  0.83333104
   0.66666897  0.00000000  0.00000000
   0.66666897  0.50000000  0.50000000
   0.83333103  0.50000000  0.00000000
   0.83333103  0.00000000  0.50000000
   0.83333104  0.33333107  0.16666893
   0.83333104  0.66666896  0.16666893
   0.83333104  0.16666893  0.33333107
   0.83333104  0.83333104  0.33333107
   0.83333104  0.16666893  0.66666896
   0.83333104  0.33333107  0.83333104
   0.83333104  0.66666896  0.83333104
   0.83333104  0.83333104  0.66666896
   0.83333104  0.00000000  0.16666893
   0.83333104  0.16666893  0.00000000
   0.83333104  0.83333104  0.00000000
   0.83333104  0.33333107  0.50000000
   0.83333104  0.50000000  0.33333107
   0.83333104  0.66666896  0.50000000
   0.83333104  0.00000000  0.83333104
   0.50000000  0.50000000  0.66666667
   0.33333106  0.50000000  0.50000000
Direct configuration=     2
  -0.00030198 -0.00000000 -0.00005282
   0.00000055  0.16675172  0.16669546
  -0.00000692  0.33333170 -0.00007435
   0.00066446  0.50000001  0.16749391
  -0.00000694  0.66666834 -0.00007436
   0.00000055  0.83324825  0.16669547
  -0.00004162 -0.00000002  0.33343277
   0.00085789  0.16748218  0.49998217
   0.00018633  0.33315885  0.33322556
  -0.00071042  0.50000003  0.50028003
   0.00018632  0.66684118  0.33322557
   0.00085787  0.83251779  0.49998217
  -0.00010938 -0.00000002  0.66662926
   0.00009647  0.16674814  0.83335358
  -0.00012527  0.33338201  0.66675815
   0.00068199  0.50000001  0.83224700
  -0.00012529  0.66661803  0.66675814
   0.00009645  0.83325182  0.83335357
   0.16699404 -0.00000001  0.16663364
   0.16684425  0.16650777  0.00011578
   0.16684425  0.83349220  0.00011579
   0.16000112  0.32654793  0.49998406
   0.15906507  0.50000001  0.32761870
   0.16000113  0.67345210  0.49998405
   0.16664862  0.00000001  0.83331737
   0.15919649  0.50000001  0.67327613
   0.16647518  0.33320766  0.16677759
   0.16647517  0.66679237  0.16677760
   0.16663032  0.16667491  0.33307141
   0.16663032  0.83332505  0.33307141
   0.16556591  0.16768579  0.66681444
   0.16640413  0.33311706  0.83334661
   0.16640412  0.66688296  0.83334661
   0.16556590  0.83231418  0.66681443
   0.16573800  0.50000000 -0.00092435
   0.16650168 -0.00000002  0.50003353
   0.33333294 -0.00000000  0.00029243
   0.33333296  0.16722434  0.16746758
   0.33333297  0.83277563  0.16746759
   0.33333329  0.32666686  0.32678815
   0.33333330  0.67333316  0.32678817
   0.33333295  0.16754893  0.83250758
   0.33333322  0.32680961  0.67327176
   0.33333324  0.67319041  0.67327174
   0.33333296  0.83245104  0.83250758
   0.33333292  0.33331593 -0.00001583
   0.33333287  0.50000001  0.16620266
   0.33333293  0.66668410 -0.00001583
   0.33333293 -0.00000001  0.33304488
   0.33333292  0.16639204  0.49999919
   0.33333293  0.83360792  0.49999918
   0.33333287 -0.00000001  0.66671595
   0.33333298  0.50000001  0.83349963
   0.49967296 -0.00000001  0.16663366
   0.49982279  0.16650780  0.00011575
   0.50019187  0.33320766  0.16677764
   0.50092930  0.50000001 -0.00092442
   0.50019187  0.66679237  0.16677765
   0.49982279  0.83349217  0.00011575
   0.50016550 -0.00000002  0.50003355
   0.50003661  0.16667488  0.33307132
   0.50666501  0.32654899  0.49998401
   0.50760096  0.50000002  0.32761982
   0.50666502  0.67345104  0.49998402
   0.50003661  0.83332509  0.33307133
   0.50001851 -0.00000002  0.83331735
   0.50110119  0.16768589  0.66681447
   0.50026300  0.33311718  0.83334649
   0.50026302  0.66688285  0.83334647
   0.50110121  0.83231407  0.66681446
   0.66667396  0.33333171 -0.00007432
   0.66600272  0.50000001  0.16749385
   0.66667398  0.66666832 -0.00007433
   0.66670871 -0.00000002  0.33343281
   0.66580915  0.16748202  0.49998219
   0.66580916  0.83251792  0.49998221
   0.66677657 -0.00000003  0.66662928
   0.66598537  0.50000003  0.83224659
   0.66666649  0.16675177  0.16669545
   0.66666648  0.83324820  0.16669545
   0.66648078  0.33315886  0.33322545
   0.66648079  0.66684118  0.33322547
   0.66657050  0.16674808  0.83335358
   0.66679278  0.33338236  0.66675816
   0.66679278  0.66661770  0.66675816
   0.66657052  0.83325187  0.83335356
   0.66696900 -0.00000001 -0.00005289
   0.66737782  0.50000004  0.50028035
   0.83333284  0.50000002 -0.00083861
   0.83333291 -0.00000003  0.50010569
   0.83333292  0.33348570  0.16661719
   0.83333291  0.66651433  0.16661720
   0.83333294  0.16754517  0.33426584
   0.83333293  0.83245479  0.33426586
   0.83333294  0.16750677  0.66664226
   0.83333286  0.33351792  0.83318174
   0.83333284  0.66648211  0.83318173
   0.83333293  0.83249317  0.66664225
   0.83333298 -0.00000002  0.16636675
   0.83333294  0.16733732 -0.00089321
   0.83333293  0.83266265 -0.00089322
   0.83333281  0.33357547  0.50022043
   0.83333294  0.50000003  0.33420407
   0.83333281  0.66642457  0.50022044
   0.83333291 -0.00000001  0.83342320
   0.50746991  0.50000003  0.67327410
   0.33333599  0.50000004  0.50003617
Direct configuration=     3
  -0.00036596 -0.00000001 -0.00006401
   0.00000067  0.16676926  0.16670108
  -0.00000839  0.33333183 -0.00009011
   0.00080524  0.50000002  0.16766870
  -0.00000841  0.66666821 -0.00009011
   0.00000066  0.83323071  0.16670109
  -0.00005043 -0.00000002  0.33345432
   0.00103965  0.16765448  0.49997839
   0.00022580  0.33312236  0.33320321
  -0.00086094  0.50000003  0.50033936
   0.00022579  0.66687767  0.33320322
   0.00103963  0.83234548  0.49997840
  -0.00013255 -0.00000002  0.66662085
   0.00011691  0.16676492  0.83335836
  -0.00015181  0.33339281  0.66677705
   0.00082648  0.50000002  0.83201732
  -0.00015183  0.66660724  0.66677704
   0.00011689  0.83323503  0.83335834
   0.16706292 -0.00000001  0.16662617
   0.16688139  0.16647362  0.00014032
   0.16688139  0.83352635  0.00014033
   0.15858841  0.32511078  0.49998068
   0.15745404  0.50000002  0.32640842
   0.15858842  0.67488924  0.49998067
   0.16664431  0.00000001  0.83331447
   0.15761330  0.50000002  0.67467599
   0.16643412  0.33318152  0.16680061
   0.16643412  0.66681851  0.16680062
   0.16662214  0.16667618  0.33301639
   0.16662214  0.83332378  0.33301639
   0.16533221  0.16790123  0.66684527
   0.16634802  0.33307172  0.83334991
   0.16634802  0.66692830  0.83334991
   0.16533219  0.83209873  0.66684525
   0.16554076  0.50000000 -0.00112020
   0.16646624 -0.00000002  0.50004063
   0.33333334 -0.00000001  0.00035439
   0.33333337  0.16734201  0.16763679
   0.33333338  0.83265796  0.16763680
   0.33333377  0.32525492  0.32540191
   0.33333378  0.67474511  0.32540193
   0.33333335  0.16773538  0.83233312
   0.33333368  0.32542791  0.67467069
   0.33333369  0.67457210  0.67467067
   0.33333336  0.83226460  0.83233312
   0.33333332  0.33331272 -0.00001919
   0.33333325  0.50000002  0.16610388
   0.33333332  0.66668731 -0.00001919
   0.33333333 -0.00000002  0.33298424
   0.33333331  0.16633338  0.49999902
   0.33333333  0.83366659  0.49999901
   0.33333325 -0.00000001  0.66672591
   0.33333338  0.50000001  0.83353535
   0.49960367 -0.00000002  0.16662618
   0.49978525  0.16647366  0.00014027
   0.50023252  0.33318151  0.16680067
   0.50112619  0.50000001 -0.00112028
   0.50023252  0.66681852  0.16680068
   0.49978525  0.83352631  0.00014028
   0.50020057 -0.00000002  0.50004065
   0.50004437  0.16667614  0.33301628
   0.50807712  0.32511208  0.49998063
   0.50921138  0.50000002  0.32640978
   0.50807714  0.67488796  0.49998064
   0.50004437  0.83332383  0.33301629
   0.50002243 -0.00000002  0.83331445
   0.50133450  0.16790135  0.66684530
   0.50031872  0.33307187  0.83334977
   0.50031875  0.66692816  0.83334974
   0.50133452  0.83209861  0.66684528
   0.66667502  0.33333184 -0.00009007
   0.66586156  0.50000002  0.16766862
   0.66667504  0.66666819 -0.00009007
   0.66671714 -0.00000002  0.33345436
   0.66562699  0.16765429  0.49997842
   0.66562699  0.83234564  0.49997844
   0.66679937 -0.00000004  0.66662087
   0.66584054  0.50000004  0.83201683
   0.66666596  0.16676932  0.16670107
   0.66666596  0.83323065  0.16670107
   0.66644091  0.33312237  0.33320308
   0.66644092  0.66687767  0.33320310
   0.66654964  0.16676485  0.83335836
   0.66681901  0.33339322  0.66677706
   0.66681901  0.66660684  0.66677706
   0.66654966  0.83323510  0.83335834
   0.66703257 -0.00000001 -0.00006409
   0.66752800  0.50000004  0.50033975
   0.83333322  0.50000002 -0.00101629
   0.83333330 -0.00000003  0.50012808
   0.83333331  0.33351846  0.16660623
   0.83333331  0.66648157  0.16660624
   0.83333335  0.16773081  0.33446389
   0.83333333  0.83226914  0.33446392
   0.83333334  0.16768428  0.66663660
   0.83333324  0.33355751  0.83315011
   0.83333322  0.66644253  0.83315009
   0.83333333  0.83231565  0.66663659
   0.83333339 -0.00000002  0.16630273
   0.83333334  0.16747893 -0.00108246
   0.83333333  0.83252103 -0.00108246
   0.83333319  0.33362726  0.50026713
   0.83333334  0.50000003  0.33438903
   0.83333318  0.66637280  0.50026715
   0.83333331 -0.00000002  0.83344273
   0.50905256  0.50000004  0.67467402
   0.33333703  0.50000005  0.50004383
Direct configuration=     4
  -0.00044704  0.00000004 -0.00007523
  -0.00022242  0.16666466  0.16664432
  -0.00066112  0.33331325 -0.00013469
  -0.00025739  0.49999998  0.16681854
  -0.00066103  0.66668672 -0.00013465
  -0.00022238  0.83333534  0.16664434
  -0.00080868  0.00000000  0.33337883
   0.00017607  0.16677889  0.49999108
  -0.00021171  0.33286438  0.33299038
  -0.00079790  0.49999991  0.50033884
  -0.00021169  0.66713563  0.33299035
   0.00017608  0.83322119  0.49999103
  -0.00082725  0.00000001  0.66665757
   0.00004349  0.16665810  0.83349279
  -0.00065698  0.33305098  0.66707580
  -0.00029954  0.49999993  0.83294162
  -0.00065690  0.66694901  0.66707578
   0.00004358  0.83334195  0.83349278
   0.16707572  0.00000002  0.16597957
   0.16691130  0.16575957  0.00017026
   0.16691128  0.83424042  0.00017027
   0.15825169  0.32486505  0.49989947
   0.15677429  0.49999998  0.32655025
   0.15825163  0.67513499  0.49989947
   0.16662604  0.00000002  0.83380769
   0.15702716  0.49999993  0.67483322
   0.16623978  0.33316726  0.16635675
   0.16623976  0.66683273  0.16635675
   0.16648121  0.16612778  0.33275455
   0.16648119  0.83387224  0.33275452
   0.16469538  0.16783490  0.66711511
   0.16609450  0.33284020  0.83386961
   0.16609450  0.66715979  0.83386964
   0.16469537  0.83216516  0.66711511
   0.16499576  0.49999999 -0.00156926
   0.16630324  0.00000001  0.50018583
   0.33333321  0.00000005  0.00037696
   0.33333319  0.16644934  0.16680131
   0.33333318  0.83355067  0.16680135
   0.33333334  0.32493037  0.32504333
   0.33333336  0.67506965  0.32504330
   0.33333323  0.16681916  0.83313418
   0.33333328  0.32521500  0.67491232
   0.33333329  0.67478504  0.67491249
   0.33333321  0.83318083  0.83313411
   0.33333325  0.33339975 -0.00005149
   0.33333318  0.49999996  0.16644404
   0.33333322  0.66660021 -0.00005151
   0.33333321  0.00000001  0.33280264
   0.33333316  0.16659063  0.50010819
   0.33333319  0.83340942  0.50010816
   0.33333321  0.00000002  0.66684287
   0.33333321  0.49999997  0.83306712
   0.49959060  0.00000005  0.16597967
   0.49975510  0.16575971  0.00017018
   0.50042666  0.33316733  0.16635681
   0.50167085  0.49999995 -0.00156923
   0.50042663  0.66683263  0.16635686
   0.49975505  0.83424030  0.00017015
   0.50036325  0.00000001  0.50018583
   0.50018514  0.16612777  0.33275453
   0.50841519  0.32486426  0.49989943
   0.50989251  0.49999995  0.32654970
   0.50841518  0.67513576  0.49989939
   0.50018511  0.83387226  0.33275455
   0.50004042  0.00000005  0.83380756
   0.50197112  0.16783496  0.66711515
   0.50057194  0.33284029  0.83386953
   0.50057192  0.66715967  0.83386955
   0.50197109  0.83216507  0.66711513
   0.66732780  0.33331320 -0.00013464
   0.66692407  0.49999993  0.16681858
   0.66732776  0.66668672 -0.00013464
   0.66747545  0.00000003  0.33337891
   0.66649054  0.16677880  0.49999102
   0.66649051  0.83322125  0.49999094
   0.66749407  0.00000006  0.66665764
   0.66696857  0.49999992  0.83294184
   0.66688915  0.16666481  0.16664433
   0.66688911  0.83333523  0.16664438
   0.66687842  0.33286440  0.33299027
   0.66687838  0.66713558  0.33299028
   0.66662316  0.16665807  0.83349279
   0.66732410  0.33305120  0.66707577
   0.66732400  0.66694875  0.66707575
   0.66662309  0.83334200  0.83349278
   0.66711373  0.00000009 -0.00007539
   0.66746531  0.49999993  0.50033899
   0.83333335  0.49999992 -0.00137332
   0.83333345  0.00000002  0.50021788
   0.83333350  0.33363199  0.16596873
   0.83333355  0.66636794  0.16596874
   0.83333348  0.16753238  0.33487805
   0.83333354  0.83246764  0.33487806
   0.83333353  0.16749735  0.66672259
   0.83333349  0.33376776  0.83343085
   0.83333350  0.66623216  0.83343088
   0.83333356  0.83250275  0.66672252
   0.83333366  0.00000007  0.16627772
   0.83333356  0.16792439 -0.00146119
   0.83333361  0.83207568 -0.00146119
   0.83333349  0.33382029  0.50052399
   0.83333358  0.49999993  0.33462263
   0.83333353  0.66617968  0.50052394
   0.83333357  0.00000008  0.83323869
   0.50963966  0.49999996  0.67483353
   0.33333245  0.49999991  0.50019362
Direct configuration=     5
  -0.00050635  0.00000007 -0.00008344
  -0.00038558  0.16658815  0.16660281
  -0.00113853  0.33329965 -0.00016730
  -0.00103461  0.49999996  0.16619672
  -0.00113836  0.66670026 -0.00016722
  -0.00038552  0.83341187  0.16660284
  -0.00136326  0.00000002  0.33332361
  -0.00045556  0.16613847  0.50000037
  -0.00053172  0.33267569  0.33283472
  -0.00075180  0.49999982  0.50033846
  -0.00053167  0.66732430  0.33283466
  -0.00045554  0.83386169  0.50000027
  -0.00133536  0.00000004  0.66668444
  -0.00001021  0.16657998  0.83359111
  -0.00102647  0.33280096  0.66729431
  -0.00112312  0.49999987  0.83361767
  -0.00102631  0.66719899  0.66729429
  -0.00001004  0.83342015  0.83359111
   0.16708508  0.00000004  0.16550664
   0.16693318  0.16523729  0.00019216
   0.16693315  0.83476270  0.00019217
   0.15800540  0.32468532  0.49984007
   0.15627711  0.49999995  0.32665399
   0.15800530  0.67531474  0.49984007
   0.16661268  0.00000003  0.83416844
   0.15659844  0.49999987  0.67494821
   0.16609764  0.33315683  0.16603210
   0.16609760  0.66684312  0.16603209
   0.16637813  0.16572667  0.33256303
   0.16637809  0.83427339  0.33256299
   0.16422960  0.16778639  0.66731247
   0.16590907  0.33267087  0.83424973
   0.16590907  0.66732911  0.83424977
   0.16422958  0.83221374  0.66731248
   0.16459714  0.49999998 -0.00189770
   0.16618403  0.00000003  0.50029202
   0.33333312  0.00000009  0.00039346
   0.33333306  0.16579642  0.16619024
   0.33333304  0.83420361  0.16619029
   0.33333303  0.32469298  0.32478106
   0.33333306  0.67530703  0.32478099
   0.33333315  0.16614903  0.83372009
   0.33333299  0.32505928  0.67508906
   0.33333299  0.67494078  0.67508936
   0.33333310  0.83385098  0.83371997
   0.33333321  0.33346341 -0.00007511
   0.33333312  0.49999992  0.16669283
   0.33333314  0.66653651 -0.00007515
   0.33333312  0.00000003  0.33266980
   0.33333305  0.16677878  0.50018804
   0.33333309  0.83322132  0.50018799
   0.33333318  0.00000004  0.66692841
   0.33333308  0.49999994  0.83272465
   0.49958104  0.00000010  0.16550679
   0.49973305  0.16523752  0.00019205
   0.50056865  0.33315696  0.16603216
   0.50206922  0.49999991 -0.00189761
   0.50056860  0.66684296  0.16603223
   0.49973296  0.83476252  0.00019200
   0.50048224  0.00000004  0.50029202
   0.50028811  0.16572668  0.33256308
   0.50866246  0.32468300  0.49984003
   0.51039069  0.49999991  0.32665203
   0.50866243  0.67531700  0.49983997
   0.50028805  0.83427339  0.33256311
   0.50005358  0.00000009  0.83416823
   0.50243675  0.16778640  0.66731252
   0.50075714  0.33267092  0.83424970
   0.50075709  0.66732900  0.83424975
   0.50243669  0.83221369  0.66731250
   0.66780525  0.33329956 -0.00016725
   0.66770120  0.49999987  0.16619685
   0.66780517  0.66670027 -0.00016724
   0.66803009  0.00000007  0.33332373
   0.66712216  0.16613846  0.50000023
   0.66712210  0.83386168  0.50000009
   0.66800218  0.00000013  0.66668454
   0.66779363  0.49999984  0.83361840
   0.66705239  0.16658837  0.16660282
   0.66705233  0.83341172  0.16660291
   0.66719842  0.33267571  0.33283462
   0.66719835  0.66732422  0.33283462
   0.66667693  0.16657997  0.83359111
   0.66769352  0.33280104  0.66729424
   0.66769336  0.66719882  0.66729422
   0.66667681  0.83342019  0.83359112
   0.66717309  0.00000017 -0.00008365
   0.66741946  0.49999984  0.50033844
   0.83333345  0.49999984 -0.00163446
   0.83333355  0.00000006  0.50028356
   0.83333363  0.33371503  0.16550245
   0.83333373  0.66628484  0.16550246
   0.83333358  0.16738725  0.33518097
   0.83333370  0.83261283  0.33518096
   0.83333367  0.16736063  0.66678549
   0.83333367  0.33392154  0.83363618
   0.83333370  0.66607829  0.83363625
   0.83333373  0.83263960  0.66678538
   0.83333385  0.00000014  0.16625943
   0.83333372  0.16825020 -0.00173819
   0.83333382  0.83174994 -0.00173820
   0.83333372  0.33396148  0.50071186
   0.83333375  0.49999986  0.33479348
   0.83333378  0.66603844  0.50071176
   0.83333376  0.00000014  0.83308946
   0.51006908  0.49999990  0.67495020
   0.33332910  0.49999980  0.50030319
Direct configuration=     6
  -0.00070301  0.00000003 -0.00008869
  -0.00052961  0.16654814  0.16652604
  -0.00120198  0.33298222 -0.00011469
  -0.00105423  0.49999996  0.16623983
  -0.00120193  0.66701771 -0.00011466
  -0.00052960  0.83345188  0.16652605
  -0.00157096  0.00000003  0.33305868
  -0.00042983  0.16608563  0.50001704
  -0.00060521  0.33254497  0.33271246
  -0.00072780  0.49999992  0.50035351
  -0.00060519  0.66745499  0.33271246
  -0.00042983  0.83391444  0.50001702
  -0.00145862  0.00000003  0.66698063
  -0.00007522  0.16645322  0.83373426
  -0.00119055  0.33277992  0.66738933
  -0.00114854  0.49999994  0.83340174
  -0.00119049  0.66722005  0.66738936
  -0.00007518  0.83354684  0.83373425
   0.16672347  0.00000002  0.16542758
   0.16664818  0.16517542  0.00019899
   0.16664816  0.83482460  0.00019905
   0.15784576  0.32455163  0.49979931
   0.15610296  0.49999996  0.32654049
   0.15784459  0.67544875  0.49979897
   0.16630425  0.00000003  0.83414929
   0.15627122  0.49999994  0.67516267
   0.16591633  0.33316305  0.16594068
   0.16591632  0.66683690  0.16594069
   0.16625532  0.16561521  0.33246797
   0.16625532  0.83438482  0.33246796
   0.16406992  0.16775374  0.66740293
   0.16581162  0.33258415  0.83432690
   0.16581158  0.66741580  0.83432693
   0.16406991  0.83224632  0.66740289
   0.16449035  0.49999996 -0.00195031
   0.16617749  0.00000004  0.50038373
   0.33333314  0.00000006  0.00026627
   0.33333311  0.16592046  0.16619367
   0.33333310  0.83407957  0.16619372
   0.33333319  0.32457076  0.32467313
   0.33333318  0.67542918  0.32467320
   0.33333324  0.16617506  0.83366915
   0.33333325  0.32487674  0.67524092
   0.33333324  0.67512319  0.67524100
   0.33333322  0.83382499  0.83366914
   0.33333321  0.33363321 -0.00009894
   0.33333331  0.49999994  0.16683948
   0.33333318  0.66636672 -0.00009895
   0.33333310  0.00000002  0.33273609
   0.33333317  0.16686909  0.50025224
   0.33333316  0.83313094  0.50025223
   0.33333318  0.00000005  0.66689273
   0.33333331  0.49999995  0.83248942
   0.49994291  0.00000005  0.16542742
   0.50001820  0.16517536  0.00019896
   0.50075010  0.33316302  0.16594064
   0.50217614  0.49999993 -0.00195037
   0.50075009  0.66683693  0.16594067
   0.50001820  0.83482465  0.00019899
   0.50048885  0.00000003  0.50038376
   0.50041110  0.16561510  0.33246789
   0.50882150  0.32455172  0.49979896
   0.51056300  0.49999994  0.32654120
   0.50882144  0.67544821  0.49979897
   0.50041107  0.83438494  0.33246791
   0.50036212  0.00000006  0.83414936
   0.50259651  0.16775369  0.66740311
   0.50085484  0.33258427  0.83432696
   0.50085486  0.66741567  0.83432701
   0.50259651  0.83224635  0.66740306
   0.66786871  0.33298205 -0.00011454
   0.66772110  0.49999991  0.16623975
   0.66786870  0.66701787 -0.00011454
   0.66823769  0.00000004  0.33305869
   0.66709664  0.16608557  0.50001699
   0.66709662  0.83391449  0.50001696
   0.66812538  0.00000005  0.66698074
   0.66781703  0.49999992  0.83340153
   0.66719631  0.16654817  0.16652604
   0.66719630  0.83345188  0.16652605
   0.66727197  0.33254490  0.33271237
   0.66727195  0.66745505  0.33271238
   0.66674201  0.16645328  0.83373428
   0.66785747  0.33278003  0.66738939
   0.66785742  0.66721992  0.66738942
   0.66674199  0.83354677  0.83373430
   0.66736973  0.00000006 -0.00008873
   0.66739439  0.49999992  0.50035359
   0.83333378  0.49999992 -0.00161680
   0.83333366  0.00000004  0.50035429
   0.83333353  0.33348074  0.16539952
   0.83333355  0.66651919  0.16539948
   0.83333385  0.16739578  0.33499783
   0.83333389  0.83260426  0.33499778
   0.83333353  0.16730967  0.66708541
   0.83333360  0.33367655  0.83350993
   0.83333360  0.66632337  0.83350993
   0.83333354  0.83269042  0.66708535
   0.83333346  0.00000006  0.16611398
   0.83333345  0.16817698 -0.00175148
   0.83333347  0.83182307 -0.00175154
   0.83333353  0.33415167  0.50087644
   0.83333362  0.49999992  0.33488856
   0.83333356  0.66584829  0.50087639
   0.83333349  0.00000004  0.83310356
   0.51039507  0.49999994  0.67516263
   0.33333466  0.50000007  0.50024245
Direct configuration=     7
  -0.00078738  0.00000001 -0.00009094
  -0.00059141  0.16653098  0.16649311
  -0.00122920  0.33284604 -0.00009212
  -0.00106264  0.49999996  0.16625832
  -0.00122921  0.66715391 -0.00009211
  -0.00059142  0.83346904  0.16649310
  -0.00166007  0.00000004  0.33294502
  -0.00041879  0.16606296  0.50002419
  -0.00063673  0.33248889  0.33266001
  -0.00071750  0.49999996  0.50035997
  -0.00063674  0.66751106  0.33266003
  -0.00041880  0.83393708  0.50002420
  -0.00151150  0.00000002  0.66710770
  -0.00010311  0.16639884  0.83379567
  -0.00126095  0.33277090  0.66743010
  -0.00115945  0.49999998  0.83330910
  -0.00126093  0.66722909  0.66743015
  -0.00010313  0.83360119  0.83379566
   0.16656833  0.00000001  0.16539366
   0.16652590  0.16514887  0.00020192
   0.16652589  0.83485116  0.00020201
   0.15777727  0.32449427  0.49978182
   0.15602825  0.49999997  0.32649179
   0.15777565  0.67550624  0.49978133
   0.16617192  0.00000003  0.83414108
   0.15613083  0.49999997  0.67525468
   0.16583854  0.33316571  0.16590145
   0.16583855  0.66683423  0.16590147
   0.16620263  0.16556739  0.33242718
   0.16620264  0.83443263  0.33242719
   0.16400141  0.16773974  0.66744174
   0.16576981  0.33254694  0.83436001
   0.16576975  0.66745300  0.83436004
   0.16400140  0.83226030  0.66744168
   0.16444453  0.49999995 -0.00197288
   0.16617469  0.00000004  0.50042308
   0.33333315  0.00000004  0.00021170
   0.33333313  0.16597368  0.16619514
   0.33333313  0.83402635  0.16619519
   0.33333326  0.32451833  0.32462683
   0.33333323  0.67548158  0.32462696
   0.33333328  0.16618623  0.83364730
   0.33333337  0.32479842  0.67530607
   0.33333335  0.67520145  0.67530606
   0.33333327  0.83381384  0.83364734
   0.33333321  0.33370607 -0.00010916
   0.33333339  0.49999994  0.16690240
   0.33333320  0.66629388 -0.00010916
   0.33333309  0.00000002  0.33276453
   0.33333322  0.16690783  0.50027979
   0.33333319  0.83309216  0.50027979
   0.33333317  0.00000005  0.66687742
   0.33333340  0.49999995  0.83238849
   0.50009817  0.00000002  0.16539337
   0.50014055  0.16514869  0.00020193
   0.50082795  0.33316562  0.16590138
   0.50222200  0.49999995 -0.00197301
   0.50082796  0.66683434  0.16590139
   0.50014057  0.83485130  0.00020199
   0.50049169  0.00000003  0.50042312
   0.50046387  0.16556723  0.33242705
   0.50888973  0.32449540  0.49978134
   0.51063692  0.49999995  0.32649365
   0.50888966  0.67550451  0.49978138
   0.50046385  0.83443280  0.33242707
   0.50049450  0.00000004  0.83414127
   0.50266506  0.16773965  0.66744198
   0.50089676  0.33254710  0.83436011
   0.50089681  0.66745286  0.83436016
   0.50266508  0.83226036  0.66744192
   0.66789593  0.33284583 -0.00009193
   0.66772964  0.49999993  0.16625815
   0.66789596  0.66715413 -0.00009192
   0.66832675  0.00000003  0.33294498
   0.66708569  0.16606288  0.50002419
   0.66708569  0.83393715  0.50002419
   0.66817823  0.00000002  0.66710782
   0.66782707  0.49999996  0.83330848
   0.66725806  0.16653092  0.16649310
   0.66725806  0.83346911  0.16649308
   0.66730353  0.33248877  0.33265992
   0.66730353  0.66751118  0.33265993
   0.66676994  0.16639893  0.83379570
   0.66792781  0.33277101  0.66743022
   0.66792780  0.66722898  0.66743026
   0.66676995  0.83360108  0.83379573
   0.66745410  0.00000001 -0.00009090
   0.66738364  0.49999995  0.50036009
   0.83333393  0.49999995 -0.00160922
   0.83333370  0.00000004  0.50038463
   0.83333348  0.33338022  0.16535536
   0.83333348  0.66661974  0.16535530
   0.83333397  0.16739944  0.33491926
   0.83333398  0.83260058  0.33491918
   0.83333347  0.16728781  0.66721408
   0.83333357  0.33357144  0.83345576
   0.83333356  0.66642852  0.83345574
   0.83333346  0.83271223  0.66721405
   0.83333329  0.00000002  0.16605158
   0.83333334  0.16814557 -0.00175718
   0.83333333  0.83185444 -0.00175726
   0.83333345  0.33423326  0.50094705
   0.83333356  0.49999994  0.33492935
   0.83333347  0.66576671  0.50094702
   0.83333338  0.00000000  0.83310962
   0.51053493  0.49999996  0.67525377
   0.33333705  0.50000019  0.50021639
Direct configuration=     8
  -0.00081925  0.00000003 -0.00010733
  -0.00062926  0.16652497  0.16647581
  -0.00124664  0.33283169 -0.00008889
  -0.00109183  0.50000001  0.16626068
  -0.00124665  0.66716832 -0.00008886
  -0.00062927  0.83347509  0.16647582
  -0.00169116  0.00000006  0.33295754
  -0.00040882  0.16605199  0.50002335
  -0.00063661  0.33246558  0.33265882
  -0.00068512  0.49999996  0.50034118
  -0.00063676  0.66753444  0.33265871
  -0.00040905  0.83394830  0.50002338
  -0.00153692  0.00000004  0.66713308
  -0.00012021  0.16636662  0.83383743
  -0.00129759  0.33278485  0.66742140
  -0.00127597  0.50000003  0.83329139
  -0.00129763  0.66721523  0.66742158
  -0.00012019  0.83363344  0.83383743
   0.16654069  0.00000006  0.16539314
   0.16651716  0.16516286  0.00021410
   0.16651714  0.83483721  0.00021417
   0.15779935  0.32451520  0.49977757
   0.15607773  0.50000001  0.32650574
   0.15779886  0.67548487  0.49977745
   0.16614003  0.00000002  0.83414192
   0.15624761  0.50000004  0.67517928
   0.16579831  0.33315609  0.16590481
   0.16579832  0.66684392  0.16590483
   0.16617868  0.16555615  0.33241174