       N       E                     dE             d eps       ncg     rms          rms(c)
DAV:   1     0.750951969423E+04    0.75095E+04   -0.28620E+05 32936   0.183E+03
DAV:   2    -0.238088678994E+02   -0.75333E+04   -0.73654E+04 32896   0.456E+02
DAV:   3    -0.839431677981E+03   -0.81562E+03   -0.69704E+03 33152   0.190E+02
DAV:   4    -0.101434933353E+04   -0.17492E+03   -0.16402E+03 59976   0.570E+01
DAV:   5    -0.102937684148E+04   -0.15028E+02   -0.14176E+02 52600   0.216E+01    0.928E+01
RMM:   6    -0.884496707166E+03    0.14488E+03   -0.14163E+03 32896   0.112E+02    0.444E+01
RMM:   7    -0.114911252710E+04   -0.26462E+03   -0.45232E+02 41355   0.362E+01    0.175E+02
RMM:   8    -0.892466091767E+03    0.25665E+03   -0.26560E+02 32896   0.473E+01    0.607E+01
RMM:   9    -0.868555677586E+03    0.23910E+02   -0.74465E+01 33609   0.188E+01    0.258E+01
RMM:  10    -0.869154626283E+03   -0.59895E+00   -0.49222E+01 48071   0.920E+00    0.111E+01
RMM:  11    -0.869461571157E+03   -0.30694E+00   -0.10890E+01 38476   0.579E+00    0.186E+01
RMM:  12    -0.867830365823E+03    0.16312E+01   -0.29893E+00 36036   0.362E+00    0.942E+00
RMM:  13    -0.867720445328E+03    0.10992E+00   -0.22849E+00 42134   0.223E+00    0.931E+00
RMM:  14    -0.867331436218E+03    0.38901E+00   -0.14468E+00 34853   0.267E+00    0.824E+00
RMM:  15    -0.867292383815E+03    0.39052E-01   -0.11114E+00 46376   0.135E+00    0.819E+00
RMM:  16    -0.867088701670E+03    0.20368E+00   -0.32727E-01 35350   0.131E+00    0.545E+00
RMM:  17    -0.866995412074E+03    0.93290E-01   -0.23480E-01 36196   0.982E-01    0.313E+00
RMM:  18    -0.866965510160E+03    0.29902E-01   -0.23088E-01 36669   0.943E-01    0.185E+00
RMM:  19    -0.866955199608E+03    0.10311E-01   -0.10123E-01 42517   0.517E-01    0.776E-01
RMM:  20    -0.866963782581E+03   -0.85830E-02   -0.60720E-02 41413   0.377E-01    0.150E+00
RMM:  21    -0.866955623005E+03    0.81596E-02   -0.24572E-02 34907   0.369E-01    0.797E-01
RMM:  22    -0.866956541691E+03   -0.91869E-03   -0.18550E-02 45556   0.175E-01    0.862E-01
RMM:  23    -0.866953689161E+03    0.28525E-02   -0.56191E-03 35209   0.172E-01    0.418E-01
RMM:  24    -0.866953062595E+03    0.62657E-03   -0.25957E-03 38099   0.957E-02    0.206E-01
RMM:  25    -0.866953184659E+03   -0.12206E-03   -0.20522E-03 47166   0.601E-02    0.250E-01
RMM:  26    -0.866952918947E+03    0.26571E-03   -0.42874E-04 35990   0.487E-02    0.108E-01
RMM:  27    -0.866952924366E+03   -0.54191E-05   -0.33994E-04 48994   0.220E-02    0.106E-01
RMM:  28    -0.866952864060E+03    0.60306E-04   -0.81040E-05 36757   0.252E-02    0.715E-02
RMM:  29    -0.866952829752E+03    0.34308E-04   -0.44682E-06 38605   0.147E-02    0.264E-02
RMM:  30    -0.866952824414E+03    0.53375E-05    0.76991E-06 41276   0.108E-02    0.380E-02
RMM:  31    -0.866952804722E+03    0.19692E-04    0.40786E-05 33813   0.800E-03    0.175E-02
RMM:  32    -0.866952800305E+03    0.44165E-05    0.36067E-05 26273   0.365E-03    0.156E-02
RMM:  33    -0.866952797834E+03    0.24714E-05    0.38300E-05 25225   0.464E-03    0.111E-02
RMM:  34    -0.866952794519E+03    0.33147E-05    0.32763E-05 20048   0.299E-03    0.716E-03
RMM:  35    -0.866952791136E+03    0.33826E-05    0.33743E-05 18809   0.222E-03    0.635E-03
RMM:  36    -0.866952788200E+03    0.29369E-05    0.30926E-05 18528   0.210E-03    0.257E-03
RMM:  37    -0.866952785692E+03    0.25080E-05    0.25866E-05 18271   0.105E-03    0.284E-03
RMM:  38    -0.866952784029E+03    0.16628E-05    0.23336E-05 18222   0.124E-03    0.250E-03
RMM:  39    -0.866952781928E+03    0.21010E-05    0.21636E-05 17295   0.785E-04    0.181E-03
RMM:  40    -0.866952780014E+03    0.19139E-05    0.19707E-05 14648   0.727E-04    0.144E-03
RMM:  41    -0.866952777999E+03    0.20145E-05    0.21024E-05 15800   0.611E-04    0.371E-04
RMM:  42    -0.866952776315E+03    0.16848E-05    0.16556E-05 10524   0.519E-04    0.350E-04
RMM:  43    -0.866952774656E+03    0.16585E-05    0.16529E-05  9409   0.449E-04    0.242E-04
RMM:  44    -0.866952773251E+03    0.14050E-05    0.13794E-05  7754   0.410E-04    0.194E-04
RMM:  45    -0.866952771947E+03    0.13045E-05    0.12644E-05  7774   0.392E-04    0.218E-04
RMM:  46    -0.866952770743E+03    0.12032E-05    0.11459E-05  7164   0.371E-04    0.123E-04
RMM:  47    -0.866952769665E+03    0.10786E-05    0.10559E-05  6831   0.358E-04    0.134E-04
RMM:  48    -0.866952768666E+03    0.99863E-06    0.96167E-06  6475   0.346E-04
   1 F= -.86695277E+03 E0= -.86693833E+03  d E =-.866953E+03
       N       E                     dE             d eps       ncg     rms          rms(c)
DAV:   1    -0.867335503029E+03   -0.38273E+00   -0.15785E+02 32896   0.180E+01    0.722E+00
RMM:   2    -0.888853626995E+03   -0.21518E+02   -0.81483E+01 39735   0.181E+01    0.429E+01
RMM:   3    -0.869844704287E+03    0.19009E+02   -0.15981E+01 32896   0.116E+01    0.207E+01
RMM:   4    -0.867791519662E+03    0.20532E+01   -0.27140E+00 34563   0.325E+00    0.105E+01
RMM:   5    -0.867665409098E+03    0.12611E+00   -0.10118E+00 45980   0.107E+00    0.742E+00
RMM:   6    -0.867552182558E+03    0.11323E+00   -0.60408E-01 42124   0.107E+00    0.372E+00
RMM:   7    -0.867523255038E+03    0.28928E-01   -0.34464E-01 38616   0.982E-01    0.301E+00
RMM:   8    -0.867541261611E+03   -0.18007E-01   -0.22897E-01 42441   0.736E-01    0.327E+00
RMM:   9    -0.867488003485E+03    0.53258E-01   -0.57571E-02 33177   0.576E-01    0.131E+00
RMM:  10    -0.867515493548E+03   -0.27490E-01   -0.12663E-01 39136   0.638E-01    0.282E+00
RMM:  11    -0.867518190242E+03   -0.26967E-02   -0.61186E-02 35107   0.512E-01    0.333E+00
RMM:  12    -0.867507037845E+03    0.11152E-01   -0.30270E-02 41773   0.273E-01    0.282E+00
RMM:  13    -0.867480612911E+03    0.26425E-01   -0.22729E-02 33217   0.339E-01    0.766E-01
RMM:  14    -0.867478900231E+03    0.17127E-02   -0.18218E-02 43073   0.178E-01    0.277E-01
RMM:  15    -0.867479477898E+03   -0.57767E-03   -0.54321E-03 47319   0.817E-02    0.404E-01
RMM:  16    -0.867478978621E+03    0.49928E-03   -0.11387E-03 37142   0.613E-02    0.211E-01
RMM:  17    -0.867478982773E+03   -0.41520E-05   -0.71146E-04 45835   0.362E-02    0.200E-01
RMM:  18    -0.867478856746E+03    0.12603E-03   -0.14917E-04 35488   0.254E-02    0.994E-02
RMM:  19    -0.867478836780E+03    0.19966E-04   -0.10168E-04 44492   0.146E-02    0.725E-02
RMM:  20    -0.867478827288E+03    0.94925E-05   -0.70449E-05 36740   0.168E-02    0.575E-02
RMM:  21    -0.867478811764E+03    0.15524E-04   -0.26655E-05 34418   0.125E-02    0.214E-02
RMM:  22    -0.867478815364E+03   -0.36004E-05   -0.30580E-05 43726   0.737E-03    0.290E-02
RMM:  23    -0.867478811948E+03    0.34165E-05   -0.71152E-06 30759   0.572E-03    0.137E-02
RMM:  24    -0.867478811280E+03    0.66757E-06   -0.10334E-06 22552   0.319E-03
   2 F= -.86747881E+03 E0= -.86746238E+03  d E =-.526043E+00
       N       E                     dE             d eps       ncg     rms          rms(c)
DAV:   1    -0.867550649940E+03   -0.71838E-01   -0.31849E+01 32928   0.802E+00    0.204E+00
RMM:   2    -0.870356460407E+03   -0.28058E+01   -0.59484E+00 36610   0.505E+00    0.212E+01
RMM:   3    -0.867638291697E+03    0.27182E+01   -0.11967E+00 32896   0.310E+00    0.376E+00
RMM:   4    -0.867580056561E+03    0.58235E-01   -0.29327E-01 41086   0.653E-01    0.135E+00
RMM:   5    -0.867592182430E+03   -0.12126E-01   -0.15026E-01 44561   0.487E-01    0.173E+00
RMM:   6    -0.867577823782E+03    0.14359E-01   -0.44455E-02 36300   0.397E-01    0.651E-01
RMM:   7    -0.867585092398E+03   -0.72686E-02   -0.46233E-02 41228   0.348E-01    0.136E+00
RMM:   8    -0.867578416419E+03    0.66760E-02   -0.13766E-02 33673   0.263E-01    0.912E-01
RMM:   9    -0.867576281965E+03    0.21345E-02   -0.91306E-03 34270   0.209E-01    0.772E-01
RMM:  10    -0.867574975006E+03    0.13070E-02   -0.53532E-03 37965   0.137E-01    0.353E-01
RMM:  11    -0.867574391851E+03    0.58315E-03   -0.21739E-03 35933   0.986E-02    0.103E-01
RMM:  12    -0.867574716293E+03   -0.32444E-03   -0.18625E-03 44075   0.616E-02    0.256E-01
RMM:  13    -0.867574404993E+03    0.31130E-03   -0.47025E-04 34719   0.496E-02    0.562E-02
RMM:  14    -0.867574428536E+03   -0.23543E-04   -0.35463E-04 47179   0.195E-02    0.694E-02
RMM:  15    -0.867574419425E+03    0.91104E-05   -0.81228E-05 38323   0.161E-02    0.453E-02
RMM:  16    -0.867574416197E+03    0.32284E-05   -0.38173E-05 41491   0.102E-02    0.354E-02
RMM:  17    -0.867574415469E+03    0.72750E-06   -0.17486E-05 35398   0.873E-03    0.321E-02
RMM:  18    -0.867574410661E+03    0.48080E-05   -0.53597E-06 28542   0.625E-03    0.112E-02
RMM:  19    -0.867574411306E+03   -0.64442E-06   -0.46187E-06 27197   0.447E-03
   3 F= -.86757441E+03 E0= -.86755744E+03  d E =-.956000E-01
       N       E                     dE             d eps       ncg     rms          rms(c)
DAV:   1    -0.867598548098E+03   -0.24137E-01   -0.14304E+01 32924   0.537E+00    0.697E-01
RMM:   2    -0.867896734110E+03   -0.29819E+00   -0.60757E-01 35303   0.186E+00    0.803E+00
RMM:   3    -0.867633043019E+03    0.26369E+00   -0.12733E-01 32896   0.997E-01    0.196E+00
RMM:   4    -0.867615872286E+03    0.17171E-01   -0.40059E-02 38769   0.331E-01    0.706E-01
RMM:   5    -0.867616412686E+03   -0.54040E-03   -0.25660E-02 44196   0.228E-01    0.800E-01
RMM:   6    -0.867612329967E+03    0.40827E-02   -0.79617E-03 35961   0.174E-01    0.366E-01
RMM:   7    -0.867613966517E+03   -0.16365E-02   -0.11754E-02 36174   0.215E-01    0.698E-01
RMM:   8    -0.867611826053E+03    0.21405E-02   -0.59178E-03 33154   0.171E-01    0.424E-01
RMM:   9    -0.867610882400E+03    0.94365E-03   -0.20436E-03 33493   0.115E-01    0.127E-01
RMM:  10    -0.867611098828E+03   -0.21643E-03   -0.16150E-03 41256   0.637E-02    0.230E-01
RMM:  11    -0.867610836874E+03    0.26195E-03   -0.41042E-04 34800   0.464E-02    0.545E-02
RMM:  12    -0.867610850333E+03   -0.13459E-04   -0.30300E-04 49004   0.161E-02    0.502E-02
RMM:  13    -0.867610849795E+03    0.53798E-06   -0.57944E-05 38845   0.128E-02    0.498E-02
RMM:  14    -0.867610838372E+03    0.11423E-04   -0.23990E-05 34834   0.109E-02    0.178E-02
RMM:  15    -0.867610845676E+03   -0.73043E-05   -0.35358E-05 39069   0.107E-02    0.392E-02
RMM:  16    -0.867610838659E+03    0.70168E-05   -0.10781E-05 31720   0.852E-03    0.113E-02
RMM:  17    -0.867610838670E+03   -0.11045E-07   -0.36501E-06 25519   0.314E-03
   4 F= -.86761084E+03 E0= -.86759400E+03  d E =-.364274E-01
       N       E                     dE             d eps       ncg     rms          rms(c)
DAV:   1    -0.867616960076E+03   -0.61214E-02   -0.12576E+01 32896   0.503E+00    0.498E-01
RMM:   2    -0.867722172729E+03   -0.10521E+00   -0.28261E-01 33571   0.143E+00    0.462E+00
RMM:   3    -0.867639259603E+03    0.82913E-01   -0.53006E-02 32896   0.609E-01    0.135E+00
RMM:   4    -0.867632109476E+03    0.71501E-02   -0.17754E-02 40374   0.230E-01    0.508E-01
RMM:   5    -0.867632022838E+03    0.86637E-04   -0.11799E-02 43266   0.164E-01    0.632E-01
RMM:   6    -0.867629076154E+03    0.29467E-02   -0.44715E-03 34545   0.148E-01    0.296E-01
RMM:   7    -0.867631836536E+03   -0.27604E-02   -0.12360E-02 35689   0.225E-01    0.815E-01
RMM:   8    -0.867628353519E+03    0.34830E-02   -0.46102E-03 32899   0.171E-01    0.243E-01
RMM:   9    -0.867628089414E+03    0.26410E-03   -0.15034E-03 36227   0.800E-02    0.120E-01
RMM:  10    -0.867628108669E+03   -0.19255E-04   -0.79295E-04 41593   0.434E-02    0.136E-01
RMM:  11    -0.867628018975E+03    0.89694E-04   -0.21156E-04 36309   0.291E-02    0.369E-02
RMM:  12    -0.867628028041E+03   -0.90652E-05   -0.14470E-04 49041   0.118E-02    0.442E-02
RMM:  13    -0.867628020992E+03    0.70490E-05   -0.25517E-05 36990   0.961E-03    0.301E-02
RMM:  14    -0.867628017332E+03    0.36598E-05   -0.13677E-05 35343   0.748E-03    0.136E-02
RMM:  15    -0.867628022149E+03   -0.48176E-05   -0.19844E-05 38307   0.825E-03    0.313E-02
RMM:  16    -0.867628017473E+03    0.46770E-05   -0.65445E-06 28742   0.679E-03    0.738E-03
RMM:  17    -0.867628017734E+03   -0.26134E-06   -0.22942E-06 21350   0.316E-03
   5 F= -.86762802E+03 E0= -.86761144E+03  d E =-.171791E-01
       N       E                     dE             d eps       ncg     rms          rms(c)
DAV:   1    -0.867629722599E+03   -0.17051E-02   -0.25274E+00 33660   0.225E+00    0.225E-01
RMM:   2    -0.867656586262E+03   -0.26864E-01   -0.60684E-02 33754   0.640E-01    0.254E+00
RMM:   3    -0.867634640446E+03    0.21946E-01   -0.13044E-02 32896   0.307E-01    0.662E-01
RMM:   4    -0.867632652271E+03    0.19882E-02   -0.40380E-03 38395   0.117E-01    0.224E-01
RMM:   5    -0.867632680473E+03   -0.28202E-04   -0.29158E-03 43892   0.801E-02    0.302E-01
RMM:   6    -0.867631997206E+03    0.68327E-03   -0.95547E-04 34899   0.650E-02    0.135E-01
RMM:   7    -0.867632395638E+03   -0.39843E-03   -0.21417E-03 34920   0.972E-02    0.316E-01
RMM:   8    -0.867631894216E+03    0.50142E-03   -0.77245E-04 32941   0.690E-02    0.128E-01
RMM:   9    -0.867631815960E+03    0.78255E-04   -0.23438E-04 36078   0.321E-02    0.479E-02
RMM:  10    -0.867631837473E+03   -0.21513E-04   -0.18246E-04 43683   0.198E-02    0.760E-02
RMM:  11    -0.867631809126E+03    0.28348E-04   -0.44625E-05 34950   0.148E-02    0.251E-02
RMM:  12    -0.867631808346E+03    0.78004E-06   -0.29616E-05 41837   0.637E-03    0.135E-02
RMM:  13    -0.867631808623E+03   -0.27733E-06   -0.67171E-06 27972   0.465E-03
   6 F= -.86763181E+03 E0= -.86761538E+03  d E =-.379089E-02
       N       E                     dE             d eps       ncg     rms          rms(c)
DAV:   1    -0.867632073784E+03   -0.26544E-03   -0.10002E+00 33572   0.142E+00    0.172E-01
RMM:   2    -0.867653000058E+03   -0.20926E-01   -0.36061E-02 34967   0.454E-01    0.233E+00
RMM:   3    -0.867634677091E+03    0.18323E-01   -0.90971E-03 32896   0.261E-01    0.530E-01
RMM:   4    -0.867633237927E+03    0.14392E-02   -0.25473E-03 37229   0.917E-02    0.177E-01
RMM:   5    -0.867633273430E+03   -0.35502E-04   -0.18949E-03 43929   0.633E-02    0.224E-01
RMM:   6    -0.867632924082E+03    0.34935E-03   -0.52611E-04 35222   0.479E-02    0.802E-02
RMM:   7    -0.867633136596E+03   -0.21251E-03   -0.10346E-03 36801   0.623E-02    0.223E-01
RMM:   8    -0.867632874448E+03    0.26215E-03   -0.36639E-04 32905   0.467E-02    0.746E-02
RMM:   9    -0.867632854980E+03    0.19468E-04   -0.14140E-04 38072   0.220E-02    0.408E-02
RMM:  10    -0.867632862176E+03   -0.71960E-05   -0.79566E-05 41899   0.137E-02    0.523E-02
RMM:  11    -0.867632848558E+03    0.13618E-04   -0.20210E-05 34390   0.100E-02    0.134E-02
RMM:  12    -0.867632848960E+03   -0.40152E-06   -0.13402E-05 33498   0.380E-03    0.111E-02
RMM:  13    -0.867632848786E+03    0.17331E-06   -0.24290E-06 20270   0.363E-03
   7 F= -.86763285E+03 E0= -.86761651E+03  d E =-.104016E-02
       N       E                     dE             d eps       ncg     rms          rms(c)
DAV:   1    -0.867632917154E+03   -0.68194E-04   -0.11687E-01 34224   0.484E-01    0.658E-02
RMM:   2    -0.867636069333E+03   -0.31522E-02   -0.56384E-03 35638   0.170E-01    0.878E-01
RMM:   3    -0.867633289093E+03    0.27802E-02   -0.13978E-03 32896   0.103E-01    0.230E-01
RMM:   4    -0.867633049924E+03    0.23917E-03   -0.43807E-04 36553   0.369E-02    0.685E-02
RMM:   5    -0.867633053596E+03   -0.36726E-05   -0.28786E-04 44860   0.237E-02    0.787E-02
RMM:   6    -0.867633012506E+03    0.41090E-04   -0.77088E-05 36365   0.166E-02    0.311E-02
RMM:   7    -0.867633030898E+03   -0.18392E-04   -0.10719E-04 37095   0.195E-02    0.702E-02
RMM:   8    -0.867633007562E+03    0.23336E-04   -0.43286E-05 32987   0.150E-02    0.344E-02
RMM:   9    -0.867633002161E+03    0.54014E-05   -0.15071E-05 33856   0.862E-03    0.143E-02
RMM:  10    -0.867633004175E+03   -0.20145E-05   -0.13069E-05 35341   0.597E-03    0.228E-02
RMM:  11    -0.867633001617E+03    0.25588E-05   -0.30061E-06 22370   0.465E-03    0.751E-03
RMM:  12    -0.867633001376E+03    0.24092E-06   -0.11981E-06 18533   0.218E-03
   8 F= -.86763300E+03 E0= -.86761670E+03  d E =-.152589E-03
