 108 108   0   0
  0.1022088E+02  0.1033485E-08  0.1033485E-08  0.1033485E-08  0.5000000E-15
  1.000000000000000E-004
  CAR 
 Opt                                     
      9.79544557     -3.92620155  301      6.80382705      1.00000000
     -3.926  0.0000E+00  0.0000E+00
     -3.880  0.0000E+00  0.0000E+00
     -3.835  0.0000E+00  0.0000E+00
     -3.789  0.0000E+00  0.0000E+00
     -3.743  0.0000E+00  0.0000E+00
     -3.698  0.0000E+00  0.0000E+00
     -3.652  0.0000E+00  0.0000E+00
     -3.606  0.0000E+00  0.0000E+00
     -3.560 -0.1284E-29 -0.5871E-31
     -3.515 -0.4842E-28 -0.2273E-29
     -3.469 -0.1682E-26 -0.7922E-28
     -3.423 -0.5258E-25 -0.2484E-26
     -3.377 -0.1478E-23 -0.7009E-25
     -3.332 -0.3738E-22 -0.1780E-23
     -3.286 -0.8499E-21 -0.4065E-22
     -3.240 -0.1738E-19 -0.8355E-21
     -3.194 -0.3194E-18 -0.1545E-19
     -3.149 -0.5279E-17 -0.2569E-18
     -3.103 -0.7536E-16 -0.3704E-17
     -3.057 -0.1016E-14 -0.5016E-16
     -3.011 -0.1211E-13 -0.6042E-15
     -2.966 -0.1300E-12 -0.6552E-14
     -2.920 -0.1252E-11 -0.6383E-13
     -2.874 -0.1082E-10 -0.5586E-12
     -2.828 -0.8378E-10 -0.4391E-11
     -2.783 -0.5813E-09 -0.3098E-10
     -2.737 -0.3611E-08 -0.1961E-09
     -2.691 -0.2006E-07 -0.1114E-08
     -2.646 -0.9956E-07 -0.5667E-08
     -2.600 -0.4408E-06 -0.2583E-07
     -2.554 -0.1738E-05 -0.1053E-06
     -2.508 -0.6089E-05 -0.3838E-06
     -2.463 -0.1889E-04 -0.1248E-05
     -2.417 -0.5167E-04 -0.3611E-05
     -2.371 -0.1238E-03 -0.9276E-05
     -2.325 -0.2577E-03 -0.2106E-04
     -2.280 -0.4577E-03 -0.4200E-04
     -2.234 -0.6726E-03 -0.7276E-04
     -2.188 -0.7548E-03 -0.1073E-03
     -2.142 -0.4604E-03 -0.1283E-03
     -2.097  0.4814E-03 -0.1063E-03
     -2.051  0.2254E-02 -0.3220E-05
     -2.005  0.4897E-02  0.2208E-03
     -1.959  0.8377E-02  0.6039E-03
     -1.914  0.1270E-01  0.1185E-02
     -1.868  0.1789E-01  0.2003E-02
     -1.822  0.2373E-01  0.3089E-02
     -1.776  0.2953E-01  0.4440E-02
     -1.731  0.3434E-01  0.6010E-02
     -1.685  0.3746E-01  0.7724E-02
     -1.639  0.3891E-01  0.9504E-02
     -1.594  0.3937E-01  0.1130E-01
     -1.548  0.3973E-01  0.1312E-01
     -1.502  0.4069E-01  0.1498E-01
     -1.456  0.4270E-01  0.1694E-01
     -1.411  0.4596E-01  0.1904E-01
     -1.365  0.5056E-01  0.2135E-01
     -1.319  0.5635E-01  0.2393E-01
     -1.273  0.6285E-01  0.2680E-01
     -1.228  0.6890E-01  0.2995E-01
     -1.182  0.7273E-01  0.3328E-01
     -1.136  0.7261E-01  0.3660E-01
     -1.090  0.6808E-01  0.3972E-01
     -1.045  0.6070E-01  0.4249E-01
     -0.999  0.5363E-01  0.4495E-01
     -0.953  0.5017E-01  0.4724E-01
     -0.907  0.5231E-01  0.4963E-01
     -0.862  0.6019E-01  0.5239E-01
     -0.816  0.7235E-01  0.5569E-01
     -0.770  0.8657E-01  0.5965E-01
     -0.724  0.1002E+00  0.6424E-01
     -0.679  0.1104E+00  0.6929E-01
     -0.633  0.1141E+00  0.7451E-01
     -0.587  0.1095E+00  0.7952E-01
     -0.542  0.9727E-01  0.8396E-01
     -0.496  0.8162E-01  0.8770E-01
     -0.450  0.6848E-01  0.9083E-01
     -0.404  0.6298E-01  0.9371E-01
     -0.359  0.6712E-01  0.9678E-01
     -0.313  0.7928E-01  0.1004E+00
     -0.267  0.9538E-01  0.1048E+00
     -0.221  0.1108E+00  0.1098E+00
     -0.176  0.1219E+00  0.1154E+00
     -0.130  0.1265E+00  0.1212E+00
     -0.084  0.1250E+00  0.1269E+00
     -0.038  0.1195E+00  0.1324E+00
      0.007  0.1139E+00  0.1376E+00
      0.053  0.1115E+00  0.1427E+00
      0.099  0.1138E+00  0.1479E+00
      0.145  0.1199E+00  0.1534E+00
      0.190  0.1274E+00  0.1592E+00
      0.236  0.1341E+00  0.1653E+00
      0.282  0.1388E+00  0.1717E+00
      0.328  0.1411E+00  0.1781E+00
      0.373  0.1412E+00  0.1846E+00
      0.419  0.1389E+00  0.1910E+00
      0.465  0.1344E+00  0.1971E+00
      0.510  0.1283E+00  0.2030E+00
      0.556  0.1224E+00  0.2086E+00
      0.602  0.1200E+00  0.2141E+00
      0.648  0.1248E+00  0.2198E+00
      0.693  0.1392E+00  0.2261E+00
      0.739  0.1618E+00  0.2335E+00
      0.785  0.1871E+00  0.2421E+00
      0.831  0.2071E+00  0.2516E+00
      0.876  0.2161E+00  0.2614E+00
      0.922  0.2139E+00  0.2712E+00
      0.968  0.2051E+00  0.2806E+00
      1.014  0.1956E+00  0.2896E+00
      1.059  0.1882E+00  0.2982E+00
      1.105  0.1815E+00  0.3065E+00
      1.151  0.1732E+00  0.3144E+00
      1.197  0.1645E+00  0.3219E+00
      1.242  0.1613E+00  0.3293E+00
      1.288  0.1716E+00  0.3371E+00
      1.334  0.1994E+00  0.3463E+00
      1.380  0.2413E+00  0.3573E+00
      1.425  0.2867E+00  0.3704E+00
      1.471  0.3220E+00  0.3851E+00
      1.517  0.3364E+00  0.4005E+00
      1.562  0.3268E+00  0.4155E+00
      1.608  0.2996E+00  0.4292E+00
      1.654  0.2697E+00  0.4415E+00
      1.700  0.2553E+00  0.4532E+00
      1.745  0.2725E+00  0.4657E+00
      1.791  0.3297E+00  0.4807E+00
      1.837  0.4247E+00  0.5002E+00
      1.883  0.5458E+00  0.5251E+00
      1.928  0.6759E+00  0.5560E+00
      1.974  0.7992E+00  0.5926E+00
      2.020  0.9041E+00  0.6339E+00
      2.066  0.9841E+00  0.6790E+00
      2.111  0.1035E+01  0.7263E+00
      2.157  0.1056E+01  0.7746E+00
      2.203  0.1051E+01  0.8227E+00
      2.249  0.1031E+01  0.8698E+00
      2.294  0.1012E+01  0.9161E+00
      2.340  0.1010E+01  0.9623E+00
      2.386  0.1030E+01  0.1009E+01
      2.431  0.1067E+01  0.1058E+01
      2.477  0.1109E+01  0.1109E+01
      2.523  0.1143E+01  0.1161E+01
      2.569  0.1167E+01  0.1215E+01
      2.614  0.1192E+01  0.1269E+01
      2.660  0.1229E+01  0.1325E+01
      2.706  0.1283E+01  0.1384E+01
      2.752  0.1348E+01  0.1446E+01
      2.797  0.1411E+01  0.1510E+01
      2.843  0.1464E+01  0.1577E+01
      2.889  0.1511E+01  0.1646E+01
      2.935  0.1559E+01  0.1718E+01
      2.980  0.1613E+01  0.1791E+01
      3.026  0.1667E+01  0.1868E+01
      3.072  0.1703E+01  0.1946E+01
      3.118  0.1710E+01  0.2024E+01
      3.163  0.1688E+01  0.2101E+01
      3.209  0.1648E+01  0.2176E+01
      3.255  0.1605E+01  0.2250E+01
      3.301  0.1565E+01  0.2321E+01
      3.346  0.1531E+01  0.2391E+01
      3.392  0.1505E+01  0.2460E+01
      3.438  0.1490E+01  0.2528E+01
      3.483  0.1489E+01  0.2597E+01
      3.529  0.1501E+01  0.2665E+01
      3.575  0.1511E+01  0.2734E+01
      3.621  0.1507E+01  0.2803E+01
      3.666  0.1479E+01  0.2871E+01
      3.712  0.1432E+01  0.2936E+01
      3.758  0.1379E+01  0.2999E+01
      3.804  0.1340E+01  0.3061E+01
      3.849  0.1323E+01  0.3121E+01
      3.895  0.1326E+01  0.3182E+01
      3.941  0.1332E+01  0.3243E+01
      3.987  0.1324E+01  0.3303E+01
      4.032  0.1296E+01  0.3363E+01
      4.078  0.1262E+01  0.3420E+01
      4.124  0.1245E+01  0.3477E+01
      4.170  0.1263E+01  0.3535E+01
      4.215  0.1317E+01  0.3595E+01
      4.261  0.1391E+01  0.3659E+01
      4.307  0.1472E+01  0.3726E+01
      4.353  0.1555E+01  0.3797E+01
      4.398  0.1644E+01  0.3873E+01
      4.444  0.1740E+01  0.3952E+01
      4.490  0.1826E+01  0.4036E+01
      4.535  0.1878E+01  0.4122E+01
      4.581  0.1880E+01  0.4208E+01
      4.627  0.1832E+01  0.4291E+01
      4.673  0.1760E+01  0.4372E+01
      4.718  0.1702E+01  0.4450E+01
      4.764  0.1696E+01  0.4527E+01
      4.810  0.1760E+01  0.4608E+01
      4.856  0.1888E+01  0.4694E+01
      4.901  0.2048E+01  0.4788E+01
      4.947  0.2196E+01  0.4888E+01
      4.993  0.2296E+01  0.4993E+01
      5.039  0.2334E+01  0.5100E+01
      5.084  0.2320E+01  0.5206E+01
      5.130  0.2279E+01  0.5310E+01
      5.176  0.2238E+01  0.5413E+01
      5.222  0.2221E+01  0.5514E+01
      5.267  0.2243E+01  0.5617E+01
      5.313  0.2312E+01  0.5723E+01
      5.359  0.2423E+01  0.5833E+01
      5.405  0.2551E+01  0.5950E+01
      5.450  0.2655E+01  0.6072E+01
      5.496  0.2686E+01  0.6194E+01
      5.542  0.2613E+01  0.6314E+01
      5.587  0.2445E+01  0.6426E+01
      5.633  0.2224E+01  0.6528E+01
      5.679  0.2006E+01  0.6619E+01
      5.725  0.1833E+01  0.6703E+01
      5.770  0.1713E+01  0.6781E+01
      5.816  0.1628E+01  0.6856E+01
      5.862  0.1555E+01  0.6927E+01
      5.908  0.1483E+01  0.6995E+01
      5.953  0.1422E+01  0.7060E+01
      5.999  0.1393E+01  0.7124E+01
      6.045  0.1409E+01  0.7188E+01
      6.091  0.1472E+01  0.7255E+01
      6.136  0.1564E+01  0.7327E+01
      6.182  0.1662E+01  0.7403E+01
      6.228  0.1747E+01  0.7483E+01
      6.274  0.1814E+01  0.7566E+01
      6.319  0.1871E+01  0.7651E+01
      6.365  0.1932E+01  0.7740E+01
      6.411  0.2002E+01  0.7831E+01
      6.457  0.2070E+01  0.7926E+01
      6.502  0.2116E+01  0.8023E+01
      6.548  0.2124E+01  0.8120E+01
      6.594  0.2099E+01  0.8216E+01
      6.639  0.2061E+01  0.8310E+01
      6.685  0.2034E+01  0.8403E+01
      6.731  0.2019E+01  0.8496E+01
      6.777  0.1996E+01  0.8587E+01
      6.822  0.1940E+01  0.8676E+01
      6.868  0.1847E+01  0.8760E+01
      6.914  0.1742E+01  0.8840E+01
      6.960  0.1665E+01  0.8916E+01
      7.005  0.1644E+01  0.8991E+01
      7.051  0.1677E+01  0.9068E+01
      7.097  0.1738E+01  0.9147E+01
      7.143  0.1796E+01  0.9230E+01
      7.188  0.1830E+01  0.9313E+01
      7.234  0.1842E+01  0.9398E+01
      7.280  0.1843E+01  0.9482E+01
      7.326  0.1845E+01  0.9566E+01
      7.371  0.1856E+01  0.9651E+01
      7.417  0.1879E+01  0.9737E+01
      7.463  0.1909E+01  0.9824E+01
      7.509  0.1932E+01  0.9913E+01
      7.554  0.1928E+01  0.1000E+02
      7.600  0.1869E+01  0.1009E+02
      7.646  0.1731E+01  0.1017E+02
      7.691  0.1505E+01  0.1023E+02
      7.737  0.1204E+01  0.1029E+02
      7.783  0.8647E+00  0.1033E+02
      7.829  0.5371E+00  0.1035E+02
      7.874  0.2677E+00  0.1037E+02
      7.920  0.8263E-01  0.1037E+02
      7.966 -0.1839E-01  0.1037E+02
      8.012 -0.5519E-01  0.1037E+02
      8.057 -0.5467E-01  0.1036E+02
      8.103 -0.3960E-01  0.1036E+02
      8.149 -0.2362E-01  0.1036E+02
      8.195 -0.1210E-01  0.1036E+02
      8.240 -0.5428E-02  0.1036E+02
      8.286 -0.2155E-02  0.1036E+02
      8.332 -0.7617E-03  0.1036E+02
      8.378 -0.2408E-03  0.1036E+02
      8.423 -0.6827E-04  0.1036E+02
      8.469 -0.1739E-04  0.1036E+02
      8.515 -0.3982E-05  0.1036E+02
      8.560 -0.8212E-06  0.1036E+02
      8.606 -0.1525E-06  0.1036E+02
      8.652 -0.2553E-07  0.1036E+02
      8.698 -0.3850E-08  0.1036E+02
      8.743 -0.5234E-09  0.1036E+02
      8.789 -0.6413E-10  0.1036E+02
      8.835 -0.7082E-11  0.1036E+02
      8.881 -0.7049E-12  0.1036E+02
      8.926 -0.6341E-13  0.1036E+02
      8.972 -0.5085E-14  0.1036E+02
      9.018 -0.3641E-15  0.1036E+02
      9.064  0.0000E+00  0.1036E+02
      9.109  0.0000E+00  0.1036E+02
      9.155  0.0000E+00  0.1036E+02
      9.201  0.0000E+00  0.1036E+02
      9.247  0.0000E+00  0.1036E+02
      9.292  0.0000E+00  0.1036E+02
      9.338  0.0000E+00  0.1036E+02
      9.384  0.0000E+00  0.1036E+02
      9.430  0.0000E+00  0.1036E+02
      9.475  0.0000E+00  0.1036E+02
      9.521  0.0000E+00  0.1036E+02
      9.567  0.0000E+00  0.1036E+02
      9.612  0.0000E+00  0.1036E+02
      9.658  0.0000E+00  0.1036E+02
      9.704  0.0000E+00  0.1036E+02
      9.750  0.0000E+00  0.1036E+02
      9.795  0.0000E+00  0.1036E+02
