  108  108  100    1
  0.1022088E+02  0.1033485E-08  0.1033485E-08  0.1033485E-08  0.5000000E-15
  1.000000000000000E-004
  CAR 
 Opt                                     
    864      4    518
 
  0.1250000E+00  0.1250000E+00  0.1250000E+00  0.1250000E+00
    1       -1.926202   1.000000
    2       -0.793563   1.000000
    3       -0.793563   1.000000
    4       -0.793563   1.000000
    5       -0.109982   1.000000
    6       -0.109982   1.000000
    7       -0.109982   1.000000
    8        0.222704   1.000000
    9        0.222704   1.000000
   10        0.222704   1.000000
   11        0.829676   1.000000
   12        0.829676   1.000000
   13        0.829676   1.000000
   14        0.829676   1.000000
   15        0.829676   1.000000
   16        0.829676   1.000000
   17        0.935880   1.000000
   18        1.331549   1.000000
   19        1.331549   1.000000
   20        1.331549   1.000000
   21        1.379321   1.000000
   22        1.379321   1.000000
   23        1.379321   1.000000
   24        1.599521   1.000000
   25        1.599521   1.000000
   26        1.599521   1.000000
   27        1.732658   1.000000
   28        1.804679   1.000000
   29        1.804679   1.000000
   30        1.804679   1.000000
   31        1.902697   1.000000
   32        1.902697   1.000000
   33        1.902698   1.000000
   34        1.999780   1.000000
   35        1.999780   1.000000
   36        1.999780   1.000000
   37        2.357686   1.000000
   38        2.357686   1.000000
   39        2.357686   1.000000
   40        2.480251   1.000000
   41        2.480251   1.000000
   42        2.480251   1.000000
   43        2.480252   1.000000
   44        2.480252   1.000000
   45        2.480252   1.000000
   46        2.495213   1.000000
   47        2.495213   1.000000
   48        2.495213   1.000000
   49        2.538277   1.000000
   50        2.538278   1.000000
   51        2.538278   1.000000
   52        2.538278   1.000000
   53        2.538278   1.000000
   54        2.538278   1.000000
   55        2.565039   1.000000
   56        2.565039   1.000000
   57        2.565039   1.000000
   58        2.565039   1.000000
   59        2.565039   1.000000
   60        2.565039   1.000000
   61        2.639169   1.000000
   62        2.639169   1.000000
   63        2.639169   1.000000
   64        2.643180   1.000000
   65        2.643180   1.000000
   66        2.643180   1.000000
   67        2.735158   1.000000
   68        2.735158   1.000000
   69        2.735158   1.000000
   70        2.735158   1.000000
   71        2.735158   1.000000
   72        2.735158   1.000000
   73        2.774612   1.000000
   74        2.774612   1.000000
   75        2.774612   1.000000
   76        2.774613   1.000000
   77        2.774613   1.000000
   78        2.774613   1.000000
   79        2.777460   1.000000
   80        2.777460   1.000000
   81        2.777460   1.000000
   82        2.830972   1.000000
   83        2.830973   1.000000
   84        2.830973   1.000000
   85        2.830973   1.000000
   86        2.830973   1.000000
   87        2.830973   1.000000
   88        2.944617   1.000000
   89        2.944617   1.000000
   90        2.944617   1.000000
   91        2.944617   1.000000
   92        2.944617   1.000000
   93        2.944617   1.000000
   94        3.057123   1.000000
   95        3.057123   1.000000
   96        3.057123   1.000000
   97        3.075091   1.000000
   98        3.075091   1.000000
   99        3.075091   1.000000
  100        3.108113   1.000000
  101        3.108113   1.000000
  102        3.108113   1.000000
  103        3.108113   1.000000
  104        3.108113   1.000000
  105        3.108113   1.000000
  106        3.168818   1.000000
  107        3.168818   1.000000
  108        3.168818   1.000000
  109        3.168818   1.000000
  110        3.168818   1.000000
  111        3.168818   1.000000
  112        3.333417   1.000000
  113        3.333417   1.000000
  114        3.333417   1.000000
  115        3.333421   1.000000
  116        3.333421   1.000000
  117        3.333421   1.000000
  118        3.342338   1.000000
  119        3.342338   1.000000
  120        3.342338   1.000000
  121        3.446288   1.000000
  122        3.446288   1.000000
  123        3.446288   1.000000
  124        3.449762   1.000000
  125        3.449762   1.000000
  126        3.449763   1.000000
  127        3.494028   1.000000
  128        3.494028   1.000000
  129        3.494028   1.000000
  130        3.494028   1.000000
  131        3.494028   1.000000
  132        3.494028   1.000000
  133        3.518712   1.000000
  134        3.518712   1.000000
  135        3.518712   1.000000
  136        3.518712   1.000000
  137        3.518712   1.000000
  138        3.518712   1.000000
  139        3.573126   1.000000
  140        3.573126   1.000000
  141        3.573126   1.000000
  142        3.573128   1.000000
  143        3.573128   1.000000
  144        3.573129   1.000000
  145        3.691585   1.000000
  146        3.691585   1.000000
  147        3.691585   1.000000
  148        3.691585   1.000000
  149        3.691585   1.000000
  150        3.691585   1.000000
  151        3.730141   1.000000
  152        3.730141   1.000000
  153        3.730141   1.000000
  154        3.753999   1.000000
  155        3.753999   1.000000
  156        3.753999   1.000000
  157        3.753999   1.000000
  158        3.753999   1.000000
  159        3.753999   1.000000
  160        3.907388   1.000000
  161        3.907388   1.000000
  162        3.907388   1.000000
  163        3.907388   1.000000
  164        3.907388   1.000000
  165        3.907388   1.000000
  166        3.924317   1.000000
  167        3.924317   1.000000
  168        3.924318   1.000000
  169        4.115673   1.000000
  170        4.115673   1.000000
  171        4.115674   1.000000
  172        4.115674   1.000000
  173        4.115674   1.000000
  174        4.115674   1.000000
  175        4.256070   1.000000
  176        4.256070   1.000000
  177        4.256070   1.000000
  178        4.274446   1.000000
  179        4.274446   1.000000
  180        4.274446   1.000000
  181        4.307813   1.000000
  182        4.307813   1.000000
  183        4.307813   1.000000
  184        4.322406   1.000000
  185        4.322406   1.000000
  186        4.322406   1.000000
  187        4.322407   1.000000
  188        4.322407   1.000000
  189        4.322407   1.000000
  190        4.330610   1.000000
  191        4.330610   1.000000
  192        4.330610   1.000000
  193        4.455457   1.000000
  194        4.455457   1.000000
  195        4.455457   1.000000
  196        4.455457   1.000000
  197        4.455457   1.000000
  198        4.455457   1.000000
  199        4.476107   1.000000
  200        4.476107   1.000000
  201        4.476107   1.000000
  202        4.482380   1.000000
  203        4.482380   1.000000
  204        4.482381   1.000000
  205        4.482381   1.000000
  206        4.482381   1.000000
  207        4.482381   1.000000
  208        4.494989   1.000000
  209        4.494989   1.000000
  210        4.494989   1.000000
  211        4.494989   1.000000
  212        4.494989   1.000000
  213        4.494989   1.000000
  214        4.613424   1.000000
  215        4.613424   1.000000
  216        4.613424   1.000000
  217        4.638185   1.000000
  218        4.638185   1.000000
  219        4.638186   1.000000
  220        4.652362   1.000000
  221        4.652362   1.000000
  222        4.652363   1.000000
  223        4.743360   1.000000
  224        4.824904   1.000000
  225        4.824904   1.000000
  226        4.824904   1.000000
  227        4.824904   1.000000
  228        4.824904   1.000000
  229        4.824904   1.000000
  230        4.832905   1.000000
  231        4.832905   1.000000
  232        4.832906   1.000000
  233        4.832908   1.000000
  234        4.832908   1.000000
  235        4.832908   1.000000
  236        4.839145   1.000000
  237        4.839145   1.000000
  238        4.839145   1.000000
  239        4.975738   1.000000
  240        4.975738   1.000000
  241        4.975738   1.000000
  242        4.975739   1.000000
  243        4.975739   1.000000
  244        4.975739   1.000000
  245        5.070959   1.000000
  246        5.070959   1.000000
  247        5.070959   1.000000
  248        5.075954   1.000000
  249        5.075954   1.000000
  250        5.075954   1.000000
  251        5.080077   1.000000
  252        5.080077   1.000000
  253        5.080077   1.000000
  254        5.080077   1.000000
  255        5.080077   1.000000
  256        5.080078   1.000000
  257        5.106321   1.000000
  258        5.106321   1.000000
  259        5.106322   1.000000
  260        5.133728   1.000000
  261        5.133728   1.000000
  262        5.133728   1.000000
  263        5.133729   1.000000
  264        5.133729   1.000000
  265        5.133729   1.000000
  266        5.148598   1.000000
  267        5.176883   1.000000
  268        5.176883   1.000000
  269        5.176883   1.000000
  270        5.177369   1.000000
  271        5.177369   1.000000
  272        5.177369   1.000000
  273        5.198900   1.000000
  274        5.198900   1.000000
  275        5.216984   1.000000
  276        5.216984   1.000000
  277        5.234183   1.000000
  278        5.234183   1.000000
  279        5.234183   1.000000
  280        5.234183   1.000000
  281        5.234183   1.000000
  282        5.234183   1.000000
  283        5.250018   1.000000
  284        5.250021   1.000000
  285        5.250021   1.000000
  286        5.296109   1.000000
  287        5.296109   1.000000
  288        5.296135   1.000000
  289        5.298110   1.000000
  290        5.298136   1.000000
  291        5.298136   1.000000
  292        5.315473   1.000000
  293        5.315473   1.000000
  294        5.315473   1.000000
  295        5.315473   1.000000
  296        5.315473   1.000000
  297        5.315473   1.000000
  298        5.343624   1.000000
  299        5.343624   1.000000
  300        5.343624   1.000000
  301        5.374627   1.000000
  302        5.374627   1.000000
  303        5.374628   1.000000
  304        5.387347   1.000000
  305        5.387347   1.000000
  306        5.427899   1.000000
  307        5.427899   1.000000
  308        5.427899   1.000000
  309        5.430180   1.000000
  310        5.430180   1.000000
  311        5.430180   1.000000
  312        5.566264   1.000000
  313        5.582458   1.000000
  314        5.582458   1.000000
  315        5.582458   1.000000
  316        5.598835   1.000000
  317        5.598835   1.000000
  318        5.598835   1.000000
  319        5.606099   1.000000
  320        5.606099   1.000000
  321        5.606100   1.000000
  322        5.606101   1.000000
  323        5.606101   1.000000
  324        5.606101   1.000000
  325        5.608338   1.000000
  326        5.608338   1.000000
  327        5.608338   1.000000
  328        5.632668   1.000000
  329        5.632668   1.000000
  330        5.632668   1.000000
  331        5.748342   1.000000
  332        5.748342   1.000000
  333        5.748342   1.000000
  334        5.751495   1.000000
  335        5.751495   1.000000
  336        5.751495   1.000000
  337        5.757627   1.000000
  338        5.757627   1.000000
  339        5.757627   1.000000
  340        5.757628   1.000000
  341        5.757628   1.000000
  342        5.757628   1.000000
  343        5.775726   1.000000
  344        5.775726   1.000000
  345        5.775726   1.000000
  346        5.825340   1.000000
  347        5.825340   1.000000
  348        5.825340   1.000000
  349        5.825340   1.000000
  350        5.825341   1.000000
  351        5.825341   1.000000
  352        5.870001   1.000000
  353        5.870001   1.000000
  354        5.870001   1.000000
  355        5.907452   1.000000
  356        5.907452   1.000000
  357        5.907452   1.000000
  358        5.907454   1.000000
  359        5.907454   1.000000
  360        5.907454   1.000000
  361        5.939854   1.000000
  362        5.939854   1.000000
  363        5.939854   1.000000
  364        5.986013   1.000000
  365        5.986013   1.000000
  366        5.986013   1.000000
  367        6.088602   1.000003
  368        6.088602   1.000003
  369        6.088603   1.000003
  370        6.115312   1.000006
  371        6.115312   1.000006
  372        6.115312   1.000006
  373        6.249929   1.000320
  374        6.249929   1.000320
  375        6.249929   1.000320
  376        6.250060   1.000321
  377        6.250060   1.000321
  378        6.250060   1.000321
  379        6.251380   1.000332
  380        6.251380   1.000332
  381        6.251380   1.000332
  382        6.254946   1.000363
  383        6.254946   1.000363
  384        6.254946   1.000363
  385        6.256578   1.000378
  386        6.256578   1.000378
  387        6.256578   1.000378
  388        6.334004   1.002212
  389        6.334005   1.002212
  390        6.334005   1.002212
  391        6.437157   1.013183
  392        6.437158   1.013183
  393        6.437158   1.013183
  394        6.437158   1.013183
  395        6.437158   1.013183
  396        6.437159   1.013183
  397        6.505286   1.027975
  398        6.505286   1.027975
  399        6.505286   1.027976
  400        6.505286   1.027976
  401        6.505286   1.027976
  402        6.505286   1.027976
  403        6.630100   1.005583
  404        6.630100   1.005583
  405        6.630100   1.005583
  406        6.630101   1.005582
  407        6.630101   1.005582
  408        6.630101   1.005582
  409        6.650032   0.981679
  410        6.650032   0.981679
  411        6.650032   0.981679
  412        6.650033   0.981678
  413        6.650033   0.981678
  414        6.650033   0.981678
  415        6.696350   0.889936
  416        6.696350   0.889936
  417        6.696366   0.889896
  418        6.706276   0.863298
  419        6.706290   0.863258
  420        6.706290   0.863258
  421        6.725564   0.804721
  422        6.725564   0.804721
  423        6.810993   0.469699
  424        6.810993   0.469699
  425        6.810993   0.469699
  426        6.810994   0.469696
  427        6.810994   0.469696
  428        6.810994   0.469696
  429        6.883663   0.190180
  430        6.883663   0.190179
  431        6.883663   0.190179
  432        6.883664   0.190176
  433        6.883664   0.190176
  434        6.883664   0.190176
  435        6.893278   0.160231
  436        6.893279   0.160229
  437        6.893279   0.160229
  438        6.930064   0.066483
  439        6.930064   0.066483
  440        6.930064   0.066483
  441        7.041747  -0.035258
  442        7.041747  -0.035258
  443        7.041747  -0.035258
  444        7.041747  -0.035258
  445        7.041747  -0.035258
  446        7.041747  -0.035258
  447        7.052616  -0.035403
  448        7.052616  -0.035403
  449        7.052616  -0.035403
  450        7.056294  -0.035251
  451        7.056294  -0.035251
  452        7.080751  -0.032320
  453        7.080751  -0.032320
  454        7.080751  -0.032320
  455        7.080752  -0.032320
  456        7.080752  -0.032320
  457        7.080752  -0.032320
  458        7.106379  -0.027079
  459        7.106379  -0.027079
  460        7.106379  -0.027079
  461        7.106379  -0.027079
  462        7.106379  -0.027079
  463        7.106380  -0.027079
  464        7.144546  -0.018391
  465        7.144546  -0.018391
  466        7.144547  -0.018391
  467        7.156819  -0.015814
  468        7.156819  -0.015814
  469        7.156819  -0.015814
  470        7.219592  -0.006146
  471        7.219594  -0.006146
  472        7.219594  -0.006146
  473        7.239299  -0.004325
  474        7.239299  -0.004325
  475        7.239299  -0.004325
  476        7.267441  -0.002511
  477        7.267441  -0.002511
  478        7.267441  -0.002511
  479        7.272549  -0.002263
  480        7.272550  -0.002263
  481        7.272550  -0.002263
  482        7.330950  -0.000619
  483        7.332358  -0.000598
  484        7.333285  -0.000585
  485        7.370009  -0.000233
  486        7.370396  -0.000231
  487        7.371193  -0.000226
  488        7.372567  -0.000218
  489        7.374192  -0.000209
  490        7.378885  -0.000184
  491        7.402259  -0.000098
  492        7.402541  -0.000097
  493        7.402993  -0.000096
  494        7.404968  -0.000090
  495        7.409312  -0.000080
  496        7.412799  -0.000073
  497        7.466798  -0.000014
  498        7.469097  -0.000013
  499        7.469722  -0.000013
  500        7.472528  -0.000012
  501        7.477905  -0.000010
  502        7.482273  -0.000009
  503        7.486640  -0.000008
  504        7.490850  -0.000007
  505        7.499219  -0.000005
  506        7.512818  -0.000003
  507        7.523126  -0.000002
  508        7.579553  -0.000000
  509        7.583307  -0.000000
  510        7.586371  -0.000000
  511        7.589755  -0.000000
  512        7.593947  -0.000000
  513        7.610999  -0.000000
  514        7.626051  -0.000000
  515        7.659076  -0.000000
  516        7.686101  -0.000000
  517        7.707653  -0.000000
  518        7.746419  -0.000000
 
  0.3750000E+00  0.1250000E+00  0.1250000E+00  0.3750000E+00
    1       -1.729845   1.000000
    2       -1.345772   1.000000
    3       -0.616308   1.000000
    4       -0.616308   1.000000
    5       -0.270908   1.000000
    6       -0.270908   1.000000
    7        0.055487   1.000000
    8        0.055487   1.000000
    9        0.351927   1.000000
   10        0.376095   1.000000
   11        0.376095   1.000000
   12        0.597878   1.000000
   13        0.637270   1.000000
   14        0.923702   1.000000
   15        0.923702   1.000000
   16        1.098420   1.000000
   17        1.098420   1.000000
   18        1.328029   1.000000
   19        1.420058   1.000000
   20        1.492213   1.000000
   21        1.492213   1.000000
   22        1.495387   1.000000
   23        1.745968   1.000000
   24        1.885493   1.000000
   25        1.885496   1.000000
   26        1.900287   1.000000
   27        1.945470   1.000000
   28        1.945470   1.000000
   29        1.947976   1.000000
   30        1.969865   1.000000
   31        1.969865   1.000000
   32        2.005759   1.000000
   33        2.023060   1.000000
   34        2.023060   1.000000
   35        2.108129   1.000000
   36        2.116337   1.000000
   37        2.116337   1.000000
   38        2.135547   1.000000
   39        2.135547   1.000000
   40        2.143424   1.000000
   41        2.180812   1.000000
   42        2.180813   1.000000
   43        2.210941   1.000000
   44        2.210941   1.000000
   45        2.247245   1.000000
   46        2.247245   1.000000
   47        2.292819   1.000000
   48        2.292819   1.000000
   49        2.391884   1.000000
   50        2.391884   1.000000
   51        2.494680   1.000000
   52        2.494680   1.000000
   53        2.524353   1.000000
   54        2.524353   1.000000
   55        2.525767   1.000000
   56        2.525767   1.000000
   57        2.548044   1.000000
   58        2.548044   1.000000
   59        2.551126   1.000000
   60        2.551126   1.000000
   61        2.603276   1.000000
   62        2.603276   1.000000
   63        2.636453   1.000000
   64        2.636454   1.000000
   65        2.644747   1.000000
   66        2.644747   1.000000
   67        2.698693   1.000000
   68        2.698693   1.000000
   69        2.714705   1.000000
   70        2.727882   1.000000
   71        2.727882   1.000000
   72        2.754507   1.000000
   73        2.754508   1.000000
   74        2.771422   1.000000
   75        2.771422   1.000000
   76        2.772493   1.000000
   77        2.772493   1.000000
   78        2.817689   1.000000
   79        2.817689   1.000000
   80        2.819299   1.000000
   81        2.819299   1.000000
   82        2.862321   1.000000
   83        2.904778   1.000000
   84        2.904778   1.000000
   85        2.912218   1.000000
   86        2.912218   1.000000
   87        2.923446   1.000000
   88        2.923446   1.000000
   89        2.932478   1.000000
   90        2.932479   1.000000
   91        2.949217   1.000000
   92        2.969042   1.000000
   93        3.025360   1.000000
   94        3.025361   1.000000
   95        3.039552   1.000000
   96        3.039552   1.000000
   97        3.044717   1.000000
   98        3.044717   1.000000
   99        3.049141   1.000000
  100        3.049141   1.000000
  101        3.053295   1.000000
  102        3.117502   1.000000
  103        3.117502   1.000000
  104        3.146025   1.000000
  105        3.146025   1.000000
  106        3.216480   1.000000
  107        3.216480   1.000000
  108        3.224909   1.000000
  109        3.224909   1.000000
  110        3.242886   1.000000
  111        3.251161   1.000000
  112        3.251169   1.000000
  113        3.259327   1.000000
  114        3.259327   1.000000
  115        3.286900   1.000000
  116        3.286900   1.000000
  117        3.312063   1.000000
  118        3.312063   1.000000
  119        3.334816   1.000000
  120        3.334816   1.000000
  121        3.401958   1.000000
  122        3.401959   1.000000
  123        3.426486   1.000000
  124        3.426486   1.000000
  125        3.428395   1.000000
  126        3.428395   1.000000
  127        3.496652   1.000000
  128        3.518426   1.000000
  129        3.518427   1.000000
  130        3.519730   1.000000
  131        3.519730   1.000000
  132        3.527620   1.000000
  133        3.527620   1.000000
  134        3.558428   1.000000
  135        3.558428   1.000000
  136        3.565259   1.000000
  137        3.565259   1.000000
  138        3.592539   1.000000
  139        3.592539   1.000000
  140        3.633185   1.000000
  141        3.633185   1.000000
  142        3.636086   1.000000
  143        3.636086   1.000000
  144        3.641672   1.000000
  145        3.641673   1.000000
  146        3.649556   1.000000
  147        3.655763   1.000000
  148        3.716656   1.000000
  149        3.716656   1.000000
  150        3.777598   1.000000
  151        3.777598   1.000000
  152        3.799169   1.000000
  153        3.799169   1.000000
  154        3.826760   1.000000
  155        3.826760   1.000000
  156        3.840462   1.000000
  157        3.906528   1.000000
  158        3.906528   1.000000
  159        3.908446   1.000000
  160        3.908446   1.000000
  161        3.922063   1.000000
  162        3.922064   1.000000
  163        3.945407   1.000000
  164        3.945407   1.000000
  165        3.952665   1.000000
  166        3.952665   1.000000
  167        3.978536   1.000000
  168        4.004018   1.000000
  169        4.004018   1.000000
  170        4.031030   1.000000
  171        4.031030   1.000000
  172        4.049811   1.000000
  173        4.057387   1.000000
  174        4.057387   1.000000
  175        4.098073   1.000000
  176        4.098074   1.000000
  177        4.125525   1.000000
  178        4.125525   1.000000
  179        4.183097   1.000000
  180        4.183097   1.000000
  181        4.218394   1.000000
  182        4.218394   1.000000
  183        4.218774   1.000000
  184        4.218774   1.000000
  185        4.233037   1.000000
  186        4.233037   1.000000
  187        4.264520   1.000000
  188        4.264520   1.000000
  189        4.319581   1.000000
  190        4.319581   1.000000
  191        4.331281   1.000000
  192        4.331281   1.000000
  193        4.408003   1.000000
  194        4.408010   1.000000
  195        4.412653   1.000000
  196        4.436021   1.000000
  197        4.436022   1.000000
  198        4.477829   1.000000
  199        4.477829   1.000000
  200        4.480832   1.000000
  201        4.480833   1.000000
  202        4.480981   1.000000
  203        4.480981   1.000000
  204        4.526150   1.000000
  205        4.528543   1.000000
  206        4.528543   1.000000
  207        4.569161   1.000000
  208        4.569161   1.000000
  209        4.583963   1.000000
  210        4.583964   1.000000
  211        4.589539   1.000000
  212        4.606071   1.000000
  213        4.606071   1.000000
  214        4.621673   1.000000
  215        4.639381   1.000000
  216        4.639381   1.000000
  217        4.658519   1.000000
  218        4.658519   1.000000
  219        4.683337   1.000000
  220        4.683337   1.000000
  221        4.694597   1.000000
  222        4.697476   1.000000
  223        4.697476   1.000000
  224        4.739483   1.000000
  225        4.739483   1.000000
  226        4.793637   1.000000
  227        4.793638   1.000000
  228        4.817206   1.000000
  229        4.836203   1.000000
  230        4.870656   1.000000
  231        4.871736   1.000000
  232        4.871736   1.000000
  233        4.892010   1.000000
  234        4.892010   1.000000
  235        4.901201   1.000000
  236        4.901201   1.000000
  237        4.904428   1.000000
  238        4.904429   1.000000
  239        4.905780   1.000000
  240        4.905781   1.000000
  241        4.914776   1.000000
  242        4.931198   1.000000
  243        4.931198   1.000000
  244        4.954831   1.000000
  245        4.954831   1.000000
  246        4.956355   1.000000
  247        4.956355   1.000000
  248        4.963630   1.000000
  249        4.963630   1.000000
  250        5.000179   1.000000
  251        5.000179   1.000000
  252        5.016811   1.000000
  253        5.016812   1.000000
  254        5.036458   1.000000
  255        5.036458   1.000000
  256        5.043457   1.000000
  257        5.043457   1.000000
  258        5.056361   1.000000
  259        5.068151   1.000000
  260        5.068154   1.000000
  261        5.087476   1.000000
  262        5.090918   1.000000
  263        5.105163   1.000000
  264        5.110939   1.000000
  265        5.110939   1.000000
  266        5.112004   1.000000
  267        5.146917   1.000000
  268        5.161242   1.000000
  269        5.200855   1.000000
  270        5.206438   1.000000
  271        5.206439   1.000000
  272        5.212529   1.000000
  273        5.233493   1.000000
  274        5.236850   1.000000
  275        5.236850   1.000000
  276        5.264092   1.000000
  277        5.268269   1.000000
  278        5.274938   1.000000
  279        5.274938   1.000000
  280        5.276217   1.000000
  281        5.276218   1.000000
  282        5.284438   1.000000
  283        5.293150   1.000000
  284        5.293151   1.000000
  285        5.320067   1.000000
  286        5.320067   1.000000
  287        5.321009   1.000000
  288        5.321009   1.000000
  289        5.334511   1.000000
  290        5.334511   1.000000
  291        5.335377   1.000000
  292        5.335378   1.000000
  293        5.402658   1.000000
  294        5.403995   1.000000
  295        5.403995   1.000000
  296        5.405835   1.000000
  297        5.421502   1.000000
  298        5.429745   1.000000
  299        5.432611   1.000000
  300        5.440362   1.000000
  301        5.440362   1.000000
  302        5.441591   1.000000
  303        5.441592   1.000000
  304        5.451803   1.000000
  305        5.465366   1.000000
  306        5.465375   1.000000
  307        5.465905   1.000000
  308        5.465905   1.000000
  309        5.467467   1.000000
  310        5.489517   1.000000
  311        5.489517   1.000000
  312        5.494191   1.000000
  313        5.494193   1.000000
  314        5.527275   1.000000
  315        5.527275   1.000000
  316        5.528960   1.000000
  317        5.528960   1.000000
  318        5.536571   1.000000
  319        5.536571   1.000000
  320        5.548519   1.000000
  321        5.548519   1.000000
  322        5.559527   1.000000
  323        5.572521   1.000000
  324        5.572521   1.000000
  325        5.599942   1.000000
  326        5.599942   1.000000
  327        5.603058   1.000000
  328        5.612959   1.000000
  329        5.612959   1.000000
  330        5.651760   1.000000
  331        5.651760   1.000000
  332        5.661833   1.000000
  333        5.661833   1.000000
  334        5.669983   1.000000
  335        5.677143   1.000000
  336        5.677151   1.000000
  337        5.690351   1.000000
  338        5.690352   1.000000
  339        5.730771   1.000000
  340        5.733141   1.000000
  341        5.733141   1.000000
  342        5.757382   1.000000
  343        5.779707   1.000000
  344        5.831968   1.000000
  345        5.832951   1.000000
  346        5.832951   1.000000
  347        5.852578   1.000000
  348        5.852578   1.000000
  349        5.860993   1.000000
  350        5.860993   1.000000
  351        5.873038   1.000000
  352        5.873038   1.000000
  353        5.880421   1.000000
  354        5.974485   1.000000
  355        5.974485   1.000000
  356        6.013734   1.000000
  357        6.013734   1.000000
  358        6.077582   1.000002
  359        6.077582   1.000002
  360        6.089713   1.000003
  361        6.089713   1.000003
  362        6.100908   1.000004
  363        6.100908   1.000004
  364        6.132494   1.000011
  365        6.132494   1.000011
  366        6.138382   1.000013
  367        6.148909   1.000019
  368        6.148909   1.000019
  369        6.181899   1.000050
  370        6.196952   1.000077
  371        6.196952   1.000077
  372        6.227420   1.000178
  373        6.227420   1.000178
  374        6.229265   1.000187
  375        6.229265   1.000187
  376        6.251917   1.000336
  377        6.267991   1.000501
  378        6.267992   1.000501
  379        6.277458   1.000630
  380        6.277458   1.000630
  381        6.278452   1.000645