       N       E                     dE             d eps       ncg     rms          rms(c)
DAV:   1     0.759164956867E+04    0.75916E+04   -0.28846E+05  4160   0.184E+03
DAV:   2    -0.246909028464E+02   -0.76163E+04   -0.74466E+04  4144   0.457E+02
DAV:   3    -0.850718908003E+03   -0.82603E+03   -0.70619E+03  4160   0.191E+02
DAV:   4    -0.102968417625E+04   -0.17897E+03   -0.16798E+03  7504   0.573E+01
DAV:   5    -0.104505832583E+04   -0.15374E+02   -0.14496E+02  6640   0.219E+01    0.934E+01
RMM:   6    -0.877442153404E+03    0.16762E+03   -0.13546E+03  4144   0.110E+02    0.896E+00
RMM:   7    -0.880281737306E+03   -0.28396E+01   -0.11011E+02  4525   0.236E+01    0.362E+00
RMM:   8    -0.880283638870E+03   -0.19016E-02   -0.14218E+01  4431   0.101E+01    0.138E+01
RMM:   9    -0.879632740676E+03    0.65090E+00   -0.43877E+00  5007   0.358E+00    0.254E+00
RMM:  10    -0.879507549100E+03    0.12519E+00   -0.17753E+00  5749   0.128E+00    0.759E-01
RMM:  11    -0.879521015452E+03   -0.13466E-01   -0.13578E-01  5792   0.361E-01    0.595E-01
RMM:  12    -0.879516369039E+03    0.46464E-02   -0.31585E-02  4563   0.475E-01    0.159E-01
RMM:  13    -0.879517170710E+03   -0.80167E-03   -0.13892E-02  5800   0.974E-02    0.654E-02
RMM:  14    -0.879517185487E+03   -0.14776E-04   -0.49398E-04  4766   0.613E-02    0.177E-02
RMM:  15    -0.879517179803E+03    0.56840E-05   -0.57047E-05  6137   0.150E-02    0.117E-02
RMM:  16    -0.879517155199E+03    0.24604E-04    0.25256E-04  4412   0.596E-03    0.393E-03
RMM:  17    -0.879517107266E+03    0.47933E-04    0.38184E-04  3114   0.349E-03    0.155E-03
RMM:  18    -0.879517085656E+03    0.21609E-04    0.17631E-04  2794   0.304E-03    0.104E-03
RMM:  19    -0.879517072196E+03    0.13461E-04    0.12833E-04  2690   0.261E-03    0.861E-04
RMM:  20    -0.879517060686E+03    0.11509E-04    0.11145E-04  2650   0.180E-03    0.314E-04
RMM:  21    -0.879517050912E+03    0.97746E-05    0.95622E-05  2549   0.131E-03    0.567E-04
RMM:  22    -0.879517032704E+03    0.18208E-04    0.16563E-04  2472   0.125E-03    0.214E-04
RMM:  23    -0.879517023972E+03    0.87316E-05    0.80381E-05  1981   0.746E-04    0.193E-04
RMM:  24    -0.879517013847E+03    0.10125E-04    0.94380E-05  1922   0.790E-04    0.187E-04
RMM:  25    -0.879517006798E+03    0.70487E-05    0.64148E-05  1877   0.657E-04    0.162E-04
RMM:  26    -0.879517001088E+03    0.57107E-05    0.54559E-05  1672   0.576E-04    0.557E-05
RMM:  27    -0.879516996064E+03    0.50238E-05    0.48473E-05  1512   0.542E-04    0.210E-04
RMM:  28    -0.879516991404E+03    0.46599E-05    0.45280E-05  1306   0.453E-04    0.134E-04
RMM:  29    -0.879516987149E+03    0.42551E-05    0.41437E-05  1191   0.448E-04    0.250E-04
RMM:  30    -0.879516983168E+03    0.39811E-05    0.38844E-05  1026   0.391E-04    0.177E-04
RMM:  31    -0.879516979526E+03    0.36423E-05    0.35635E-05  1017   0.392E-04    0.246E-04
RMM:  32    -0.879516976126E+03    0.34000E-05    0.33282E-05   955   0.362E-04    0.191E-04
RMM:  33    -0.879516973015E+03    0.31111E-05    0.30526E-05   940   0.359E-04    0.237E-04
RMM:  34    -0.879516970119E+03    0.28957E-05    0.28392E-05   886   0.340E-04    0.201E-04
RMM:  35    -0.879516967471E+03    0.26480E-05    0.26015E-05   892   0.337E-04    0.226E-04
RMM:  36    -0.879516965022E+03    0.24486E-05    0.24106E-05   836   0.321E-04    0.212E-04
RMM:  37    -0.879516962777E+03    0.22450E-05    0.22066E-05   776   0.316E-04    0.234E-04
RMM:  38    -0.879516960705E+03    0.20720E-05    0.20381E-05   851   0.322E-04    0.190E-04
RMM:  39    -0.879516958806E+03    0.18990E-05    0.18636E-05   957   0.319E-04    0.164E-04
RMM:  40    -0.879516957058E+03    0.17478E-05    0.17174E-05   797   0.301E-04    0.145E-04
RMM:  41    -0.879516955465E+03    0.15936E-05    0.15692E-05   680   0.287E-04    0.150E-04
RMM:  42    -0.879516954009E+03    0.14562E-05    0.14431E-05   647   0.284E-04    0.151E-04
RMM:  43    -0.879516952665E+03    0.13441E-05    0.13174E-05   809   0.282E-04    0.120E-04
RMM:  44    -0.879516951440E+03    0.12246E-05    0.12098E-05   639   0.267E-04    0.124E-04
RMM:  45    -0.879516950324E+03    0.11159E-05    0.11041E-05   765   0.261E-04    0.108E-04
RMM:  46    -0.879516949291E+03    0.10327E-05    0.10125E-05   706   0.244E-04    0.100E-04
RMM:  47    -0.879516948338E+03    0.95383E-06    0.92376E-06   710   0.234E-04
   1 F= -.87951695E+03 E0= -.87949331E+03  d E =-.879517E+03
