<?xml version="1.0" encoding="ISO-8859-1"?>
<modeling>
 <generator>
  <i name="program" type="string">vasp </i>
  <i name="version" type="string">5.4.4.18Apr17-6-g9f103f2a35  </i>
  <i name="subversion" type="string">(build Aug 17 2017 06:00:38) complex            parallel </i>
  <i name="platform" type="string">LinuxIFC </i>
  <i name="date" type="string">2019 07 12 </i>
  <i name="time" type="string">14:47:20 </i>
 </generator>
 <incar>
  <i type="string" name="SYSTEM">Opt</i>
  <i type="int" name="ISTART">     0</i>
  <i type="string" name="PREC">normal</i>
  <i type="string" name="ALGO"> Fast</i>
  <i type="int" name="ISPIN">     1</i>
  <i type="int" name="ICHARG">     2</i>
  <i type="int" name="NELM">   400</i>
  <i type="int" name="IBRION">     2</i>
  <i name="EDIFF">      0.00000100</i>
  <i name="EDIFFG">     -0.01000000</i>
  <i type="int" name="NSW">   100</i>
  <i type="int" name="ISIF">     3</i>
  <i name="ENCUT">    400.00000000</i>
  <i type="int" name="NGX">    72</i>
  <i type="int" name="NGY">    72</i>
  <i type="int" name="NGZ">    72</i>
  <i name="POTIM">      0.50000000</i>
  <i type="string" name="LREAL">Auto</i>
  <i type="logical" name="LWAVE"> F  </i>
  <i type="logical" name="LCHARG"> F  </i>
  <v type="int" name="KPOINT_BSE">    -1     0     0     0</v>
  <i type="int" name="NELM">   400</i>
 </incar>
 <structure name="primitive_cell" >
  <crystal>
   <varray name="basis" >
    <v>       3.44492529       0.00000000       0.00000000 </v>
    <v>       0.00000000       3.44492529       0.00000000 </v>
    <v>       0.00000000       0.00000000       3.44492524 </v>
   </varray>
   <i name="volume">     40.88268566 </i>
   <varray name="rec_basis" >
    <v>       0.29028206       0.00000000       0.00000000 </v>
    <v>       0.00000000       0.29028206       0.00000000 </v>
    <v>       0.00000000       0.00000000       0.29028206 </v>
   </varray>
  </crystal>
  <varray name="positions" >
   <v>       0.00000000       0.00000000       0.00000000 </v>
   <v>       0.00000000      -0.49998976      -0.49998975 </v>
   <v>      -0.49998976       0.00000000      -0.49998975 </v>
   <v>      -0.49998976      -0.49998976       0.00000000 </v>
  </varray>
 </structure>
 <varray name="primitive_index" >
  <v type="int" >        1 </v>
  <v type="int" >        2 </v>
  <v type="int" >        3 </v>
  <v type="int" >        4 </v>
 </varray>
 <kpoints>
  <generation param="Monkhorst-Pack">
   <v type="int" name="divisions">       4        4        4 </v>
   <v name="usershift">      0.00000000       0.00000000       0.00000000 </v>
   <v name="genvec1">      0.25000000       0.00000000       0.00000000 </v>
   <v name="genvec2">      0.00000000       0.25000000       0.00000000 </v>
   <v name="genvec3">      0.00000000       0.00000000       0.25000000 </v>
   <v name="shift">      0.50000000       0.50000000       0.50000000 </v>
  </generation>
  <varray name="kpointlist" >
   <v>       0.12500000       0.12500000       0.12500000 </v>
   <v>       0.37500000       0.12500000       0.12500000 </v>
   <v>       0.37500000       0.37500000       0.12500000 </v>
   <v>       0.37500000       0.37500000       0.37500000 </v>
  </varray>
  <varray name="weights" >
   <v>       0.12500000 </v>
   <v>       0.37500000 </v>
   <v>       0.37500000 </v>
   <v>       0.12500000 </v>
  </varray>
 </kpoints>
 <parameters>
  <separator name="general" >
   <i type="string" name="SYSTEM">Opt</i>
   <i type="logical" name="LCOMPAT"> F  </i>
  </separator>
  <separator name="electronic" >
   <i type="string" name="PREC">normal</i>
   <i name="ENMAX">    400.00000000</i>
   <i name="ENAUG">    511.36800000</i>
   <i name="EDIFF">      0.00000100</i>
   <i type="int" name="IALGO">    68</i>
   <i type="int" name="IWAVPR">    11</i>
   <i type="int" name="NBANDS">   518</i>
   <i name="NELECT">    864.00000000</i>
   <i type="int" name="TURBO">     0</i>
   <i type="int" name="IRESTART">     0</i>
   <i type="int" name="NREBOOT">     0</i>
   <i type="int" name="NMIN">     0</i>
   <i name="EREF">      0.00000000</i>
   <separator name="electronic smearing" >
    <i type="int" name="ISMEAR">     1</i>
    <i name="SIGMA">      0.20000000</i>
    <i name="KSPACING">      0.50000000</i>
    <i type="logical" name="KGAMMA"> T  </i>
   </separator>
   <separator name="electronic projectors" >
    <i type="logical" name="LREAL"> T  </i>
    <v name="ROPT">     -0.00050000</v>
    <i type="int" name="LMAXPAW">  -100</i>
    <i type="int" name="LMAXMIX">     2</i>
    <i type="logical" name="NLSPLINE"> F  </i>
   </separator>
   <separator name="electronic startup" >
    <i type="int" name="ISTART">     0</i>
    <i type="int" name="ICHARG">     2</i>
    <i type="int" name="INIWAV">     1</i>
   </separator>
   <separator name="electronic spin" >
    <i type="int" name="ISPIN">     1</i>
    <i type="logical" name="LNONCOLLINEAR"> F  </i>
    <v name="MAGMOM">      1.00000000      1.00000000      1.00000000      1.00000000      1.00000000      1.00000000      1.00000000      1.00000000      1.00000000      1.00000000      1.00000000      1.00000000      1.00000000      1.00000000      1.00000000      1.00000000      1.00000000      1.00000000      1.00000000      1.00000000
      1.00000000      1.00000000      1.00000000      1.00000000      1.00000000      1.00000000      1.00000000      1.00000000      1.00000000      1.00000000      1.00000000      1.00000000      1.00000000      1.00000000      1.00000000      1.00000000      1.00000000      1.00000000      1.00000000      1.00000000
      1.00000000      1.00000000      1.00000000      1.00000000      1.00000000      1.00000000      1.00000000      1.00000000      1.00000000      1.00000000      1.00000000      1.00000000      1.00000000      1.00000000      1.00000000      1.00000000      1.00000000      1.00000000      1.00000000      1.00000000
      1.00000000      1.00000000      1.00000000      1.00000000      1.00000000      1.00000000      1.00000000      1.00000000      1.00000000      1.00000000      1.00000000      1.00000000      1.00000000      1.00000000      1.00000000      1.00000000      1.00000000      1.00000000      1.00000000      1.00000000
      1.00000000      1.00000000      1.00000000      1.00000000      1.00000000      1.00000000      1.00000000      1.00000000      1.00000000      1.00000000      1.00000000      1.00000000      1.00000000      1.00000000      1.00000000      1.00000000      1.00000000      1.00000000      1.00000000      1.00000000
      1.00000000      1.00000000      1.00000000      1.00000000      1.00000000      1.00000000      1.00000000      1.00000000</v>
    <i name="NUPDOWN">     -1.00000000</i>
    <i type="logical" name="LSORBIT"> F  </i>
    <v name="SAXIS">      0.00000000      0.00000000      1.00000000</v>
    <i type="logical" name="LSPIRAL"> F  </i>
    <v name="QSPIRAL">      0.00000000      0.00000000      0.00000000</v>
    <i type="logical" name="LZEROZ"> F  </i>
   </separator>
   <separator name="electronic exchange-correlation" >
    <i type="logical" name="LASPH"> F  </i>
    <i type="logical" name="LMETAGGA"> F  </i>
   </separator>
   <separator name="electronic convergence" >
    <i type="int" name="NELM">   400</i>
    <i type="int" name="NELMDL">    -5</i>
    <i type="int" name="NELMIN">     2</i>
    <i name="ENINI">    400.00000000</i>
    <separator name="electronic convergence detail" >
     <i type="logical" name="LDIAG"> T  </i>
     <i type="logical" name="LSUBROT"> F  </i>
     <i name="WEIMIN">      0.00100000</i>
     <i name="EBREAK">      0.00000000</i>
     <i name="DEPER">      0.30000000</i>
     <i type="int" name="NRMM">     4</i>
     <i name="TIME">      0.40000000</i>
    </separator>
   </separator>
   <separator name="electronic mixer" >
    <i name="AMIX">      0.40000000</i>
    <i name="BMIX">      1.00000000</i>
    <i name="AMIN">      0.10000000</i>
    <i name="AMIX_MAG">      1.60000000</i>
    <i name="BMIX_MAG">      1.00000000</i>
    <separator name="electronic mixer details" >
     <i type="int" name="IMIX">     4</i>
     <i type="logical" name="MIXFIRST"> F  </i>
     <i type="int" name="MAXMIX">   -45</i>
     <i name="WC">    100.00000000</i>
     <i type="int" name="INIMIX">     1</i>
     <i type="int" name="MIXPRE">     1</i>
     <i type="int" name="MREMOVE">     5</i>
    </separator>
   </separator>
   <separator name="electronic dipolcorrection" >
    <i type="logical" name="LDIPOL"> F  </i>
    <i type="logical" name="LMONO"> F  </i>
    <i type="int" name="IDIPOL">     0</i>
    <i name="EPSILON">      1.00000000</i>
    <v name="DIPOL">   -100.00000000   -100.00000000   -100.00000000</v>
    <i name="EFIELD">      0.00000000</i>
   </separator>
  </separator>
  <separator name="grids" >
   <i type="int" name="NGX">    72</i>
   <i type="int" name="NGY">    72</i>
   <i type="int" name="NGZ">    72</i>
   <i type="int" name="NGXF">   144</i>
   <i type="int" name="NGYF">   144</i>
   <i type="int" name="NGZF">   144</i>
   <i type="logical" name="ADDGRID"> F  </i>
  </separator>
  <separator name="ionic" >
   <i type="int" name="NSW">   100</i>
   <i type="int" name="IBRION">     2</i>
   <i type="int" name="MDALGO">     0</i>
   <i type="int" name="ISIF">     3</i>
   <i name="PSTRESS">      0.00000000</i>
   <i name="EDIFFG">     -0.01000000</i>
   <i type="int" name="NFREE">     1</i>
   <i name="POTIM">      0.50000000</i>
   <i name="SMASS">     -3.00000000</i>
   <i name="SCALEE">      1.00000000</i>
  </separator>
  <separator name="ionic md" >
   <i name="TEBEG">      0.00010000</i>
   <i name="TEEND">      0.00010000</i>
   <i type="int" name="NBLOCK">     1</i>
   <i type="int" name="KBLOCK">   100</i>
   <i type="int" name="NPACO">   256</i>
   <i name="APACO">     16.00000000</i>
  </separator>
  <separator name="symmetry" >
   <i type="int" name="ISYM">     2</i>
   <i name="SYMPREC">      0.00001000</i>
  </separator>
  <separator name="dos" >
   <i type="int" name="LORBIT">     0</i>
   <v name="RWIGS">     -1.00000000</v>
   <i type="int" name="NEDOS">   301</i>
   <i name="EMIN">     10.00000000</i>
   <i name="EMAX">    -10.00000000</i>
   <i name="EFERMI">      0.00000000</i>
  </separator>
  <separator name="writing" >
   <i type="int" name="NWRITE">     2</i>
   <i type="logical" name="LWAVE"> F  </i>
   <i type="logical" name="LDOWNSAMPLE"> F  </i>
   <i type="logical" name="LCHARG"> F  </i>
   <i type="logical" name="LPARD"> F  </i>
   <i type="logical" name="LVTOT"> F  </i>
   <i type="logical" name="LVHAR"> F  </i>
   <i type="logical" name="LELF"> F  </i>
   <i type="logical" name="LOPTICS"> F  </i>
   <v name="STM">      0.00000000      0.00000000      0.00000000      0.00000000      0.00000000      0.00000000      0.00000000</v>
  </separator>
  <separator name="performance" >
   <i type="int" name="NPAR">     2</i>
   <i type="int" name="NSIM">     4</i>
   <i type="int" name="NBLK">    -1</i>
   <i type="logical" name="LPLANE"> T  </i>
   <i type="logical" name="LSCALAPACK"> T  </i>
   <i type="logical" name="LSCAAWARE"> F  </i>
   <i type="logical" name="LSCALU"> F  </i>
   <i type="logical" name="LASYNC"> F  </i>
   <i type="logical" name="LORBITALREAL"> F  </i>
  </separator>
  <separator name="miscellaneous" >
   <i type="int" name="IDIOT">     3</i>
   <i type="int" name="ISPECIAL">     0</i>
   <i type="logical" name="LMUSIC"> F  </i>
   <v name="POMASS">     55.84700000</v>
   <v name="DARWINR">      0.00000000</v>
   <v name="DARWINV">      1.00000000</v>
   <i type="logical" name="LCORR"> T  </i>
  </separator>
  <i type="logical" name="GGA_COMPAT"> T  </i>
  <i type="logical" name="LBERRY"> F  </i>
  <i type="int" name="ICORELEVEL">     0</i>
  <i type="logical" name="LDAU"> F  </i>
  <i type="int" name="I_CONSTRAINED_M">     0</i>
  <separator name="electronic exchange-correlation" >
   <i type="string" name="GGA">--</i>
   <i type="int" name="VOSKOWN">     0</i>
   <i type="logical" name="LHFCALC"> F  </i>
   <i type="string" name="PRECFOCK"></i>
   <i type="logical" name="LSYMGRAD"> F  </i>
   <i type="logical" name="LHFONE"> F  </i>
   <i type="logical" name="LRHFCALC"> F  </i>
   <i type="logical" name="LTHOMAS"> F  </i>
   <i type="logical" name="LMODELHF"> F  </i>
   <i name="ENCUT4O">     -1.00000000</i>
   <i type="int" name="EXXOEP">     0</i>
   <i type="int" name="FOURORBIT">     0</i>
   <i name="AEXX">      0.00000000</i>
   <i name="HFALPHA">      0.00000000</i>
   <i name="MCALPHA">      0.00000000</i>
   <i name="ALDAX">      1.00000000</i>
   <i name="AGGAX">      1.00000000</i>
   <i name="ALDAC">      1.00000000</i>
   <i name="AGGAC">      1.00000000</i>
   <i type="int" name="NKREDX">     1</i>
   <i type="int" name="NKREDY">     1</i>
   <i type="int" name="NKREDZ">     1</i>
   <i type="logical" name="SHIFTRED"> F  </i>
   <i type="logical" name="ODDONLY"> F  </i>
   <i type="logical" name="EVENONLY"> F  </i>
   <i type="int" name="LMAXFOCK">     0</i>
   <i type="int" name="NMAXFOCKAE">     0</i>
   <i type="logical" name="LFOCKAEDFT"> F  </i>
   <i name="HFSCREEN">      0.00000000</i>
   <i name="HFSCREENC">      0.00000000</i>
   <i type="int" name="NBANDSGWLOW">     0</i>
  </separator>
  <separator name="vdW DFT" >
   <i type="logical" name="LUSE_VDW"> F  </i>
   <i name="Zab_VDW">     -0.84910000</i>
   <i name="PARAM1">      0.12340000</i>
   <i name="PARAM2">      1.00000000</i>
   <i name="PARAM3">      0.00000000</i>
  </separator>
  <separator name="model GW" >
   <i type="int" name="MODEL_GW">     0</i>
   <i name="MODEL_EPS0">      6.13252964</i>
   <i name="MODEL_ALPHA">      1.00000000</i>
  </separator>
  <separator name="linear response parameters" >
   <i type="logical" name="LEPSILON"> F  </i>
   <i type="logical" name="LRPA"> F  </i>
   <i type="logical" name="LNABLA"> F  </i>
   <i type="logical" name="LVEL"> F  </i>
   <i type="int" name="KINTER">     0</i>
   <i name="CSHIFT">      0.10000000</i>
   <i name="OMEGAMAX">     -1.00000000</i>
   <i name="DEG_THRESHOLD">      0.00200000</i>
   <i name="RTIME">     -0.10000000</i>
   <i name="WPLASMAI">      0.00000000</i>
   <v name="DFIELD">      0.00000000      0.00000000      0.00000000</v>
   <v name="WPLASMA">      0.00000000      0.00000000      0.00000000      0.00000000      0.00000000      0.00000000      0.00000000      0.00000000      0.00000000</v>
  </separator>
  <separator name="orbital magnetization" >
   <i type="logical" name="NUCIND"> F  </i>
   <v name="MAGPOS">      0.00000000      0.00000000      0.00000000</v>
   <i type="logical" name="LNICSALL"> T  </i>
   <i type="logical" name="ORBITALMAG"> F  </i>
   <i type="logical" name="LMAGBLOCH"> F  </i>
   <i type="logical" name="LCHIMAG"> F  </i>
   <i type="logical" name="LGAUGE"> T  </i>
   <i type="int" name="MAGATOM">     0</i>
   <v name="MAGDIPOL">      0.00000000      0.00000000      0.00000000</v>
   <v name="AVECCONST">      0.00000000      0.00000000      0.00000000</v>
  </separator>
  <separator name="response functions" >
   <i type="logical" name="LADDER"> F  </i>
   <i type="logical" name="LRPAFORCE"> F  </i>
   <i type="logical" name="LFXC"> F  </i>
   <i type="logical" name="LHARTREE"> T  </i>
   <i type="int" name="IBSE">     0</i>
   <v type="int" name="KPOINT">    -1     0     0     0</v>
   <i type="logical" name="LTCTE"> F  </i>
   <i type="logical" name="LTETE"> F  </i>
   <i type="logical" name="LTRIPLET"> F  </i>
   <i type="logical" name="LFXCEPS"> F  </i>
   <i type="logical" name="LFXHEG"> F  </i>
   <i type="int" name="NATURALO">     2</i>
   <i type="logical" name="L2ORDER"> F  </i>
   <i type="logical" name="LMP2LT"> F  </i>
   <i type="logical" name="LUSEW"> F  </i>
   <i name="ENCUTGW">     -2.00000000</i>
   <i name="ENCUTGWSOFT">     -2.00000000</i>
   <i name="ENCUTLF">     -1.00000000</i>
   <i type="int" name="LMAXMP2">    -1</i>
   <i name="SCISSOR">      0.00000000</i>
   <i type="int" name="NOMEGA">     0</i>
   <i type="int" name="NOMEGAR">     0</i>
   <i type="int" name="NBANDSGW">    -1</i>
   <i type="int" name="NBANDSO">    -1</i>
   <i type="int" name="NBANDSV">    -1</i>
   <i type="int" name="NELM">   400</i>
   <i type="int" name="NELMHF">     1</i>
   <i type="int" name="DIM">     3</i>
   <i type="int" name="ANTIRES">     0</i>
   <i name="OMEGAMAX">    -30.00000000</i>
   <i name="OMEGAMIN">    -30.00000000</i>
   <i name="OMEGATL">   -200.00000000</i>
   <i type="int" name="OMEGAGRID">   140</i>
   <i name="CSHIFT">     -0.10000000</i>
   <i type="logical" name="SELFENERGY"> F  </i>
   <i type="logical" name="LSPECTRAL"> F  </i>
   <i type="logical" name="LSPECTRALGW"> F  </i>
   <i type="logical" name="LSINGLES"> F  </i>
   <i type="logical" name="LFERMIGW"> F  </i>
   <i type="logical" name="ODDONLYGW"> F  </i>
   <i type="logical" name="EVENONLYGW"> F  </i>
   <i type="int" name="NKREDLFX">     1</i>
   <i type="int" name="NKREDLFY">     1</i>
   <i type="int" name="NKREDLFZ">     1</i>
   <i type="int" name="MAXMEM">  2800</i>
   <i type="int" name="TELESCOPE">     0</i>
   <i type="int" name="TAUPAR">     1</i>
   <i type="int" name="OMEGAPAR">    -1</i>
   <i name="LAMBDA">      1.00000000</i>
  </separator>
  <separator name="External order field" >
   <i name="OFIELD_KAPPA">      0.00000000</i>
   <v name="OFIELD_K">      0.00000000      0.00000000      0.00000000</v>
   <i name="OFIELD_Q6_NEAR">      0.00000000</i>
   <i name="OFIELD_Q6_FAR">      0.00000000</i>
   <i name="OFIELD_A">      0.00000000</i>
  </separator>
 </parameters>
 <atominfo>
  <atoms>     108 </atoms>
  <types>       1 </types>
  <array name="atoms" >
   <dimension dim="1">ion</dimension>
   <field type="string">element</field>
   <field type="int">atomtype</field>
   <set>
    <rc><c>Fe</c><c>   1</c></rc>
    <rc><c>Fe</c><c>   1</c></rc>
    <rc><c>Fe</c><c>   1</c></rc>
    <rc><c>Fe</c><c>   1</c></rc>
    <rc><c>Fe</c><c>   1</c></rc>
    <rc><c>Fe</c><c>   1</c></rc>
    <rc><c>Fe</c><c>   1</c></rc>
    <rc><c>Fe</c><c>   1</c></rc>
    <rc><c>Fe</c><c>   1</c></rc>
    <rc><c>Fe</c><c>   1</c></rc>
    <rc><c>Fe</c><c>   1</c></rc>
    <rc><c>Fe</c><c>   1</c></rc>
    <rc><c>Fe</c><c>   1</c></rc>
    <rc><c>Fe</c><c>   1</c></rc>
    <rc><c>Fe</c><c>   1</c></rc>
    <rc><c>Fe</c><c>   1</c></rc>
    <rc><c>Fe</c><c>   1</c></rc>
    <rc><c>Fe</c><c>   1</c></rc>
    <rc><c>Fe</c><c>   1</c></rc>
    <rc><c>Fe</c><c>   1</c></rc>
    <rc><c>Fe</c><c>   1</c></rc>
    <rc><c>Fe</c><c>   1</c></rc>
    <rc><c>Fe</c><c>   1</c></rc>
    <rc><c>Fe</c><c>   1</c></rc>
    <rc><c>Fe</c><c>   1</c></rc>
    <rc><c>Fe</c><c>   1</c></rc>
    <rc><c>Fe</c><c>   1</c></rc>
    <rc><c>Fe</c><c>   1</c></rc>
    <rc><c>Fe</c><c>   1</c></rc>
    <rc><c>Fe</c><c>   1</c></rc>
    <rc><c>Fe</c><c>   1</c></rc>
    <rc><c>Fe</c><c>   1</c></rc>
    <rc><c>Fe</c><c>   1</c></rc>
    <rc><c>Fe</c><c>   1</c></rc>
    <rc><c>Fe</c><c>   1</c></rc>
    <rc><c>Fe</c><c>   1</c></rc>
    <rc><c>Fe</c><c>   1</c></rc>
    <rc><c>Fe</c><c>   1</c></rc>
    <rc><c>Fe</c><c>   1</c></rc>
    <rc><c>Fe</c><c>   1</c></rc>
    <rc><c>Fe</c><c>   1</c></rc>
    <rc><c>Fe</c><c>   1</c></rc>
    <rc><c>Fe</c><c>   1</c></rc>
    <rc><c>Fe</c><c>   1</c></rc>
    <rc><c>Fe</c><c>   1</c></rc>
    <rc><c>Fe</c><c>   1</c></rc>
    <rc><c>Fe</c><c>   1</c></rc>
    <rc><c>Fe</c><c>   1</c></rc>
    <rc><c>Fe</c><c>   1</c></rc>
    <rc><c>Fe</c><c>   1</c></rc>
    <rc><c>Fe</c><c>   1</c></rc>
    <rc><c>Fe</c><c>   1</c></rc>
    <rc><c>Fe</c><c>   1</c></rc>
    <rc><c>Fe</c><c>   1</c></rc>
    <rc><c>Fe</c><c>   1</c></rc>
    <rc><c>Fe</c><c>   1</c></rc>
    <rc><c>Fe</c><c>   1</c></rc>
    <rc><c>Fe</c><c>   1</c></rc>
    <rc><c>Fe</c><c>   1</c></rc>
    <rc><c>Fe</c><c>   1</c></rc>
    <rc><c>Fe</c><c>   1</c></rc>
    <rc><c>Fe</c><c>   1</c></rc>
    <rc><c>Fe</c><c>   1</c></rc>
    <rc><c>Fe</c><c>   1</c></rc>
    <rc><c>Fe</c><c>   1</c></rc>
    <rc><c>Fe</c><c>   1</c></rc>
    <rc><c>Fe</c><c>   1</c></rc>
    <rc><c>Fe</c><c>   1</c></rc>
    <rc><c>Fe</c><c>   1</c></rc>
    <rc><c>Fe</c><c>   1</c></rc>
    <rc><c>Fe</c><c>   1</c></rc>
    <rc><c>Fe</c><c>   1</c></rc>
    <rc><c>Fe</c><c>   1</c></rc>
    <rc><c>Fe</c><c>   1</c></rc>
    <rc><c>Fe</c><c>   1</c></rc>
    <rc><c>Fe</c><c>   1</c></rc>
    <rc><c>Fe</c><c>   1</c></rc>
    <rc><c>Fe</c><c>   1</c></rc>
    <rc><c>Fe</c><c>   1</c></rc>
    <rc><c>Fe</c><c>   1</c></rc>
    <rc><c>Fe</c><c>   1</c></rc>
    <rc><c>Fe</c><c>   1</c></rc>
    <rc><c>Fe</c><c>   1</c></rc>
    <rc><c>Fe</c><c>   1</c></rc>
    <rc><c>Fe</c><c>   1</c></rc>
    <rc><c>Fe</c><c>   1</c></rc>
    <rc><c>Fe</c><c>   1</c></rc>
    <rc><c>Fe</c><c>   1</c></rc>
    <rc><c>Fe</c><c>   1</c></rc>
    <rc><c>Fe</c><c>   1</c></rc>
    <rc><c>Fe</c><c>   1</c></rc>
    <rc><c>Fe</c><c>   1</c></rc>
    <rc><c>Fe</c><c>   1</c></rc>
    <rc><c>Fe</c><c>   1</c></rc>
    <rc><c>Fe</c><c>   1</c></rc>
    <rc><c>Fe</c><c>   1</c></rc>
    <rc><c>Fe</c><c>   1</c></rc>
    <rc><c>Fe</c><c>   1</c></rc>
    <rc><c>Fe</c><c>   1</c></rc>
    <rc><c>Fe</c><c>   1</c></rc>
    <rc><c>Fe</c><c>   1</c></rc>
    <rc><c>Fe</c><c>   1</c></rc>
    <rc><c>Fe</c><c>   1</c></rc>
    <rc><c>Fe</c><c>   1</c></rc>
    <rc><c>Fe</c><c>   1</c></rc>
    <rc><c>Fe</c><c>   1</c></rc>
    <rc><c>Fe</c><c>   1</c></rc>
    <rc><c>Fe</c><c>   1</c></rc>
   </set>
  </array>
  <array name="atomtypes" >
   <dimension dim="1">type</dimension>
   <field type="int">atomspertype</field>
   <field type="string">element</field>
   <field>mass</field>
   <field>valence</field>
   <field type="string">pseudopotential</field>
   <set>
    <rc><c> 108</c><c>Fe</c><c>     55.84700000</c><c>      8.00000000</c><c> PAW_PBE Fe 06Sep2000                   </c></rc>
   </set>
  </array>
 </atominfo>
 <structure name="initialpos" >
  <crystal>
   <varray name="basis" >
    <v>      10.33484705       0.00000000       0.00000000 </v>
    <v>       0.00000000      10.33484705       0.00000000 </v>
    <v>       0.00000000       0.00000000      10.33484705 </v>
   </varray>
   <i name="volume">   1103.85533447 </i>
   <varray name="rec_basis" >
    <v>       0.09676002       0.00000000       0.00000000 </v>
    <v>       0.00000000       0.09676002       0.00000000 </v>
    <v>       0.00000000       0.00000000       0.09676002 </v>
   </varray>
  </crystal>
  <varray name="positions" >
   <v>       0.00000000       0.00000000       0.00000000 </v>
   <v>       0.00000000       0.16666893       0.16666893 </v>
   <v>       0.16666893       0.00000000       0.16666893 </v>
   <v>       0.16666893       0.16666893       0.00000000 </v>
   <v>       0.33333106       0.00000000       0.00000000 </v>
   <v>       0.33333107       0.16666893       0.16666893 </v>
   <v>       0.50000000       0.00000000       0.16666894 </v>
   <v>       0.50000000       0.16666894       0.00000000 </v>
   <v>       0.66666897       0.00000000       0.00000000 </v>
   <v>       0.66666896       0.16666893       0.16666893 </v>
   <v>       0.83333104       0.00000000       0.16666893 </v>
   <v>       0.83333104       0.16666893       0.00000000 </v>
   <v>       0.00000000       0.33333106       0.00000000 </v>
   <v>       0.00000000       0.50000000       0.16666894 </v>
   <v>       0.16666893       0.33333107       0.16666893 </v>
   <v>       0.16666894       0.50000000       0.00000000 </v>
   <v>       0.33333107       0.33333107       0.00000000 </v>
   <v>       0.33333107       0.50000000       0.16666893 </v>
   <v>       0.50000000       0.33333107       0.16666893 </v>
   <v>       0.50000000       0.50000000       0.00000000 </v>
   <v>       0.66666896       0.33333107       0.00000000 </v>
   <v>       0.66666896       0.50000000       0.16666893 </v>
   <v>       0.83333104       0.33333107       0.16666893 </v>
   <v>       0.83333103       0.50000000       0.00000000 </v>
   <v>       0.00000000       0.66666897       0.00000000 </v>
   <v>       0.00000000       0.83333104       0.16666893 </v>
   <v>       0.16666893       0.66666896       0.16666893 </v>
   <v>       0.16666893       0.83333104       0.00000000 </v>
   <v>       0.33333107       0.66666896       0.00000000 </v>
   <v>       0.33333107       0.83333104       0.16666893 </v>
   <v>       0.50000000       0.66666896       0.16666893 </v>
   <v>       0.50000000       0.83333103       0.00000000 </v>
   <v>       0.66666896       0.66666896       0.00000000 </v>
   <v>       0.66666896       0.83333104       0.16666893 </v>
   <v>       0.83333104       0.66666896       0.16666893 </v>
   <v>       0.83333104       0.83333104       0.00000000 </v>
   <v>       0.00000000       0.00000000       0.33333106 </v>
   <v>       0.00000000       0.16666894       0.50000000 </v>
   <v>       0.16666894       0.00000000       0.50000000 </v>
   <v>       0.16666893       0.16666893       0.33333107 </v>
   <v>       0.33333107       0.00000000       0.33333107 </v>
   <v>       0.33333107       0.16666893       0.50000000 </v>
   <v>       0.50000000       0.00000000       0.50000000 </v>
   <v>       0.50000000       0.16666893       0.33333107 </v>
   <v>       0.66666896       0.00000000       0.33333107 </v>
   <v>       0.66666896       0.16666893       0.50000000 </v>
   <v>       0.83333103       0.00000000       0.50000000 </v>
   <v>       0.83333104       0.16666893       0.33333107 </v>
   <v>       0.00000000       0.33333107       0.33333107 </v>
   <v>       0.00000000       0.50000000       0.50000000 </v>
   <v>       0.16666893       0.33333107       0.50000000 </v>
   <v>       0.16666893       0.50000000       0.33333107 </v>
   <v>       0.33333107       0.33333107       0.33333107 </v>
   <v>       0.33333106       0.50000000       0.50000000 </v>
   <v>       0.50000000       0.33333106       0.50000000 </v>
   <v>       0.50000000       0.50000000       0.33333106 </v>
   <v>       0.66666896       0.33333107       0.33333107 </v>
   <v>       0.66666897       0.50000000       0.50000000 </v>
   <v>       0.83333104       0.33333107       0.50000000 </v>
   <v>       0.83333104       0.50000000       0.33333107 </v>
   <v>       0.00000000       0.66666896       0.33333107 </v>
   <v>       0.00000000       0.83333103       0.50000000 </v>
   <v>       0.16666893       0.66666896       0.50000000 </v>
   <v>       0.16666893       0.83333104       0.33333107 </v>
   <v>       0.33333107       0.66666896       0.33333107 </v>
   <v>       0.33333107       0.83333104       0.50000000 </v>
   <v>       0.50000000       0.66666897       0.50000000 </v>
   <v>       0.50000000       0.83333104       0.33333107 </v>
   <v>       0.66666896       0.66666896       0.33333107 </v>
   <v>       0.66666896       0.83333104       0.50000000 </v>
   <v>       0.83333104       0.66666896       0.50000000 </v>
   <v>       0.83333104       0.83333104       0.33333107 </v>
   <v>       0.00000000       0.00000000       0.66666897 </v>
   <v>       0.00000000       0.16666893       0.83333104 </v>
   <v>       0.16666893       0.00000000       0.83333104 </v>
   <v>       0.16666893       0.16666893       0.66666896 </v>
   <v>       0.33333107       0.00000000       0.66666896 </v>
   <v>       0.33333107       0.16666893       0.83333104 </v>
   <v>       0.50000000       0.00000000       0.83333103 </v>
   <v>       0.50000000       0.16666893       0.66666896 </v>
   <v>       0.66666896       0.00000000       0.66666896 </v>
   <v>       0.66666896       0.16666893       0.83333104 </v>
   <v>       0.83333104       0.00000000       0.83333104 </v>
   <v>       0.83333104       0.16666893       0.66666896 </v>
   <v>       0.00000000       0.33333107       0.66666896 </v>
   <v>       0.00000000       0.50000000       0.83333103 </v>
   <v>       0.16666893       0.33333107       0.83333104 </v>
   <v>       0.16666893       0.50000000       0.66666896 </v>
   <v>       0.33333107       0.33333107       0.66666896 </v>
   <v>       0.33333107       0.50000000       0.83333104 </v>
   <v>       0.50000000       0.33333107       0.83333104 </v>
   <v>       0.50000000       0.50000000       0.66666897 </v>
   <v>       0.66666896       0.33333107       0.66666896 </v>
   <v>       0.66666896       0.50000000       0.83333104 </v>
   <v>       0.83333104       0.33333107       0.83333104 </v>
   <v>       0.83333104       0.50000000       0.66666896 </v>
   <v>       0.00000000       0.66666896       0.66666896 </v>
   <v>       0.00000000       0.83333104       0.83333104 </v>
   <v>       0.16666893       0.66666896       0.83333104 </v>
   <v>       0.16666893       0.83333104       0.66666896 </v>
   <v>       0.33333107       0.66666896       0.66666896 </v>
   <v>       0.33333107       0.83333104       0.83333104 </v>
   <v>       0.50000000       0.66666896       0.83333104 </v>
   <v>       0.50000000       0.83333104       0.66666896 </v>
   <v>       0.66666896       0.66666896       0.66666896 </v>
   <v>       0.66666896       0.83333104       0.83333104 </v>
   <v>       0.83333104       0.66666896       0.83333104 </v>
   <v>       0.83333104       0.83333104       0.66666896 </v>
  </varray>
 </structure>
 <calculation>
  <scstep>
   <time name="dav">   41.27   41.30</time>
   <time name="total">   41.62   41.65</time>
   <energy>
    <i name="alphaZ">   7300.31925852 </i>
    <i name="ewald"> -66232.83996889 </i>
    <i name="hartreedc"> -11197.02572337 </i>
    <i name="XCdc">    446.63038354 </i>
    <i name="pawpsdc">  51723.88885462 </i>
    <i name="pawaedc"> -52548.28121372 </i>
    <i name="eentropy">     -0.00087333 </i>
    <i name="bandstr">  13897.28797072 </i>
    <i name="atom">  64201.67088057 </i>
    <i name="e_fr_energy">   7591.64956867 </i>
    <i name="e_wo_entrp">   7591.65044200 </i>
    <i name="e_0_energy">   7591.64985978 </i>
   </energy>
  </scstep>
  <scstep>
   <time name="dav">   41.04   41.05</time>
   <time name="total">   41.05   41.05</time>
   <energy>
    <i name="e_fr_energy">    -24.69090285 </i>
    <i name="e_wo_entrp">    -24.70939969 </i>
    <i name="e_0_energy">    -24.69706846 </i>
   </energy>
  </scstep>
  <scstep>
   <time name="dav">   41.20   41.20</time>
   <time name="total">   41.20   41.21</time>
   <energy>
    <i name="e_fr_energy">   -850.71890800 </i>
    <i name="e_wo_entrp">   -850.75094066 </i>
    <i name="e_0_energy">   -850.72958556 </i>
   </energy>
  </scstep>
  <scstep>
   <time name="dav">   66.50   66.51</time>
   <time name="total">   66.51   66.51</time>
   <energy>
    <i name="e_fr_energy">  -1029.68417625 </i>
    <i name="e_wo_entrp">  -1029.64033884 </i>
    <i name="e_0_energy">  -1029.66956378 </i>
   </energy>
  </scstep>
  <scstep>
   <time name="dav">   59.96   59.96</time>
   <time name="total">   62.08   62.09</time>
   <energy>
    <i name="e_fr_energy">  -1045.05832583 </i>
    <i name="e_wo_entrp">  -1044.95475254 </i>
    <i name="e_0_energy">  -1045.02380140 </i>
   </energy>
  </scstep>
  <scstep>
   <time name="diag">    5.06    5.06</time>
   <time name="diis">   26.02   26.02</time>
   <time name="orth">    0.99    0.99</time>
   <time name="total">   34.45   34.46</time>
   <energy>
    <i name="e_fr_energy">   -877.44215340 </i>
    <i name="e_wo_entrp">   -877.37946564 </i>
    <i name="e_0_energy">   -877.42125748 </i>
   </energy>
  </scstep>
  <scstep>
   <time name="diag">    4.98    4.98</time>
   <time name="diis">   28.37   28.37</time>
   <time name="orth">    1.02    1.02</time>
   <time name="total">   36.76   36.76</time>
   <energy>
    <i name="e_fr_energy">   -880.28173731 </i>
    <i name="e_wo_entrp">   -880.15198332 </i>
    <i name="e_0_energy">   -880.23848598 </i>
   </energy>
  </scstep>
  <scstep>
   <time name="diag">    4.95    4.95</time>
   <time name="diis">   27.80   27.80</time>
   <time name="orth">    1.00    1.00</time>
   <time name="total">   36.18   36.18</time>
   <energy>
    <i name="e_fr_energy">   -880.28363887 </i>
    <i name="e_wo_entrp">   -880.16551194 </i>
    <i name="e_0_energy">   -880.24426323 </i>
   </energy>
  </scstep>
  <scstep>
   <time name="diag">    4.99    4.99</time>
   <time name="diis">   31.31   31.31</time>
   <time name="orth">    1.03    1.03</time>
   <time name="total">   39.94   39.95</time>
   <energy>
    <i name="e_fr_energy">   -879.63274068 </i>
    <i name="e_wo_entrp">   -879.56056985 </i>
    <i name="e_0_energy">   -879.60868373 </i>
   </energy>
  </scstep>
  <scstep>
   <time name="diag">    4.90    4.90</time>
   <time name="diis">   35.23   35.23</time>
   <time name="orth">    1.00    1.00</time>
   <time name="total">   43.69   43.69</time>
   <energy>
    <i name="e_fr_energy">   -879.50754910 </i>
    <i name="e_wo_entrp">   -879.42733205 </i>
    <i name="e_0_energy">   -879.48081008 </i>
   </energy>
  </scstep>
  <scstep>
   <time name="diag">    5.07    5.07</time>
   <time name="diis">   35.49   35.49</time>
   <time name="orth">    1.03    1.03</time>
   <time name="total">   44.18   44.19</time>
   <energy>
    <i name="e_fr_energy">   -879.52101545 </i>
    <i name="e_wo_entrp">   -879.44216354 </i>
    <i name="e_0_energy">   -879.49473148 </i>
   </energy>
  </scstep>
  <scstep>
   <time name="diag">    5.12    5.12</time>
   <time name="diis">   28.14   28.14</time>
   <time name="orth">    1.02    1.02</time>
   <time name="total">   36.92   36.92</time>
   <energy>
    <i name="e_fr_energy">   -879.51636904 </i>
    <i name="e_wo_entrp">   -879.44078701 </i>
    <i name="e_0_energy">   -879.49117503 </i>
   </energy>
  </scstep>
  <scstep>
   <time name="diag">    5.22    5.22</time>
   <time name="diis">   35.44   35.44</time>
   <time name="orth">    1.02    1.02</time>
   <time name="total">   44.29   44.30</time>
   <energy>
    <i name="e_fr_energy">   -879.51717071 </i>
    <i name="e_wo_entrp">   -879.44272023 </i>
    <i name="e_0_energy">   -879.49235388 </i>
   </energy>
  </scstep>
  <scstep>
   <time name="diag">    5.18    5.18</time>
   <time name="diis">   29.67   29.69</time>
   <time name="orth">    1.01    1.01</time>
   <time name="total">   38.39   38.41</time>
   <energy>
    <i name="e_fr_energy">   -879.51718549 </i>
    <i name="e_wo_entrp">   -879.44293095 </i>
    <i name="e_0_energy">   -879.49243397 </i>
   </energy>
  </scstep>
  <scstep>
   <time name="diag">    5.13    5.13</time>
   <time name="diis">   37.20   37.21</time>
   <time name="orth">    1.03    1.03</time>
   <time name="total">   45.99   45.99</time>
   <energy>
    <i name="e_fr_energy">   -879.51717980 </i>
    <i name="e_wo_entrp">   -879.44333973 </i>
    <i name="e_0_energy">   -879.49256645 </i>
   </energy>
  </scstep>
  <scstep>
   <time name="diag">    5.30    5.30</time>
   <time name="diis">   27.07   27.07</time>
   <time name="orth">    1.03    1.03</time>
   <time name="total">   36.09   36.09</time>
   <energy>
    <i name="e_fr_energy">   -879.51715520 </i>
    <i name="e_wo_entrp">   -879.44360987 </i>
    <i name="e_0_energy">   -879.49264009 </i>
   </energy>
  </scstep>
  <scstep>
   <time name="diag">    5.11    5.11</time>
   <time name="diis">   19.53   19.53</time>
   <time name="orth">    1.04    1.04</time>
   <time name="total">   28.37   28.37</time>
   <energy>
    <i name="e_fr_energy">   -879.51710727 </i>
    <i name="e_wo_entrp">   -879.44407115 </i>
    <i name="e_0_energy">   -879.49276189 </i>
   </energy>
  </scstep>
  <scstep>
   <time name="diag">    5.13    5.13</time>
   <time name="diis">   17.63   17.63</time>
   <time name="orth">    1.04    1.04</time>
   <time name="total">   26.47   26.47</time>
   <energy>
    <i name="e_fr_energy">   -879.51708566 </i>
    <i name="e_wo_entrp">   -879.44429070 </i>
    <i name="e_0_energy">   -879.49282067 </i>
   </energy>
  </scstep>
  <scstep>
   <time name="diag">    5.12    5.12</time>
   <time name="diis">   17.00   17.00</time>
   <time name="orth">    1.03    1.03</time>
   <time name="total">   25.84   25.84</time>
   <energy>
    <i name="e_fr_energy">   -879.51707220 </i>
    <i name="e_wo_entrp">   -879.44445841 </i>
    <i name="e_0_energy">   -879.49286760 </i>
   </energy>
  </scstep>
  <scstep>
   <time name="diag">    5.12    5.13</time>
   <time name="diis">   16.80   16.80</time>
   <time name="orth">    1.04    1.04</time>
   <time name="total">   25.64   25.64</time>
   <energy>
    <i name="e_fr_energy">   -879.51706069 </i>
    <i name="e_wo_entrp">   -879.44459867 </i>
    <i name="e_0_energy">   -879.49290668 </i>
   </energy>
  </scstep>
  <scstep>
   <time name="diag">    5.14    5.14</time>
   <time name="diis">   16.39   16.39</time>
   <time name="orth">    1.03    1.03</time>
   <time name="total">   25.24   25.25</time>
   <energy>
    <i name="e_fr_energy">   -879.51705091 </i>
    <i name="e_wo_entrp">   -879.44472423 </i>
    <i name="e_0_energy">   -879.49294202 </i>
   </energy>
  </scstep>
  <scstep>
   <time name="diag">    5.16    5.16</time>
   <time name="diis">   16.09   16.09</time>
   <time name="orth">    1.03    1.03</time>
   <time name="total">   24.95   24.95</time>
   <energy>
    <i name="e_fr_energy">   -879.51703270 </i>
    <i name="e_wo_entrp">   -879.44493175 </i>
    <i name="e_0_energy">   -879.49299905 </i>
   </energy>
  </scstep>
  <scstep>
   <time name="diag">    5.17    5.17</time>
   <time name="diis">   15.05   15.05</time>
   <time name="orth">    1.03    1.03</time>
   <time name="total">   23.92   23.92</time>
   <energy>
    <i name="e_fr_energy">   -879.51702397 </i>
    <i name="e_wo_entrp">   -879.44504190 </i>
    <i name="e_0_energy">   -879.49302995 </i>
   </energy>
  </scstep>
  <scstep>
   <time name="diag">    5.14    5.14</time>
   <time name="diis">   14.71   14.71</time>
   <time name="orth">    1.03    1.03</time>
   <time name="total">   23.55   23.55</time>
   <energy>
    <i name="e_fr_energy">   -879.51701385 </i>
    <i name="e_wo_entrp">   -879.44516525 </i>
    <i name="e_0_energy">   -879.49306432 </i>
   </energy>
  </scstep>
  <scstep>
   <time name="diag">    5.19    5.19</time>
   <time name="diis">   14.42   14.42</time>
   <time name="orth">    1.03    1.03</time>
   <time name="total">   23.30   23.30</time>
   <energy>
    <i name="e_fr_energy">   -879.51700680 </i>
    <i name="e_wo_entrp">   -879.44525440 </i>
    <i name="e_0_energy">   -879.49308933 </i>
   </energy>
  </scstep>
  <scstep>
   <time name="diag">    5.23    5.23</time>
   <time name="diis">   14.00   14.00</time>
   <time name="orth">    1.03    1.03</time>
   <time name="total">   22.91   22.91</time>
   <energy>
    <i name="e_fr_energy">   -879.51700109 </i>
    <i name="e_wo_entrp">   -879.44533009 </i>
    <i name="e_0_energy">   -879.49311076 </i>
   </energy>
  </scstep>
  <scstep>
   <time name="diag">    5.22    5.22</time>
   <time name="diis">   13.47   13.47</time>
   <time name="orth">    1.03    1.03</time>
   <time name="total">   22.37   22.37</time>
   <energy>
    <i name="e_fr_energy">   -879.51699606 </i>
    <i name="e_wo_entrp">   -879.44539677 </i>
    <i name="e_0_energy">   -879.49312963 </i>
   </energy>
  </scstep>
  <scstep>
   <time name="diag">    5.18    5.19</time>
   <time name="diis">   13.03   13.03</time>
   <time name="orth">    1.02    1.02</time>
   <time name="total">   21.85   21.86</time>
   <energy>
    <i name="e_fr_energy">   -879.51699140 </i>
    <i name="e_wo_entrp">   -879.44545921 </i>
    <i name="e_0_energy">   -879.49314734 </i>
   </energy>
  </scstep>
  <scstep>
   <time name="diag">    5.16    5.16</time>
   <time name="diis">   12.83   12.83</time>
   <time name="orth">    1.03    1.03</time>
   <time name="total">   21.64   21.65</time>
   <energy>
    <i name="e_fr_energy">   -879.51698715 </i>
    <i name="e_wo_entrp">   -879.44551604 </i>
    <i name="e_0_energy">   -879.49316345 </i>
   </energy>
  </scstep>
  <scstep>
   <time name="diag">    5.16    5.16</time>
   <time name="diis">   12.51   12.51</time>
   <time name="orth">    1.02    1.02</time>
   <time name="total">   21.29   21.29</time>
   <energy>
    <i name="e_fr_energy">   -879.51698317 </i>
    <i name="e_wo_entrp">   -879.44556917 </i>
    <i name="e_0_energy">   -879.49317850 </i>
   </energy>
  </scstep>
  <scstep>
   <time name="diag">    5.13    5.13</time>
   <time name="diis">   12.39   12.39</time>
   <time name="orth">    1.03    1.03</time>
   <time name="total">   21.16   21.16</time>
   <energy>
    <i name="e_fr_energy">   -879.51697953 </i>
    <i name="e_wo_entrp">   -879.44561788 </i>
    <i name="e_0_energy">   -879.49319231 </i>
   </energy>
  </scstep>
  <scstep>
   <time name="diag">    5.11    5.11</time>
   <time name="diis">   12.22   12.22</time>
   <time name="orth">    1.03    1.03</time>
   <time name="total">   20.96   20.96</time>
   <energy>
    <i name="e_fr_energy">   -879.51697613 </i>
    <i name="e_wo_entrp">   -879.44566326 </i>
    <i name="e_0_energy">   -879.49320517 </i>
   </energy>
  </scstep>
  <scstep>
   <time name="diag">    5.12    5.12</time>
   <time name="diis">   12.14   12.14</time>
   <time name="orth">    1.03    1.03</time>
   <time name="total">   20.92   20.92</time>
   <energy>
    <i name="e_fr_energy">   -879.51697301 </i>
    <i name="e_wo_entrp">   -879.44570489 </i>
    <i name="e_0_energy">   -879.49321697 </i>
   </energy>
  </scstep>
  <scstep>
   <time name="diag">    5.14    5.14</time>
   <time name="diis">   12.00   12.00</time>
   <time name="orth">    1.02    1.02</time>
   <time name="total">   20.78   20.78</time>
   <energy>
    <i name="e_fr_energy">   -879.51697012 </i>
    <i name="e_wo_entrp">   -879.44574359 </i>
    <i name="e_0_energy">   -879.49322794 </i>
   </energy>
  </scstep>
  <scstep>
   <time name="diag">    5.15    5.15</time>
   <time name="diis">   11.98   11.99</time>
   <time name="orth">    1.02    1.02</time>
   <time name="total">   20.77   20.77</time>
   <energy>
    <i name="e_fr_energy">   -879.51696747 </i>
    <i name="e_wo_entrp">   -879.44577899 </i>
    <i name="e_0_energy">   -879.49323798 </i>
   </energy>
  </scstep>
  <scstep>
   <time name="diag">    5.12    5.12</time>
   <time name="diis">   11.86   11.86</time>
   <time name="orth">    1.02    1.02</time>
   <time name="total">   20.59   20.59</time>
   <energy>
    <i name="e_fr_energy">   -879.51696502 </i>
    <i name="e_wo_entrp">   -879.44581195 </i>
    <i name="e_0_energy">   -879.49324733 </i>
   </energy>
  </scstep>
  <scstep>
   <time name="diag">    5.11    5.11</time>
   <time name="diis">   11.64   11.64</time>
   <time name="orth">    1.03    1.03</time>
   <time name="total">   20.37   20.37</time>
   <energy>
    <i name="e_fr_energy">   -879.51696278 </i>
    <i name="e_wo_entrp">   -879.44584202 </i>
    <i name="e_0_energy">   -879.49325586 </i>
   </energy>
  </scstep>
  <scstep>
   <time name="diag">    5.08    5.08</time>
   <time name="diis">   11.80   11.81</time>
   <time name="orth">    1.03    1.03</time>
   <time name="total">   20.51   20.51</time>
   <energy>
    <i name="e_fr_energy">   -879.51696071 </i>
    <i name="e_wo_entrp">   -879.44586961 </i>
    <i name="e_0_energy">   -879.49326367 </i>
   </energy>
  </scstep>
  <scstep>
   <time name="diag">    5.04    5.04</time>
   <time name="diis">   11.94   11.94</time>
   <time name="orth">    1.03    1.03</time>
   <time name="total">   20.59   20.60</time>
   <energy>
    <i name="e_fr_energy">   -879.51695881 </i>
    <i name="e_wo_entrp">   -879.44589488 </i>
    <i name="e_0_energy">   -879.49327083 </i>
   </energy>
  </scstep>
  <scstep>
   <time name="diag">    5.01    5.01</time>
   <time name="diis">   11.66   11.66</time>
   <time name="orth">    1.03    1.03</time>
   <time name="total">   20.29   20.29</time>
   <energy>
    <i name="e_fr_energy">   -879.51695706 </i>
    <i name="e_wo_entrp">   -879.44591827 </i>
    <i name="e_0_energy">   -879.49327746 </i>
   </energy>
  </scstep>
  <scstep>
   <time name="diag">    5.03    5.03</time>
   <time name="diis">   11.53   11.53</time>
   <time name="orth">    1.03    1.03</time>
   <time name="total">   20.19   20.19</time>
   <energy>
    <i name="e_fr_energy">   -879.51695546 </i>
    <i name="e_wo_entrp">   -879.44593975 </i>
    <i name="e_0_energy">   -879.49328356 </i>
   </energy>
  </scstep>
  <scstep>
   <time name="diag">    5.02    5.02</time>
   <time name="diis">   11.39   11.39</time>
   <time name="orth">    1.03    1.03</time>
   <time name="total">   20.05   20.06</time>
   <energy>
    <i name="e_fr_energy">   -879.51695401 </i>
    <i name="e_wo_entrp">   -879.44595958 </i>
    <i name="e_0_energy">   -879.49328920 </i>
   </energy>
  </scstep>
  <scstep>
   <time name="diag">    5.02    5.02</time>
   <time name="diis">   11.68   11.68</time>
   <time name="orth">    1.04    1.04</time>
   <time name="total">   20.35   20.36</time>
   <energy>
    <i name="e_fr_energy">   -879.51695266 </i>
    <i name="e_wo_entrp">   -879.44597743 </i>
    <i name="e_0_energy">   -879.49329425 </i>
   </energy>
  </scstep>
  <scstep>
   <time name="diag">    5.04    5.04</time>
   <time name="diis">   11.42   11.42</time>
   <time name="orth">    1.04    1.04</time>
   <time name="total">   20.11   20.11</time>
   <energy>
    <i name="e_fr_energy">   -879.51695144 </i>
    <i name="e_wo_entrp">   -879.44599411 </i>
    <i name="e_0_energy">   -879.49329900 </i>
   </energy>
  </scstep>
  <scstep>
   <time name="diag">    5.10    5.10</time>
   <time name="diis">   11.30   11.30</time>
   <time name="orth">    1.02    1.02</time>
   <time name="total">   19.92   19.92</time>
   <energy>
    <i name="e_fr_energy">   -879.51695032 </i>
    <i name="e_wo_entrp">   -879.44600913 </i>
    <i name="e_0_energy">   -879.49330326 </i>
   </energy>
  </scstep>
  <scstep>
   <time name="diag">    5.08    5.08</time>
   <time name="diis">   11.13   11.13</time>
   <time name="orth">    1.00    1.00</time>
   <time name="total">   19.72   19.72</time>
   <energy>
    <i name="e_fr_energy">   -879.51694929 </i>
    <i name="e_wo_entrp">   -879.44602295 </i>
    <i name="e_0_energy">   -879.49330718 </i>
   </energy>
  </scstep>
  <scstep>
   <time name="diag">    4.95    4.95</time>
   <time name="diis">   11.15   11.15</time>
   <time name="orth">    0.98    0.98</time>
   <time name="total">   17.44   17.44</time>
   <energy>
    <i name="alphaZ">   7300.31925852 </i>
    <i name="ewald"> -66232.83996889 </i>
    <i name="hartreedc">  -9348.36735474 </i>
    <i name="XCdc">    360.52007081 </i>
    <i name="pawpsdc">  58018.32533437 </i>
    <i name="pawaedc"> -58954.84295976 </i>
    <i name="eentropy">     -0.07091285 </i>
    <i name="bandstr">   3775.76870363 </i>
    <i name="atom">  64201.67088057 </i>
    <i name="e_fr_energy">   -879.51694834 </i>
    <i name="e_wo_entrp">   -879.44603549 </i>
    <i name="e_0_energy">   -879.49331072 </i>
   </energy>
  </scstep>
  <structure>
   <crystal>
    <varray name="basis" >
     <v>      10.33484705       0.00000000       0.00000000 </v>
     <v>       0.00000000      10.33484705       0.00000000 </v>
     <v>       0.00000000       0.00000000      10.33484705 </v>
    </varray>
    <i name="volume">   1103.85533447 </i>
    <varray name="rec_basis" >
     <v>       0.09676002       0.00000000       0.00000000 </v>
     <v>       0.00000000       0.09676002       0.00000000 </v>
     <v>       0.00000000       0.00000000       0.09676002 </v>
    </varray>
   </crystal>
   <varray name="positions" >
    <v>       0.00000000       0.00000000       0.00000000 </v>
    <v>       0.00000000       0.16666893       0.16666893 </v>
    <v>       0.16666893       0.00000000       0.16666893 </v>
    <v>       0.16666893       0.16666893       0.00000000 </v>
    <v>       0.33333106       0.00000000       0.00000000 </v>
    <v>       0.33333107       0.16666893       0.16666893 </v>
    <v>       0.50000000       0.00000000       0.16666894 </v>
    <v>       0.50000000       0.16666894       0.00000000 </v>
    <v>       0.66666897       0.00000000       0.00000000 </v>
    <v>       0.66666896       0.16666893       0.16666893 </v>
    <v>       0.83333104       0.00000000       0.16666893 </v>
    <v>       0.83333104       0.16666893       0.00000000 </v>
    <v>       0.00000000       0.33333106       0.00000000 </v>
    <v>       0.00000000       0.50000000       0.16666894 </v>
    <v>       0.16666893       0.33333107       0.16666893 </v>
    <v>       0.16666894       0.50000000       0.00000000 </v>
    <v>       0.33333107       0.33333107       0.00000000 </v>
    <v>       0.33333107       0.50000000       0.16666893 </v>
    <v>       0.50000000       0.33333107       0.16666893 </v>
    <v>       0.50000000       0.50000000       0.00000000 </v>
    <v>       0.66666896       0.33333107       0.00000000 </v>
    <v>       0.66666896       0.50000000       0.16666893 </v>
    <v>       0.83333104       0.33333107       0.16666893 </v>
    <v>       0.83333103       0.50000000       0.00000000 </v>
    <v>       0.00000000       0.66666897       0.00000000 </v>
    <v>       0.00000000       0.83333104       0.16666893 </v>
    <v>       0.16666893       0.66666896       0.16666893 </v>
    <v>       0.16666893       0.83333104       0.00000000 </v>
    <v>       0.33333107       0.66666896       0.00000000 </v>
    <v>       0.33333107       0.83333104       0.16666893 </v>
    <v>       0.50000000       0.66666896       0.16666893 </v>
    <v>       0.50000000       0.83333103       0.00000000 </v>
    <v>       0.66666896       0.66666896       0.00000000 </v>
    <v>       0.66666896       0.83333104       0.16666893 </v>
    <v>       0.83333104       0.66666896       0.16666893 </v>
    <v>       0.83333104       0.83333104       0.00000000 </v>
    <v>       0.00000000       0.00000000       0.33333106 </v>
    <v>       0.00000000       0.16666894       0.50000000 </v>
    <v>       0.16666894       0.00000000       0.50000000 </v>
    <v>       0.16666893       0.16666893       0.33333107 </v>
    <v>       0.33333107       0.00000000       0.33333107 </v>
    <v>       0.33333107       0.16666893       0.50000000 </v>
    <v>       0.50000000       0.00000000       0.50000000 </v>
    <v>       0.50000000       0.16666893       0.33333107 </v>
    <v>       0.66666896       0.00000000       0.33333107 </v>
    <v>       0.66666896       0.16666893       0.50000000 </v>
    <v>       0.83333103       0.00000000       0.50000000 </v>
    <v>       0.83333104       0.16666893       0.33333107 </v>
    <v>       0.00000000       0.33333107       0.33333107 </v>
    <v>       0.00000000       0.50000000       0.50000000 </v>
    <v>       0.16666893       0.33333107       0.50000000 </v>
    <v>       0.16666893       0.50000000       0.33333107 </v>
    <v>       0.33333107       0.33333107       0.33333107 </v>
    <v>       0.33333106       0.50000000       0.50000000 </v>
    <v>       0.50000000       0.33333106       0.50000000 </v>
    <v>       0.50000000       0.50000000       0.33333106 </v>
    <v>       0.66666896       0.33333107       0.33333107 </v>
    <v>       0.66666897       0.50000000       0.50000000 </v>
    <v>       0.83333104       0.33333107       0.50000000 </v>
    <v>       0.83333104       0.50000000       0.33333107 </v>
    <v>       0.00000000       0.66666896       0.33333107 </v>
    <v>       0.00000000       0.83333103       0.50000000 </v>
    <v>       0.16666893       0.66666896       0.50000000 </v>
    <v>       0.16666893       0.83333104       0.33333107 </v>
    <v>       0.33333107       0.66666896       0.33333107 </v>
    <v>       0.33333107       0.83333104       0.50000000 </v>
    <v>       0.50000000       0.66666897       0.50000000 </v>
    <v>       0.50000000       0.83333104       0.33333107 </v>
    <v>       0.66666896       0.66666896       0.33333107 </v>
    <v>       0.66666896       0.83333104       0.50000000 </v>
    <v>       0.83333104       0.66666896       0.50000000 </v>
    <v>       0.83333104       0.83333104       0.33333107 </v>
    <v>       0.00000000       0.00000000       0.66666897 </v>
    <v>       0.00000000       0.16666893       0.83333104 </v>
    <v>       0.16666893       0.00000000       0.83333104 </v>
    <v>       0.16666893       0.16666893       0.66666896 </v>
    <v>       0.33333107       0.00000000       0.66666896 </v>
    <v>       0.33333107       0.16666893       0.83333104 </v>
    <v>       0.50000000       0.00000000       0.83333103 </v>
    <v>       0.50000000       0.16666893       0.66666896 </v>
    <v>       0.66666896       0.00000000       0.66666896 </v>
    <v>       0.66666896       0.16666893       0.83333104 </v>
    <v>       0.83333104       0.00000000       0.83333104 </v>
    <v>       0.83333104       0.16666893       0.66666896 </v>
    <v>       0.00000000       0.33333107       0.66666896 </v>
    <v>       0.00000000       0.50000000       0.83333103 </v>
    <v>       0.16666893       0.33333107       0.83333104 </v>
    <v>       0.16666893       0.50000000       0.66666896 </v>
    <v>       0.33333107       0.33333107       0.66666896 </v>
    <v>       0.33333107       0.50000000       0.83333104 </v>
    <v>       0.50000000       0.33333107       0.83333104 </v>
    <v>       0.50000000       0.50000000       0.66666897 </v>
    <v>       0.66666896       0.33333107       0.66666896 </v>
    <v>       0.66666896       0.50000000       0.83333104 </v>
    <v>       0.83333104       0.33333107       0.83333104 </v>
    <v>       0.83333104       0.50000000       0.66666896 </v>
    <v>       0.00000000       0.66666896       0.66666896 </v>
    <v>       0.00000000       0.83333104       0.83333104 </v>
    <v>       0.16666893       0.66666896       0.83333104 </v>
    <v>       0.16666893       0.83333104       0.66666896 </v>
    <v>       0.33333107       0.66666896       0.66666896 </v>
    <v>       0.33333107       0.83333104       0.83333104 </v>
    <v>       0.50000000       0.66666896       0.83333104 </v>
    <v>       0.50000000       0.83333104       0.66666896 </v>
    <v>       0.66666896       0.66666896       0.66666896 </v>
    <v>       0.66666896       0.83333104       0.83333104 </v>
    <v>       0.83333104       0.66666896       0.83333104 </v>
    <v>       0.83333104       0.83333104       0.66666896 </v>
   </varray>
  </structure>
  <varray name="forces" >
   <v>       0.00000000      -0.00000000       0.00000000 </v>
   <v>       0.00000000       0.00000000      -0.00000000 </v>
   <v>      -0.00000000      -0.00000000      -0.00000000 </v>
   <v>       0.00000000      -0.00000000      -0.00000000 </v>
   <v>       0.00000000       0.00000000      -0.00000000 </v>
   <v>      -0.00000000      -0.00000000      -0.00000000 </v>
   <v>       0.00000000      -0.00000000      -0.00000000 </v>
   <v>       0.00000000      -0.00000000      -0.00000000 </v>
   <v>       0.00000000      -0.00000000      -0.00000000 </v>
   <v>      -0.00000000       0.00000000      -0.00000000 </v>
   <v>      -0.00000000      -0.00000000      -0.00000000 </v>
   <v>      -0.00000000      -0.00000000       0.00000000 </v>
   <v>      -0.00000000       0.00000000       0.00000000 </v>
   <v>       0.00000000       0.00000000       0.00000000 </v>
   <v>      -0.00000000       0.00000000      -0.00000000 </v>
   <v>      -0.00000000       0.00000000      -0.00000000 </v>
   <v>       0.00000000       0.00000000      -0.00000000 </v>
   <v>       0.00000000      -0.00000000      -0.00000000 </v>
   <v>      -0.00000000       0.00000000       0.00000000 </v>
   <v>      -0.00000000       0.00000000       0.00000000 </v>
   <v>      -0.00000000       0.00000000       0.00000000 </v>
   <v>       0.00000000      -0.00000000      -0.00000000 </v>
   <v>      -0.00000000      -0.00000000      -0.00000000 </v>
   <v>       0.00000000       0.00000000       0.00000000 </v>
   <v>      -0.00000000      -0.00000000       0.00000000 </v>
   <v>      -0.00000000       0.00000000       0.00000000 </v>
   <v>       0.00000000      -0.00000000      -0.00000000 </v>
   <v>      -0.00000000       0.00000000       0.00000000 </v>
   <v>       0.00000000       0.00000000       0.00000000 </v>
   <v>      -0.00000000       0.00000000      -0.00000000 </v>
   <v>      -0.00000000      -0.00000000       0.00000000 </v>
   <v>      -0.00000000      -0.00000000      -0.00000000 </v>
   <v>       0.00000000      -0.00000000       0.00000000 </v>
   <v>      -0.00000000      -0.00000000       0.00000000 </v>
   <v>      -0.00000000      -0.00000000       0.00000000 </v>
   <v>      -0.00000000       0.00000000       0.00000000 </v>
   <v>       0.00000000       0.00000000      -0.00000000 </v>
   <v>      -0.00000000      -0.00000000      -0.00000000 </v>
   <v>      -0.00000000       0.00000000      -0.00000000 </v>
   <v>      -0.00000000      -0.00000000       0.00000000 </v>
   <v>      -0.00000000       0.00000000       0.00000000 </v>
   <v>       0.00000000       0.00000000       0.00000000 </v>
   <v>      -0.00000000      -0.00000000      -0.00000000 </v>
   <v>       0.00000000      -0.00000000       0.00000000 </v>
   <v>      -0.00000000       0.00000000       0.00000000 </v>
   <v>       0.00000000       0.00000000       0.00000000 </v>
   <v>       0.00000000       0.00000000      -0.00000000 </v>
   <v>      -0.00000000      -0.00000000      -0.00000000 </v>
   <v>      -0.00000000       0.00000000      -0.00000000 </v>
   <v>      -0.00000000       0.00000000      -0.00000000 </v>
   <v>      -0.00000000      -0.00000000      -0.00000000 </v>
   <v>       0.00000000       0.00000000       0.00000000 </v>
   <v>       0.00000000       0.00000000       0.00000000 </v>
   <v>       0.00000000      -0.00000000       0.00000000 </v>
   <v>      -0.00000000      -0.00000000       0.00000000 </v>
   <v>      -0.00000000       0.00000000      -0.00000000 </v>
   <v>      -0.00000000      -0.00000000      -0.00000000 </v>
   <v>       0.00000000      -0.00000000      -0.00000000 </v>
   <v>      -0.00000000      -0.00000000      -0.00000000 </v>
   <v>       0.00000000       0.00000000       0.00000000 </v>
   <v>       0.00000000       0.00000000      -0.00000000 </v>
   <v>       0.00000000      -0.00000000      -0.00000000 </v>
   <v>       0.00000000       0.00000000       0.00000000 </v>
   <v>      -0.00000000      -0.00000000      -0.00000000 </v>
   <v>       0.00000000       0.00000000       0.00000000 </v>
   <v>       0.00000000      -0.00000000      -0.00000000 </v>
   <v>       0.00000000      -0.00000000       0.00000000 </v>
   <v>       0.00000000       0.00000000       0.00000000 </v>
   <v>      -0.00000000       0.00000000      -0.00000000 </v>
   <v>       0.00000000      -0.00000000      -0.00000000 </v>
   <v>       0.00000000       0.00000000       0.00000000 </v>
   <v>       0.00000000      -0.00000000      -0.00000000 </v>
   <v>       0.00000000       0.00000000       0.00000000 </v>
   <v>      -0.00000000      -0.00000000       0.00000000 </v>
   <v>       0.00000000       0.00000000       0.00000000 </v>
   <v>       0.00000000      -0.00000000      -0.00000000 </v>
   <v>      -0.00000000       0.00000000      -0.00000000 </v>
   <v>      -0.00000000      -0.00000000       0.00000000 </v>
   <v>       0.00000000      -0.00000000       0.00000000 </v>
   <v>       0.00000000       0.00000000      -0.00000000 </v>
   <v>       0.00000000      -0.00000000      -0.00000000 </v>
   <v>       0.00000000       0.00000000      -0.00000000 </v>
   <v>      -0.00000000       0.00000000       0.00000000 </v>
   <v>      -0.00000000      -0.00000000       0.00000000 </v>
   <v>       0.00000000       0.00000000       0.00000000 </v>
   <v>       0.00000000       0.00000000       0.00000000 </v>
   <v>      -0.00000000       0.00000000       0.00000000 </v>
   <v>       0.00000000      -0.00000000      -0.00000000 </v>
   <v>       0.00000000       0.00000000      -0.00000000 </v>
   <v>       0.00000000      -0.00000000       0.00000000 </v>
   <v>       0.00000000       0.00000000       0.00000000 </v>
   <v>       0.00000000       0.00000000      -0.00000000 </v>
   <v>      -0.00000000      -0.00000000       0.00000000 </v>
   <v>       0.00000000      -0.00000000      -0.00000000 </v>
   <v>       0.00000000      -0.00000000       0.00000000 </v>
   <v>       0.00000000       0.00000000       0.00000000 </v>
   <v>       0.00000000      -0.00000000       0.00000000 </v>
   <v>      -0.00000000       0.00000000       0.00000000 </v>
   <v>       0.00000000      -0.00000000      -0.00000000 </v>
   <v>       0.00000000       0.00000000       0.00000000 </v>
   <v>       0.00000000      -0.00000000       0.00000000 </v>
   <v>       0.00000000      -0.00000000       0.00000000 </v>
   <v>       0.00000000      -0.00000000      -0.00000000 </v>
   <v>       0.00000000      -0.00000000      -0.00000000 </v>
   <v>       0.00000000       0.00000000      -0.00000000 </v>
   <v>       0.00000000      -0.00000000      -0.00000000 </v>
   <v>       0.00000000       0.00000000      -0.00000000 </v>
   <v>       0.00000000      -0.00000000      -0.00000000 </v>
  </varray>
  <varray name="stress" >
   <v>      -0.07863598      -0.00000000       0.00000000 </v>
   <v>       0.00000000      -0.07863598      -0.00000000 </v>
   <v>       0.00000000      -0.00000000      -0.07863598 </v>
  </varray>
  <energy>
   <i name="e_fr_energy">   -879.51694834 </i>
   <i name="e_wo_entrp">   -879.49331072 </i>
   <i name="e_0_energy">     -0.07091285 </i>
  </energy>
  <time name="totalsc"> 1426.69 1426.91</time>
  <eigenvalues>
   <array>
    <dimension dim="1">band</dimension>
    <dimension dim="2">kpoint</dimension>
    <dimension dim="3">spin</dimension>
    <field>eigene</field>
    <field>occ</field>
    <set>
     <set comment="spin 1">
      <set comment="kpoint 1">
       <r>   -1.9262    1.0000 </r>
       <r>   -0.7936    1.0000 </r>
       <r>   -0.7936    1.0000 </r>
       <r>   -0.7936    1.0000 </r>
       <r>   -0.1100    1.0000 </r>
       <r>   -0.1100    1.0000 </r>
       <r>   -0.1100    1.0000 </r>
       <r>    0.2227    1.0000 </r>
       <r>    0.2227    1.0000 </r>
       <r>    0.2227    1.0000 </r>
       <r>    0.8297    1.0000 </r>
       <r>    0.8297    1.0000 </r>
       <r>    0.8297    1.0000 </r>
       <r>    0.8297    1.0000 </r>
       <r>    0.8297    1.0000 </r>
       <r>    0.8297    1.0000 </r>
       <r>    0.9359    1.0000 </r>
       <r>    1.3315    1.0000 </r>
       <r>    1.3315    1.0000 </r>
       <r>    1.3315    1.0000 </r>
       <r>    1.3793    1.0000 </r>
       <r>    1.3793    1.0000 </r>
       <r>    1.3793    1.0000 </r>
       <r>    1.5995    1.0000 </r>
       <r>    1.5995    1.0000 </r>
       <r>    1.5995    1.0000 </r>
       <r>    1.7327    1.0000 </r>
       <r>    1.8047    1.0000 </r>
       <r>    1.8047    1.0000 </r>
       <r>    1.8047    1.0000 </r>
       <r>    1.9027    1.0000 </r>
       <r>    1.9027    1.0000 </r>
       <r>    1.9027    1.0000 </r>
       <r>    1.9998    1.0000 </r>
       <r>    1.9998    1.0000 </r>
       <r>    1.9998    1.0000 </r>
       <r>    2.3577    1.0000 </r>
       <r>    2.3577    1.0000 </r>
       <r>    2.3577    1.0000 </r>
       <r>    2.4803    1.0000 </r>
       <r>    2.4803    1.0000 </r>
       <r>    2.4803    1.0000 </r>
       <r>    2.4803    1.0000 </r>
       <r>    2.4803    1.0000 </r>
       <r>    2.4803    1.0000 </r>
       <r>    2.4952    1.0000 </r>
       <r>    2.4952    1.0000 </r>
       <r>    2.4952    1.0000 </r>
       <r>    2.5383    1.0000 </r>
       <r>    2.5383    1.0000 </r>
       <r>    2.5383    1.0000 </r>
       <r>    2.5383    1.0000 </r>
       <r>    2.5383    1.0000 </r>
       <r>    2.5383    1.0000 </r>
       <r>    2.5650    1.0000 </r>
       <r>    2.5650    1.0000 </r>
       <r>    2.5650    1.0000 </r>
       <r>    2.5650    1.0000 </r>
       <r>    2.5650    1.0000 </r>
       <r>    2.5650    1.0000 </r>
       <r>    2.6392    1.0000 </r>
       <r>    2.6392    1.0000 </r>
       <r>    2.6392    1.0000 </r>
       <r>    2.6432    1.0000 </r>
       <r>    2.6432    1.0000 </r>
       <r>    2.6432    1.0000 </r>
       <r>    2.7352    1.0000 </r>
       <r>    2.7352    1.0000 </r>
       <r>    2.7352    1.0000 </r>
       <r>    2.7352    1.0000 </r>
       <r>    2.7352    1.0000 </r>
       <r>    2.7352    1.0000 </r>
       <r>    2.7746    1.0000 </r>
       <r>    2.7746    1.0000 </r>
       <r>    2.7746    1.0000 </r>
       <r>    2.7746    1.0000 </r>
       <r>    2.7746    1.0000 </r>
       <r>    2.7746    1.0000 </r>
       <r>    2.7775    1.0000 </r>
       <r>    2.7775    1.0000 </r>
       <r>    2.7775    1.0000 </r>
       <r>    2.8310    1.0000 </r>
       <r>    2.8310    1.0000 </r>
       <r>    2.8310    1.0000 </r>
       <r>    2.8310    1.0000 </r>
       <r>    2.8310    1.0000 </r>
       <r>    2.8310    1.0000 </r>
       <r>    2.9446    1.0000 </r>
       <r>    2.9446    1.0000 </r>
       <r>    2.9446    1.0000 </r>
       <r>    2.9446    1.0000 </r>
       <r>    2.9446    1.0000 </r>
       <r>    2.9446    1.0000 </r>
       <r>    3.0571    1.0000 </r>
       <r>    3.0571    1.0000 </r>
       <r>    3.0571    1.0000 </r>
       <r>    3.0751    1.0000 </r>
       <r>    3.0751    1.0000 </r>
       <r>    3.0751    1.0000 </r>
       <r>    3.1081    1.0000 </r>
       <r>    3.1081    1.0000 </r>
       <r>    3.1081    1.0000 </r>
       <r>    3.1081    1.0000 </r>
       <r>    3.1081    1.0000 </r>
       <r>    3.1081    1.0000 </r>
       <r>    3.1688    1.0000 </r>
       <r>    3.1688    1.0000 </r>
       <r>    3.1688    1.0000 </r>
       <r>    3.1688    1.0000 </r>
       <r>    3.1688    1.0000 </r>
       <r>    3.1688    1.0000 </r>
       <r>    3.3334    1.0000 </r>
       <r>    3.3334    1.0000 </r>
       <r>    3.3334    1.0000 </r>
       <r>    3.3334    1.0000 </r>
       <r>    3.3334    1.0000 </r>
       <r>    3.3334    1.0000 </r>
       <r>    3.3423    1.0000 </r>
       <r>    3.3423    1.0000 </r>
       <r>    3.3423    1.0000 </r>
       <r>    3.4463    1.0000 </r>
       <r>    3.4463    1.0000 </r>
       <r>    3.4463    1.0000 </r>
       <r>    3.4498    1.0000 </r>
       <r>    3.4498    1.0000 </r>
       <r>    3.4498    1.0000 </r>
       <r>    3.4940    1.0000 </r>
       <r>    3.4940    1.0000 </r>
       <r>    3.4940    1.0000 </r>
       <r>    3.4940    1.0000 </r>
       <r>    3.4940    1.0000 </r>
       <r>    3.4940    1.0000 </r>
       <r>    3.5187    1.0000 </r>
       <r>    3.5187    1.0000 </r>
       <r>    3.5187    1.0000 </r>
       <r>    3.5187    1.0000 </r>
       <r>    3.5187    1.0000 </r>
       <r>    3.5187    1.0000 </r>
       <r>    3.5731    1.0000 </r>
       <r>    3.5731    1.0000 </r>
       <r>    3.5731    1.0000 </r>
       <r>    3.5731    1.0000 </r>
       <r>    3.5731    1.0000 </r>
       <r>    3.5731    1.0000 </r>
       <r>    3.6916    1.0000 </r>
       <r>    3.6916    1.0000 </r>
       <r>    3.6916    1.0000 </r>
       <r>    3.6916    1.0000 </r>
       <r>    3.6916    1.0000 </r>
       <r>    3.6916    1.0000 </r>
       <r>    3.7301    1.0000 </r>
       <r>    3.7301    1.0000 </r>
       <r>    3.7301    1.0000 </r>
       <r>    3.7540    1.0000 </r>
       <r>    3.7540    1.0000 </r>
       <r>    3.7540    1.0000 </r>
       <r>    3.7540    1.0000 </r>
       <r>    3.7540    1.0000 </r>
       <r>    3.7540    1.0000 </r>
       <r>    3.9074    1.0000 </r>
       <r>    3.9074    1.0000 </r>
       <r>    3.9074    1.0000 </r>
       <r>    3.9074    1.0000 </r>
       <r>    3.9074    1.0000 </r>
       <r>    3.9074    1.0000 </r>
       <r>    3.9243    1.0000 </r>
       <r>    3.9243    1.0000 </r>
       <r>    3.9243    1.0000 </r>
       <r>    4.1157    1.0000 </r>
       <r>    4.1157    1.0000 </r>
       <r>    4.1157    1.0000 </r>
       <r>    4.1157    1.0000 </r>
       <r>    4.1157    1.0000 </r>
       <r>    4.1157    1.0000 </r>
       <r>    4.2561    1.0000 </r>
       <r>    4.2561    1.0000 </r>
       <r>    4.2561    1.0000 </r>
       <r>    4.2744    1.0000 </r>
       <r>    4.2744    1.0000 </r>
       <r>    4.2744    1.0000 </r>
       <r>    4.3078    1.0000 </r>
       <r>    4.3078    1.0000 </r>
       <r>    4.3078    1.0000 </r>
       <r>    4.3224    1.0000 </r>
       <r>    4.3224    1.0000 </r>
       <r>    4.3224    1.0000 </r>
       <r>    4.3224    1.0000 </r>
       <r>    4.3224    1.0000 </r>
       <r>    4.3224    1.0000 </r>
       <r>    4.3306    1.0000 </r>
       <r>    4.3306    1.0000 </r>
       <r>    4.3306    1.0000 </r>
       <r>    4.4555    1.0000 </r>
       <r>    4.4555    1.0000 </r>
       <r>    4.4555    1.0000 </r>
       <r>    4.4555    1.0000 </r>
       <r>    4.4555    1.0000 </r>
       <r>    4.4555    1.0000 </r>
       <r>    4.4761    1.0000 </r>
       <r>    4.4761    1.0000 </r>
       <r>    4.4761    1.0000 </r>
       <r>    4.4824    1.0000 </r>
       <r>    4.4824    1.0000 </r>
       <r>    4.4824    1.0000 </r>
       <r>    4.4824    1.0000 </r>
       <r>    4.4824    1.0000 </r>
       <r>    4.4824    1.0000 </r>
       <r>    4.4950    1.0000 </r>
       <r>    4.4950    1.0000 </r>
       <r>    4.4950    1.0000 </r>
       <r>    4.4950    1.0000 </r>
       <r>    4.4950    1.0000 </r>
       <r>    4.4950    1.0000 </r>
       <r>    4.6134    1.0000 </r>
       <r>    4.6134    1.0000 </r>
       <r>    4.6134    1.0000 </r>
       <r>    4.6382    1.0000 </r>
       <r>    4.6382    1.0000 </r>
       <r>    4.6382    1.0000 </r>
       <r>    4.6524    1.0000 </r>
       <r>    4.6524    1.0000 </r>
       <r>    4.6524    1.0000 </r>
       <r>    4.7434    1.0000 </r>
       <r>    4.8249    1.0000 </r>
       <r>    4.8249    1.0000 </r>
       <r>    4.8249    1.0000 </r>
       <r>    4.8249    1.0000 </r>
       <r>    4.8249    1.0000 </r>
       <r>    4.8249    1.0000 </r>
       <r>    4.8329    1.0000 </r>
       <r>    4.8329    1.0000 </r>
       <r>    4.8329    1.0000 </r>
       <r>    4.8329    1.0000 </r>
       <r>    4.8329    1.0000 </r>
       <r>    4.8329    1.0000 </r>
       <r>    4.8391    1.0000 </r>
       <r>    4.8391    1.0000 </r>
       <r>    4.8391    1.0000 </r>
       <r>    4.9757    1.0000 </r>
       <r>    4.9757    1.0000 </r>
       <r>    4.9757    1.0000 </r>
       <r>    4.9757    1.0000 </r>
       <r>    4.9757    1.0000 </r>
       <r>    4.9757    1.0000 </r>
       <r>    5.0710    1.0000 </r>
       <r>    5.0710    1.0000 </r>
       <r>    5.0710    1.0000 </r>
       <r>    5.0760    1.0000 </r>
       <r>    5.0760    1.0000 </r>
       <r>    5.0760    1.0000 </r>
       <r>    5.0801    1.0000 </r>
       <r>    5.0801    1.0000 </r>
       <r>    5.0801    1.0000 </r>
       <r>    5.0801    1.0000 </r>
       <r>    5.0801    1.0000 </r>
       <r>    5.0801    1.0000 </r>
       <r>    5.1063    1.0000 </r>
       <r>    5.1063    1.0000 </r>
       <r>    5.1063    1.0000 </r>
       <r>    5.1337    1.0000 </r>
       <r>    5.1337    1.0000 </r>
       <r>    5.1337    1.0000 </r>
       <r>    5.1337    1.0000 </r>
       <r>    5.1337    1.0000 </r>
       <r>    5.1337    1.0000 </r>
       <r>    5.1486    1.0000 </r>
       <r>    5.1769    1.0000 </r>
       <r>    5.1769    1.0000 </r>
       <r>    5.1769    1.0000 </r>
       <r>    5.1774    1.0000 </r>
       <r>    5.1774    1.0000 </r>
       <r>    5.1774    1.0000 </r>
       <r>    5.1989    1.0000 </r>
       <r>    5.1989    1.0000 </r>
       <r>    5.2170    1.0000 </r>
       <r>    5.2170    1.0000 </r>
       <r>    5.2342    1.0000 </r>
       <r>    5.2342    1.0000 </r>
       <r>    5.2342    1.0000 </r>
       <r>    5.2342    1.0000 </r>
       <r>    5.2342    1.0000 </r>
       <r>    5.2342    1.0000 </r>
       <r>    5.2500    1.0000 </r>
       <r>    5.2500    1.0000 </r>
       <r>    5.2500    1.0000 </r>
       <r>    5.2961    1.0000 </r>
       <r>    5.2961    1.0000 </r>
       <r>    5.2961    1.0000 </r>
       <r>    5.2981    1.0000 </r>
       <r>    5.2981    1.0000 </r>
       <r>    5.2981    1.0000 </r>
       <r>    5.3155    1.0000 </r>
       <r>    5.3155    1.0000 </r>
       <r>    5.3155    1.0000 </r>
       <r>    5.3155    1.0000 </r>
       <r>    5.3155    1.0000 </r>
       <r>    5.3155    1.0000 </r>
       <r>    5.3436    1.0000 </r>
       <r>    5.3436    1.0000 </r>
       <r>    5.3436    1.0000 </r>
       <r>    5.3746    1.0000 </r>
       <r>    5.3746    1.0000 </r>
       <r>    5.3746    1.0000 </r>
       <r>    5.3873    1.0000 </r>
       <r>    5.3873    1.0000 </r>
       <r>    5.4279    1.0000 </r>
       <r>    5.4279    1.0000 </r>
       <r>    5.4279    1.0000 </r>
       <r>    5.4302    1.0000 </r>
       <r>    5.4302    1.0000 </r>
       <r>    5.4302    1.0000 </r>
       <r>    5.5663    1.0000 </r>
       <r>    5.5825    1.0000 </r>
       <r>    5.5825    1.0000 </r>
       <r>    5.5825    1.0000 </r>
       <r>    5.5988    1.0000 </r>
       <r>    5.5988    1.0000 </r>
       <r>    5.5988    1.0000 </r>
       <r>    5.6061    1.0000 </r>
       <r>    5.6061    1.0000 </r>
       <r>    5.6061    1.0000 </r>
       <r>    5.6061    1.0000 </r>
       <r>    5.6061    1.0000 </r>
       <r>    5.6061    1.0000 </r>
       <r>    5.6083    1.0000 </r>
       <r>    5.6083    1.0000 </r>
       <r>    5.6083    1.0000 </r>
       <r>    5.6327    1.0000 </r>
       <r>    5.6327    1.0000 </r>
       <r>    5.6327    1.0000 </r>
       <r>    5.7483    1.0000 </r>
       <r>    5.7483    1.0000 </r>
       <r>    5.7483    1.0000 </r>
       <r>    5.7515    1.0000 </r>
       <r>    5.7515    1.0000 </r>
       <r>    5.7515    1.0000 </r>
       <r>    5.7576    1.0000 </r>
       <r>    5.7576    1.0000 </r>
       <r>    5.7576    1.0000 </r>
       <r>    5.7576    1.0000 </r>
       <r>    5.7576    1.0000 </r>
       <r>    5.7576    1.0000 </r>
       <r>    5.7757    1.0000 </r>
       <r>    5.7757    1.0000 </r>
       <r>    5.7757    1.0000 </r>
       <r>    5.8253    1.0000 </r>
       <r>    5.8253    1.0000 </r>
       <r>    5.8253    1.0000 </r>
       <r>    5.8253    1.0000 </r>
       <r>    5.8253    1.0000 </r>
       <r>    5.8253    1.0000 </r>
       <r>    5.8700    1.0000 </r>
       <r>    5.8700    1.0000 </r>
       <r>    5.8700    1.0000 </r>
       <r>    5.9075    1.0000 </r>
       <r>    5.9075    1.0000 </r>
       <r>    5.9075    1.0000 </r>
       <r>    5.9075    1.0000 </r>
       <r>    5.9075    1.0000 </r>
       <r>    5.9075    1.0000 </r>
       <r>    5.9399    1.0000 </r>
       <r>    5.9399    1.0000 </r>
       <r>    5.9399    1.0000 </r>
       <r>    5.9860    1.0000 </r>
       <r>    5.9860    1.0000 </r>
       <r>    5.9860    1.0000 </r>
       <r>    6.0886    1.0000 </r>
       <r>    6.0886    1.0000 </r>
       <r>    6.0886    1.0000 </r>
       <r>    6.1153    1.0000 </r>
       <r>    6.1153    1.0000 </r>
       <r>    6.1153    1.0000 </r>
       <r>    6.2499    1.0003 </r>
       <r>    6.2499    1.0003 </r>
       <r>    6.2499    1.0003 </r>
       <r>    6.2501    1.0003 </r>
       <r>    6.2501    1.0003 </r>
       <r>    6.2501    1.0003 </r>
       <r>    6.2514    1.0003 </r>
       <r>    6.2514    1.0003 </r>
       <r>    6.2514    1.0003 </r>
       <r>    6.2549    1.0004 </r>
       <r>    6.2549    1.0004 </r>
       <r>    6.2549    1.0004 </r>
       <r>    6.2566    1.0004 </r>
       <r>    6.2566    1.0004 </r>
       <r>    6.2566    1.0004 </r>
       <r>    6.3340    1.0022 </r>
       <r>    6.3340    1.0022 </r>
       <r>    6.3340    1.0022 </r>
       <r>    6.4372    1.0132 </r>
       <r>    6.4372    1.0132 </r>
       <r>    6.4372    1.0132 </r>
       <r>    6.4372    1.0132 </r>
       <r>    6.4372    1.0132 </r>
       <r>    6.4372    1.0132 </r>
       <r>    6.5053    1.0280 </r>
       <r>    6.5053    1.0280 </r>
       <r>    6.5053    1.0280 </r>
       <r>    6.5053    1.0280 </r>
       <r>    6.5053    1.0280 </r>
       <r>    6.5053    1.0280 </r>
       <r>    6.6301    1.0056 </r>
       <r>    6.6301    1.0056 </r>
       <r>    6.6301    1.0056 </r>
       <r>    6.6301    1.0056 </r>
       <r>    6.6301    1.0056 </r>
       <r>    6.6301    1.0056 </r>
       <r>    6.6500    0.9817 </r>
       <r>    6.6500    0.9817 </r>
       <r>    6.6500    0.9817 </r>
       <r>    6.6500    0.9817 </r>
       <r>    6.6500    0.9817 </r>
       <r>    6.6500    0.9817 </r>
       <r>    6.6963    0.8899 </r>
       <r>    6.6963    0.8899 </r>
       <r>    6.6964    0.8899 </r>
       <r>    6.7063    0.8633 </r>
       <r>    6.7063    0.8633 </r>
       <r>    6.7063    0.8633 </r>
       <r>    6.7256    0.8047 </r>
       <r>    6.7256    0.8047 </r>
       <r>    6.8110    0.4697 </r>
       <r>    6.8110    0.4697 </r>
       <r>    6.8110    0.4697 </r>
       <r>    6.8110    0.4697 </r>
       <r>    6.8110    0.4697 </r>
       <r>    6.8110    0.4697 </r>
       <r>    6.8837    0.1902 </r>
       <r>    6.8837    0.1902 </r>
       <r>    6.8837    0.1902 </r>
       <r>    6.8837    0.1902 </r>
       <r>    6.8837    0.1902 </r>
       <r>    6.8837    0.1902 </r>
       <r>    6.8933    0.1602 </r>
       <r>    6.8933    0.1602 </r>
       <r>    6.8933    0.1602 </r>
       <r>    6.9301    0.0665 </r>
       <r>    6.9301    0.0665 </r>
       <r>    6.9301    0.0665 </r>
       <r>    7.0417   -0.0353 </r>
       <r>    7.0417   -0.0353 </r>
       <r>    7.0417   -0.0353 </r>
       <r>    7.0417   -0.0353 </r>
       <r>    7.0417   -0.0353 </r>
       <r>    7.0417   -0.0353 </r>
       <r>    7.0526   -0.0354 </r>
       <r>    7.0526   -0.0354 </r>
       <r>    7.0526   -0.0354 </r>
       <r>    7.0563   -0.0353 </r>
       <r>    7.0563   -0.0353 </r>
       <r>    7.0808   -0.0323 </r>
       <r>    7.0808   -0.0323 </r>
       <r>    7.0808   -0.0323 </r>
       <r>    7.0808   -0.0323 </r>
       <r>    7.0808   -0.0323 </r>
       <r>    7.0808   -0.0323 </r>
       <r>    7.1064   -0.0271 </r>
       <r>    7.1064   -0.0271 </r>
       <r>    7.1064   -0.0271 </r>
       <r>    7.1064   -0.0271 </r>
       <r>    7.1064   -0.0271 </r>
       <r>    7.1064   -0.0271 </r>
       <r>    7.1445   -0.0184 </r>
       <r>    7.1445   -0.0184 </r>
       <r>    7.1445   -0.0184 </r>
       <r>    7.1568   -0.0158 </r>
       <r>    7.1568   -0.0158 </r>
       <r>    7.1568   -0.0158 </r>
       <r>    7.2196   -0.0061 </r>
       <r>    7.2196   -0.0061 </r>
       <r>    7.2196   -0.0061 </r>
       <r>    7.2393   -0.0043 </r>
       <r>    7.2393   -0.0043 </r>
       <r>    7.2393   -0.0043 </r>
       <r>    7.2674   -0.0025 </r>
       <r>    7.2674   -0.0025 </r>
       <r>    7.2674   -0.0025 </r>
       <r>    7.2725   -0.0023 </r>
       <r>    7.2725   -0.0023 </r>
       <r>    7.2725   -0.0023 </r>
       <r>    7.3309   -0.0006 </r>
       <r>    7.3324   -0.0006 </r>
       <r>    7.3333   -0.0006 </r>
       <r>    7.3700   -0.0002 </r>
       <r>    7.3704   -0.0002 </r>
       <r>    7.3712   -0.0002 </r>
       <r>    7.3726   -0.0002 </r>
       <r>    7.3742   -0.0002 </r>
       <r>    7.3789   -0.0002 </r>
       <r>    7.4023   -0.0001 </r>
       <r>    7.4025   -0.0001 </r>
       <r>    7.4030   -0.0001 </r>
       <r>    7.4050   -0.0001 </r>
[...]
       <r>    -1.7765     2.9532     0.4440 </r>
       <r>    -1.7307     3.4342     0.6010 </r>
       <r>    -1.6850     3.7464     0.7724 </r>
       <r>    -1.6393     3.8915     0.9504 </r>
       <r>    -1.5935     3.9372     1.1305 </r>
       <r>    -1.5478     3.9728     1.3122 </r>
       <r>    -1.5020     4.0693     1.4983 </r>
       <r>    -1.4563     4.2698     1.6936 </r>
       <r>    -1.4106     4.5965     1.9038 </r>
       <r>    -1.3648     5.0559     2.1351 </r>
       <r>    -1.3191     5.6352     2.3928 </r>
       <r>    -1.2733     6.2847     2.6803 </r>
       <r>    -1.2276     6.8900     2.9954 </r>
       <r>    -1.1819     7.2726     3.3281 </r>
       <r>    -1.1361     7.2607     3.6602 </r>
       <r>    -1.0904     6.8079     3.9715 </r>
       <r>    -1.0447     6.0704     4.2492 </r>
       <r>    -0.9989     5.3633     4.4945 </r>
       <r>    -0.9532     5.0166     4.7240 </r>
       <r>    -0.9074     5.2315     4.9632 </r>
       <r>    -0.8617     6.0189     5.2385 </r>
       <r>    -0.8160     7.2354     5.5695 </r>
       <r>    -0.7702     8.6571     5.9654 </r>
       <r>    -0.7245    10.0233     6.4239 </r>
       <r>    -0.6787    11.0408     6.9289 </r>
       <r>    -0.6330    11.4113     7.4508 </r>
       <r>    -0.5873    10.9465     7.9515 </r>
       <r>    -0.5415     9.7274     8.3964 </r>
       <r>    -0.4958     8.1623     8.7698 </r>
       <r>    -0.4501     6.8482     9.0830 </r>
       <r>    -0.4043     6.2982     9.3711 </r>
       <r>    -0.3586     6.7125     9.6781 </r>
       <r>    -0.3128     7.9277    10.0407 </r>
       <r>    -0.2671     9.5385    10.4770 </r>
       <r>    -0.2214    11.0823    10.9839 </r>
       <r>    -0.1756    12.1864    11.5412 </r>
       <r>    -0.1299    12.6517    12.1199 </r>
       <r>    -0.0841    12.4962    12.6915 </r>
       <r>    -0.0384    11.9535    13.2382 </r>
       <r>     0.0073    11.3917    13.7593 </r>
       <r>     0.0531    11.1500    14.2693 </r>
       <r>     0.0988    11.3777    14.7897 </r>
       <r>     0.1446    11.9857    15.3379 </r>
       <r>     0.1903    12.7397    15.9206 </r>
       <r>     0.2360    13.4124    16.5340 </r>
       <r>     0.2818    13.8802    17.1689 </r>
       <r>     0.3275    14.1148    17.8145 </r>
       <r>     0.3732    14.1205    18.4603 </r>
       <r>     0.4190    13.8937    19.0958 </r>
       <r>     0.4647    13.4399    19.7105 </r>
       <r>     0.5105    12.8271    20.2972 </r>
       <r>     0.5562    12.2409    20.8571 </r>
       <r>     0.6019    12.0000    21.4060 </r>
       <r>     0.6477    12.4801    21.9768 </r>
       <r>     0.6934    13.9177    22.6134 </r>
       <r>     0.7392    16.1828    23.3536 </r>
       <r>     0.7849    18.7071    24.2092 </r>
       <r>     0.8306    20.7074    25.1564 </r>
       <r>     0.8764    21.6118    26.1449 </r>
       <r>     0.9221    21.3888    27.1232 </r>
       <r>     0.9679    20.5106    28.0613 </r>
       <r>     1.0136    19.5641    28.9561 </r>
       <r>     1.0593    18.8239    29.8171 </r>
       <r>     1.1051    18.1543    30.6475 </r>
       <r>     1.1508    17.3248    31.4399 </r>
       <r>     1.1965    16.4495    32.1923 </r>
       <r>     1.2423    16.1329    32.9302 </r>
       <r>     1.2880    17.1581    33.7149 </r>
       <r>     1.3338    19.9377    34.6269 </r>
       <r>     1.3795    24.1294    35.7305 </r>
       <r>     1.4252    28.6715    37.0419 </r>
       <r>     1.4710    32.2026    38.5148 </r>
       <r>     1.5167    33.6426    40.0536 </r>
       <r>     1.5625    32.6772    41.5482 </r>
       <r>     1.6082    29.9615    42.9186 </r>
       <r>     1.6539    26.9666    44.1521 </r>
       <r>     1.6997    25.5271    45.3196 </r>
       <r>     1.7454    27.2470    46.5659 </r>
       <r>     1.7912    32.9658    48.0737 </r>
       <r>     1.8369    42.4692    50.0162 </r>
       <r>     1.8826    54.5760    52.5124 </r>
       <r>     1.9284    67.5939    55.6041 </r>
       <r>     1.9741    79.9169    59.2594 </r>
       <r>     2.0198    90.4113    63.3947 </r>
       <r>     2.0656    98.4106    67.8959 </r>
       <r>     2.1113   103.5241    72.6310 </r>
       <r>     2.1571   105.6245    77.4621 </r>
       <r>     2.2028   105.1055    82.2695 </r>
       <r>     2.2485   103.0892    86.9847 </r>
       <r>     2.2943   101.2108    91.6139 </r>
       <r>     2.3400   100.9635    96.2319 </r>
       <r>     2.3858   102.9779   100.9420 </r>
       <r>     2.4315   106.7221   105.8233 </r>
       <r>     2.4772   110.8854   110.8951 </r>
       <r>     2.5230   114.2903   116.1226 </r>
       <r>     2.5687   116.7481   121.4625 </r>
       <r>     2.6145   119.1876   126.9140 </r>
       <r>     2.6602   122.8747   132.5342 </r>
       <r>     2.7059   128.3225   138.4035 </r>
       <r>     2.7517   134.8407   144.5709 </r>
       <r>     2.7974   141.1423   151.0266 </r>
       <r>     2.8431   146.4497   157.7251 </r>
       <r>     2.8889   151.0677   164.6347 </r>
       <r>     2.9346   155.8959   171.7652 </r>
       <r>     2.9804   161.3436   179.1449 </r>
       <r>     3.0261   166.6571   186.7676 </r>
       <r>     3.0718   170.2907   194.5565 </r>
       <r>     3.1176   171.0186   202.3787 </r>
       <r>     3.1633   168.8280   210.1007 </r>
       <r>     3.2091   164.8490   217.6407 </r>
       <r>     3.2548   160.4684   224.9803 </r>
       <r>     3.3005   156.5044   232.1386 </r>
       <r>     3.3463   153.1494   239.1435 </r>
       <r>     3.3920   150.5167   246.0279 </r>
       <r>     3.4377   148.9986   252.8430 </r>
       <r>     3.4835   148.9498   259.6558 </r>
       <r>     3.5292   150.0514   266.5189 </r>
       <r>     3.5750   151.1199   273.4310 </r>
       <r>     3.6207   150.6832   280.3231 </r>
       <r>     3.6664   147.9057   287.0881 </r>
       <r>     3.7122   143.1706   293.6365 </r>
       <r>     3.7579   137.9372   299.9456 </r>
       <r>     3.8037   133.9611   306.0728 </r>
       <r>     3.8494   132.2845   312.1234 </r>
       <r>     3.8951   132.5540   318.1862 </r>
       <r>     3.9409   133.1741   324.2775 </r>
       <r>     3.9866   132.3851   330.3326 </r>
       <r>     4.0324   129.6401   336.2622 </r>
       <r>     4.0781   126.2298   342.0358 </r>
       <r>     4.1238   124.5252   347.7314 </r>
       <r>     4.1696   126.3277   353.5095 </r>
       <r>     4.2153   131.6742   359.5321 </r>
       <r>     4.2610   139.1214   365.8954 </r>
       <r>     4.3068   147.1809   372.6273 </r>
       <r>     4.3525   155.4639   379.7380 </r>
       <r>     4.3983   164.4096   387.2579 </r>
       <r>     4.4440   173.9509   395.2142 </r>
       <r>     4.4897   182.5789   403.5652 </r>
       <r>     4.5355   187.8492   412.1572 </r>
       <r>     4.5812   187.9656   420.7545 </r>
       <r>     4.6270   183.1668   429.1323 </r>
       <r>     4.6727   175.9651   437.1808 </r>
       <r>     4.7184   170.2150   444.9662 </r>
       <r>     4.7642   169.5750   452.7224 </r>
       <r>     4.8099   175.9943   460.7721 </r>
       <r>     4.8557   188.7885   469.4071 </r>
       <r>     4.9014   204.7788   478.7734 </r>
       <r>     4.9471   219.6043   488.8179 </r>
       <r>     4.9929   229.6343   499.3211 </r>
       <r>     5.0386   233.4365   509.9982 </r>
       <r>     5.0843   232.0130   520.6102 </r>
       <r>     5.1301   227.8858   531.0334 </r>
       <r>     5.1758   223.8431   541.2717 </r>
       <r>     5.2216   222.1453   551.4324 </r>
       <r>     5.2673   224.3422   561.6936 </r>
       <r>     5.3130   231.2017   572.2684 </r>
       <r>     5.3588   242.2528   583.3488 </r>
       <r>     5.4045   255.1166   595.0175 </r>
       <r>     5.4503   265.4991   607.1612 </r>
       <r>     5.4960   268.5674   619.4451 </r>
       <r>     5.5417   261.3276   631.3979 </r>
       <r>     5.5875   244.4927   642.5807 </r>
       <r>     5.6332   222.3640   652.7514 </r>
       <r>     5.6790   200.5929   661.9263 </r>
       <r>     5.7247   183.2713   670.3089 </r>
       <r>     5.7704   171.2784   678.1430 </r>
       <r>     5.8162   162.8227   685.5903 </r>
       <r>     5.8619   155.5113   692.7032 </r>
       <r>     5.9076   148.3315   699.4877 </r>
       <r>     5.9534   142.2470   705.9939 </r>
       <r>     5.9991   139.2739   712.3641 </r>
       <r>     6.0449   140.9304   718.8101 </r>
       <r>     6.0906   147.1674   725.5414 </r>
       <r>     6.1363   156.3543   732.6929 </r>
       <r>     6.1821   166.1522   740.2925 </r>
       <r>     6.2278   174.6875   748.2825 </r>
       <r>     6.2736   181.3995   756.5795 </r>
       <r>     6.3193   187.1085   765.1376 </r>
       <r>     6.3650   193.1705   773.9730 </r>
       <r>     6.4108   200.1542   783.1278 </r>
       <r>     6.4565   207.0172   792.5965 </r>
       <r>     6.5023   211.6298   802.2762 </r>
       <r>     6.5480   212.4340   811.9927 </r>
       <r>     6.5937   209.8659   821.5917 </r>
       <r>     6.6395   206.1476   831.0207 </r>
       <r>     6.6852   203.4432   840.3259 </r>
       <r>     6.7309   201.9344   849.5622 </r>
       <r>     6.7767   199.5929   858.6913 </r>
       <r>     6.8224   193.9982   867.5646 </r>
       <r>     6.8682   184.7245   876.0136 </r>
       <r>     6.9139   174.2460   883.9835 </r>
       <r>     6.9596   166.5235   891.6000 </r>
       <r>     7.0054   164.3733   899.1183 </r>
       <r>     7.0511   167.6966   906.7885 </r>
       <r>     7.0969   173.8427   914.7399 </r>
       <r>     7.1426   179.5863   922.9540 </r>
       <r>     7.1883   183.0382   931.3259 </r>
       <r>     7.2341   184.2064   939.7513 </r>
       <r>     7.2798   184.2611   948.1792 </r>
       <r>     7.3255   184.4795   956.6171 </r>
       <r>     7.3713   185.6491   965.1084 </r>
       <r>     7.4170   187.9494   973.7050 </r>
       <r>     7.4628   190.9085   982.4369 </r>
       <r>     7.5085   193.2460   991.2758 </r>
       <r>     7.5542   192.8071  1000.0946 </r>
       <r>     7.6000   186.9017  1008.6432 </r>
       <r>     7.6457   173.1416  1016.5625 </r>
       <r>     7.6915   150.5469  1023.4483 </r>
       <r>     7.7372   120.4285  1028.9566 </r>
       <r>     7.7829    86.4694  1032.9116 </r>
       <r>     7.8287    53.7094  1035.3682 </r>
       <r>     7.8744    26.7744  1036.5928 </r>
       <r>     7.9202     8.2627  1036.9708 </r>
       <r>     7.9659    -1.8386  1036.8867 </r>
       <r>     8.0116    -5.5188  1036.6343 </r>
       <r>     8.0574    -5.4675  1036.3842 </r>
       <r>     8.1031    -3.9597  1036.2031 </r>
       <r>     8.1488    -2.3621  1036.0950 </r>
       <r>     8.1946    -1.2100  1036.0397 </r>
       <r>     8.2403    -0.5428  1036.0149 </r>
       <r>     8.2861    -0.2155  1036.0050 </r>
       <r>     8.3318    -0.0762  1036.0015 </r>
       <r>     8.3775    -0.0241  1036.0004 </r>
       <r>     8.4233    -0.0068  1036.0001 </r>
       <r>     8.4690    -0.0017  1036.0000 </r>
       <r>     8.5148    -0.0004  1036.0000 </r>
       <r>     8.5605    -0.0001  1036.0000 </r>
       <r>     8.6062    -0.0000  1036.0000 </r>
       <r>     8.6520    -0.0000  1036.0000 </r>
       <r>     8.6977    -0.0000  1036.0000 </r>
       <r>     8.7435    -0.0000  1036.0000 </r>
       <r>     8.7892    -0.0000  1036.0000 </r>
       <r>     8.8349    -0.0000  1036.0000 </r>
       <r>     8.8807    -0.0000  1036.0000 </r>
       <r>     8.9264    -0.0000  1036.0000 </r>
       <r>     8.9721    -0.0000  1036.0000 </r>
       <r>     9.0179    -0.0000  1036.0000 </r>
       <r>     9.0636     0.0000  1036.0000 </r>
       <r>     9.1094     0.0000  1036.0000 </r>
       <r>     9.1551     0.0000  1036.0000 </r>
       <r>     9.2008     0.0000  1036.0000 </r>
       <r>     9.2466     0.0000  1036.0000 </r>
       <r>     9.2923     0.0000  1036.0000 </r>
       <r>     9.3381     0.0000  1036.0000 </r>
       <r>     9.3838     0.0000  1036.0000 </r>
       <r>     9.4295     0.0000  1036.0000 </r>
       <r>     9.4753     0.0000  1036.0000 </r>
       <r>     9.5210     0.0000  1036.0000 </r>
       <r>     9.5668     0.0000  1036.0000 </r>
       <r>     9.6125     0.0000  1036.0000 </r>
       <r>     9.6582     0.0000  1036.0000 </r>
       <r>     9.7040     0.0000  1036.0000 </r>
       <r>     9.7497     0.0000  1036.0000 </r>
       <r>     9.7954     0.0000  1036.0000 </r>
      </set>
     </set>
    </array>
   </total>
  </dos>
 </calculation>
 <structure name="finalpos" >
  <crystal>
   <varray name="basis" >
    <v>      10.33484705       0.00000000       0.00000000 </v>
    <v>       0.00000000      10.33484705       0.00000000 </v>
    <v>       0.00000000       0.00000000      10.33484705 </v>
   </varray>
   <i name="volume">   1103.85533447 </i>
   <varray name="rec_basis" >
    <v>       0.09676002       0.00000000       0.00000000 </v>
    <v>       0.00000000       0.09676002       0.00000000 </v>
    <v>       0.00000000       0.00000000       0.09676002 </v>
   </varray>
  </crystal>
  <varray name="positions" >
   <v>       0.00000000       0.00000000       0.00000000 </v>
   <v>       0.00000000       0.16666893       0.16666893 </v>
   <v>       0.16666893       0.00000000       0.16666893 </v>
   <v>       0.16666893       0.16666893       0.00000000 </v>
   <v>       0.33333106       0.00000000       0.00000000 </v>
   <v>       0.33333107       0.16666893       0.16666893 </v>
   <v>       0.50000000       0.00000000       0.16666894 </v>
   <v>       0.50000000       0.16666894       0.00000000 </v>
   <v>       0.66666897       0.00000000       0.00000000 </v>
   <v>       0.66666896       0.16666893       0.16666893 </v>
   <v>       0.83333104       0.00000000       0.16666893 </v>
   <v>       0.83333104       0.16666893       0.00000000 </v>
   <v>       0.00000000       0.33333106       0.00000000 </v>
   <v>       0.00000000       0.50000000       0.16666894 </v>
   <v>       0.16666893       0.33333107       0.16666893 </v>
   <v>       0.16666894       0.50000000       0.00000000 </v>
   <v>       0.33333107       0.33333107       0.00000000 </v>
   <v>       0.33333107       0.50000000       0.16666893 </v>
   <v>       0.50000000       0.33333107       0.16666893 </v>
   <v>       0.50000000       0.50000000       0.00000000 </v>
   <v>       0.66666896       0.33333107       0.00000000 </v>
   <v>       0.66666896       0.50000000       0.16666893 </v>
   <v>       0.83333104       0.33333107       0.16666893 </v>
   <v>       0.83333103       0.50000000       0.00000000 </v>
   <v>       0.00000000       0.66666897       0.00000000 </v>
   <v>       0.00000000       0.83333104       0.16666893 </v>
   <v>       0.16666893       0.66666896       0.16666893 </v>
   <v>       0.16666893       0.83333104       0.00000000 </v>
   <v>       0.33333107       0.66666896       0.00000000 </v>
   <v>       0.33333107       0.83333104       0.16666893 </v>
   <v>       0.50000000       0.66666896       0.16666893 </v>
   <v>       0.50000000       0.83333103       0.00000000 </v>
   <v>       0.66666896       0.66666896       0.00000000 </v>
   <v>       0.66666896       0.83333104       0.16666893 </v>
   <v>       0.83333104       0.66666896       0.16666893 </v>
   <v>       0.83333104       0.83333104       0.00000000 </v>
   <v>       0.00000000       0.00000000       0.33333106 </v>
   <v>       0.00000000       0.16666894       0.50000000 </v>
   <v>       0.16666894       0.00000000       0.50000000 </v>
   <v>       0.16666893       0.16666893       0.33333107 </v>
   <v>       0.33333107       0.00000000       0.33333107 </v>
   <v>       0.33333107       0.16666893       0.50000000 </v>
   <v>       0.50000000       0.00000000       0.50000000 </v>
   <v>       0.50000000       0.16666893       0.33333107 </v>
   <v>       0.66666896       0.00000000       0.33333107 </v>
   <v>       0.66666896       0.16666893       0.50000000 </v>
   <v>       0.83333103       0.00000000       0.50000000 </v>
   <v>       0.83333104       0.16666893       0.33333107 </v>
   <v>       0.00000000       0.33333107       0.33333107 </v>
   <v>       0.00000000       0.50000000       0.50000000 </v>
   <v>       0.16666893       0.33333107       0.50000000 </v>
   <v>       0.16666893       0.50000000       0.33333107 </v>
   <v>       0.33333107       0.33333107       0.33333107 </v>
   <v>       0.33333106       0.50000000       0.50000000 </v>
   <v>       0.50000000       0.33333106       0.50000000 </v>
   <v>       0.50000000       0.50000000       0.33333106 </v>
   <v>       0.66666896       0.33333107       0.33333107 </v>
   <v>       0.66666897       0.50000000       0.50000000 </v>
   <v>       0.83333104       0.33333107       0.50000000 </v>
   <v>       0.83333104       0.50000000       0.33333107 </v>
   <v>       0.00000000       0.66666896       0.33333107 </v>
   <v>       0.00000000       0.83333103       0.50000000 </v>
   <v>       0.16666893       0.66666896       0.50000000 </v>
   <v>       0.16666893       0.83333104       0.33333107 </v>
   <v>       0.33333107       0.66666896       0.33333107 </v>
   <v>       0.33333107       0.83333104       0.50000000 </v>
   <v>       0.50000000       0.66666897       0.50000000 </v>
   <v>       0.50000000       0.83333104       0.33333107 </v>
   <v>       0.66666896       0.66666896       0.33333107 </v>
   <v>       0.66666896       0.83333104       0.50000000 </v>
   <v>       0.83333104       0.66666896       0.50000000 </v>
   <v>       0.83333104       0.83333104       0.33333107 </v>
   <v>       0.00000000       0.00000000       0.66666897 </v>
   <v>       0.00000000       0.16666893       0.83333104 </v>
   <v>       0.16666893       0.00000000       0.83333104 </v>
   <v>       0.16666893       0.16666893       0.66666896 </v>
   <v>       0.33333107       0.00000000       0.66666896 </v>
   <v>       0.33333107       0.16666893       0.83333104 </v>
   <v>       0.50000000       0.00000000       0.83333103 </v>
   <v>       0.50000000       0.16666893       0.66666896 </v>
   <v>       0.66666896       0.00000000       0.66666896 </v>
   <v>       0.66666896       0.16666893       0.83333104 </v>
   <v>       0.83333104       0.00000000       0.83333104 </v>
   <v>       0.83333104       0.16666893       0.66666896 </v>
   <v>       0.00000000       0.33333107       0.66666896 </v>
   <v>       0.00000000       0.50000000       0.83333103 </v>
   <v>       0.16666893       0.33333107       0.83333104 </v>
   <v>       0.16666893       0.50000000       0.66666896 </v>
   <v>       0.33333107       0.33333107       0.66666896 </v>
   <v>       0.33333107       0.50000000       0.83333104 </v>
   <v>       0.50000000       0.33333107       0.83333104 </v>
   <v>       0.50000000       0.50000000       0.66666897 </v>
   <v>       0.66666896       0.33333107       0.66666896 </v>
   <v>       0.66666896       0.50000000       0.83333104 </v>
   <v>       0.83333104       0.33333107       0.83333104 </v>
   <v>       0.83333104       0.50000000       0.66666896 </v>
   <v>       0.00000000       0.66666896       0.66666896 </v>
   <v>       0.00000000       0.83333104       0.83333104 </v>
   <v>       0.16666893       0.66666896       0.83333104 </v>
   <v>       0.16666893       0.83333104       0.66666896 </v>
   <v>       0.33333107       0.66666896       0.66666896 </v>
   <v>       0.33333107       0.83333104       0.83333104 </v>
   <v>       0.50000000       0.66666896       0.83333104 </v>
   <v>       0.50000000       0.83333104       0.66666896 </v>
   <v>       0.66666896       0.66666896       0.66666896 </v>
   <v>       0.66666896       0.83333104       0.83333104 </v>
   <v>       0.83333104       0.66666896       0.83333104 </v>
   <v>       0.83333104       0.83333104       0.66666896 </v>
  </varray>
 </structure>
</modeling>
