 108 108   0   0
  0.1022088E+02  0.1033485E-08  0.1033485E-08  0.1033485E-08  0.5000000E-15
  1.000000000000000E-004
  CAR 
 Opt                                     
      9.66977450     -3.93668877  301      6.77846453      1.00000000
     -3.937  0.0000E+00  0.0000E+00
     -3.891  0.0000E+00  0.0000E+00
     -3.846  0.0000E+00  0.0000E+00
     -3.801  0.0000E+00  0.0000E+00
     -3.755  0.0000E+00  0.0000E+00
     -3.710  0.0000E+00  0.0000E+00
     -3.665  0.0000E+00  0.0000E+00
     -3.619  0.0000E+00  0.0000E+00
     -3.574 -0.1009E-29 -0.4576E-31
     -3.528 -0.3716E-28 -0.1731E-29
     -3.483 -0.1264E-26 -0.5904E-28
     -3.438 -0.3872E-25 -0.1815E-26
     -3.392 -0.1069E-23 -0.5031E-25
     -3.347 -0.2660E-22 -0.1257E-23
     -3.302 -0.5963E-21 -0.2830E-22
     -3.256 -0.1204E-19 -0.5743E-21
     -3.211 -0.2189E-18 -0.1050E-19
     -3.166 -0.3585E-17 -0.1731E-18
     -3.120 -0.4980E-16 -0.2432E-17
     -3.075 -0.6801E-15 -0.3328E-16
     -3.030 -0.8104E-14 -0.4009E-15
     -2.984 -0.8680E-13 -0.4338E-14
     -2.939 -0.8362E-12 -0.4226E-13
     -2.894 -0.7239E-11 -0.3706E-12
     -2.848 -0.5629E-10 -0.2923E-11
     -2.803 -0.3929E-09 -0.2074E-10
     -2.757 -0.2460E-08 -0.1323E-09
     -2.712 -0.1381E-07 -0.7585E-09
     -2.667 -0.6937E-07 -0.3905E-08
     -2.621 -0.3116E-06 -0.1804E-07
     -2.576 -0.1250E-05 -0.7472E-07
     -2.531 -0.4464E-05 -0.2772E-06
     -2.485 -0.1416E-04 -0.9195E-06
     -2.440 -0.3975E-04 -0.2722E-05
     -2.395 -0.9819E-04 -0.7176E-05
     -2.349 -0.2117E-03 -0.1678E-04
     -2.304 -0.3929E-03 -0.3460E-04
     -2.259 -0.6126E-03 -0.6238E-04
     -2.213 -0.7582E-03 -0.9677E-04
     -2.168 -0.6171E-03 -0.1248E-03
     -2.122  0.7841E-04 -0.1212E-03
     -2.077  0.1548E-02 -0.5100E-04
     -2.032  0.3878E-02  0.1249E-03
     -1.986  0.7047E-02  0.4445E-03
     -1.941  0.1104E-01  0.9453E-03
     -1.896  0.1590E-01  0.1666E-02
     -1.850  0.2151E-01  0.2642E-02
     -1.805  0.2740E-01  0.3885E-02
     -1.760  0.3267E-01  0.5367E-02
     -1.714  0.3648E-01  0.7021E-02
     -1.669  0.3855E-01  0.8769E-02
     -1.624  0.3931E-01  0.1055E-01
     -1.578  0.3961E-01  0.1235E-01
     -1.533  0.4025E-01  0.1417E-01
     -1.488  0.4176E-01  0.1607E-01
     -1.442  0.4445E-01  0.1808E-01
     -1.397  0.4844E-01  0.2028E-01
     -1.351  0.5370E-01  0.2272E-01
     -1.306  0.5993E-01  0.2543E-01
     -1.261  0.6633E-01  0.2844E-01
     -1.215  0.7140E-01  0.3168E-01
     -1.170  0.7330E-01  0.3501E-01
     -1.125  0.7086E-01  0.3822E-01
     -1.079  0.6461E-01  0.4115E-01
     -1.034  0.5702E-01  0.4374E-01
     -0.989  0.5143E-01  0.4607E-01
     -0.943  0.5058E-01  0.4836E-01
     -0.898  0.5555E-01  0.5088E-01
     -0.853  0.6564E-01  0.5386E-01
     -0.807  0.7898E-01  0.5744E-01
     -0.762  0.9319E-01  0.6167E-01
     -0.716  0.1056E+00  0.6646E-01
     -0.671  0.1131E+00  0.7159E-01
     -0.626  0.1132E+00  0.7672E-01
     -0.580  0.1051E+00  0.8149E-01
     -0.535  0.9087E-01  0.8561E-01
     -0.490  0.7566E-01  0.8904E-01
     -0.444  0.6528E-01  0.9200E-01
     -0.399  0.6367E-01  0.9489E-01
     -0.354  0.7130E-01  0.9812E-01
     -0.308  0.8543E-01  0.1020E+00
     -0.263  0.1017E+00  0.1066E+00
     -0.218  0.1157E+00  0.1119E+00
     -0.172  0.1244E+00  0.1175E+00
     -0.127  0.1267E+00  0.1232E+00
     -0.082  0.1235E+00  0.1288E+00
     -0.036  0.1176E+00  0.1342E+00
      0.009  0.1128E+00  0.1393E+00
      0.055  0.1119E+00  0.1444E+00
      0.100  0.1156E+00  0.1496E+00
      0.145  0.1224E+00  0.1552E+00
      0.191  0.1298E+00  0.1611E+00
      0.236  0.1360E+00  0.1672E+00
      0.281  0.1399E+00  0.1736E+00
      0.327  0.1416E+00  0.1800E+00
      0.372  0.1409E+00  0.1864E+00
      0.417  0.1380E+00  0.1926E+00
      0.463  0.1329E+00  0.1987E+00
      0.508  0.1267E+00  0.2044E+00
      0.553  0.1214E+00  0.2099E+00
      0.599  0.1205E+00  0.2154E+00
      0.644  0.1275E+00  0.2212E+00
      0.690  0.1440E+00  0.2277E+00
      0.735  0.1677E+00  0.2353E+00
      0.780  0.1923E+00  0.2440E+00
      0.826  0.2101E+00  0.2536E+00
      0.871  0.2166E+00  0.2634E+00
      0.916  0.2126E+00  0.2730E+00
      0.962  0.2034E+00  0.2822E+00
      1.007  0.1943E+00  0.2911E+00
      1.052  0.1872E+00  0.2996E+00
      1.098  0.1804E+00  0.3077E+00
      1.143  0.1719E+00  0.3155E+00
      1.188  0.1636E+00  0.3229E+00
      1.234  0.1619E+00  0.3303E+00
      1.279  0.1743E+00  0.3382E+00
      1.324  0.2041E+00  0.3475E+00
      1.370  0.2468E+00  0.3586E+00
      1.415  0.2914E+00  0.3719E+00
      1.461  0.3246E+00  0.3866E+00
      1.506  0.3365E+00  0.4018E+00
      1.551  0.3250E+00  0.4166E+00
      1.597  0.2972E+00  0.4301E+00
      1.642  0.2678E+00  0.4422E+00
      1.687  0.2546E+00  0.4538E+00
      1.733  0.2728E+00  0.4661E+00
      1.778  0.3302E+00  0.4811E+00
      1.823  0.4244E+00  0.5004E+00
      1.869  0.5439E+00  0.5250E+00
      1.914  0.6726E+00  0.5555E+00
      1.959  0.7950E+00  0.5916E+00
      2.005  0.8999E+00  0.6324E+00
      2.050  0.9807E+00  0.6769E+00
      2.096  0.1033E+01  0.7237E+00
      2.141  0.1056E+01  0.7716E+00
      2.186  0.1052E+01  0.8193E+00
      2.232  0.1033E+01  0.8662E+00
      2.277  0.1014E+01  0.9122E+00
      2.322  0.1011E+01  0.9581E+00
      2.368  0.1030E+01  0.1005E+01
      2.413  0.1066E+01  0.1053E+01
      2.458  0.1107E+01  0.1103E+01
      2.504  0.1141E+01  0.1155E+01
      2.549  0.1165E+01  0.1208E+01
      2.594  0.1188E+01  0.1262E+01
      2.640  0.1222E+01  0.1317E+01
      2.685  0.1275E+01  0.1375E+01
      2.730  0.1339E+01  0.1436E+01
      2.776  0.1404E+01  0.1499E+01
      2.821  0.1459E+01  0.1566E+01
      2.867  0.1505E+01  0.1634E+01
      2.912  0.1552E+01  0.1704E+01
      2.957  0.1605E+01  0.1777E+01
      3.003  0.1659E+01  0.1852E+01
      3.048  0.1700E+01  0.1929E+01
      3.093  0.1714E+01  0.2007E+01
      3.139  0.1699E+01  0.2084E+01
      3.184  0.1662E+01  0.2160E+01
      3.229  0.1619E+01  0.2233E+01
      3.275  0.1578E+01  0.2305E+01
      3.320  0.1543E+01  0.2375E+01
      3.365  0.1515E+01  0.2443E+01
      3.411  0.1497E+01  0.2511E+01
      3.456  0.1492E+01  0.2579E+01
      3.502  0.1501E+01  0.2647E+01
      3.547  0.1512E+01  0.2716E+01
      3.592  0.1513E+01  0.2784E+01
      3.638  0.1492E+01  0.2852E+01
      3.683  0.1449E+01  0.2918E+01
      3.728  0.1397E+01  0.2981E+01
      3.774  0.1353E+01  0.3042E+01
      3.819  0.1329E+01  0.3103E+01
      3.864  0.1327E+01  0.3163E+01
      3.910  0.1334E+01  0.3223E+01
      3.955  0.1332E+01  0.3284E+01
      4.000  0.1310E+01  0.3343E+01
      4.046  0.1277E+01  0.3401E+01
      4.091  0.1252E+01  0.3458E+01
      4.136  0.1257E+01  0.3515E+01
      4.182  0.1299E+01  0.3574E+01
      4.227  0.1368E+01  0.3636E+01
      4.273  0.1447E+01  0.3701E+01
      4.318  0.1529E+01  0.3771E+01
      4.363  0.1616E+01  0.3844E+01
      4.409  0.1710E+01  0.3922E+01
      4.454  0.1801E+01  0.4003E+01
      4.499  0.1869E+01  0.4088E+01
      4.545  0.1891E+01  0.4174E+01
      4.590  0.1861E+01  0.4258E+01
      4.635  0.1795E+01  0.4340E+01
      4.681  0.1727E+01  0.4418E+01
      4.726  0.1697E+01  0.4495E+01
      4.771  0.1731E+01  0.4573E+01
      4.817  0.1835E+01  0.4657E+01
      4.862  0.1985E+01  0.4747E+01
      4.908  0.2142E+01  0.4844E+01
      4.953  0.2266E+01  0.4947E+01
      4.998  0.2331E+01  0.5052E+01
      5.044  0.2338E+01  0.5158E+01
      5.089  0.2306E+01  0.5263E+01
      5.134  0.2262E+01  0.5366E+01
      5.180  0.2233E+01  0.5467E+01
      5.225  0.2235E+01  0.5568E+01
      5.270  0.2282E+01  0.5672E+01
      5.316  0.2373E+01  0.5779E+01
      5.361  0.2497E+01  0.5893E+01
      5.406  0.2617E+01  0.6011E+01
      5.452  0.2689E+01  0.6133E+01
      5.497  0.2669E+01  0.6254E+01
      5.542  0.2546E+01  0.6370E+01
      5.588  0.2347E+01  0.6476E+01
      5.633  0.2122E+01  0.6572E+01
      5.679  0.1923E+01  0.6660E+01
      5.724  0.1776E+01  0.6740E+01
      5.769  0.1676E+01  0.6816E+01
      5.815  0.1599E+01  0.6889E+01
      5.860  0.1526E+01  0.6958E+01
      5.905  0.1458E+01  0.7024E+01
      5.951  0.1409E+01  0.7088E+01
      5.996  0.1398E+01  0.7151E+01
      6.041  0.1436E+01  0.7217E+01
      6.087  0.1513E+01  0.7285E+01
      6.132  0.1610E+01  0.7358E+01
      6.177  0.1704E+01  0.7435E+01
      6.223  0.1782E+01  0.7516E+01
      6.268  0.1844E+01  0.7600E+01
      6.314  0.1901E+01  0.7686E+01
      6.359  0.1965E+01  0.7775E+01
      6.404  0.2036E+01  0.7868E+01
      6.450  0.2098E+01  0.7963E+01
      6.495  0.2130E+01  0.8059E+01
      6.540  0.2123E+01  0.8156E+01
      6.586  0.2091E+01  0.8250E+01
      6.631  0.2057E+01  0.8344E+01
      6.676  0.2035E+01  0.8436E+01
      6.722  0.2020E+01  0.8528E+01
      6.767  0.1987E+01  0.8618E+01
      6.812  0.1917E+01  0.8705E+01
      6.858  0.1817E+01  0.8787E+01
      6.903  0.1718E+01  0.8865E+01
      6.948  0.1657E+01  0.8940E+01
      6.994  0.1653E+01  0.9015E+01
      7.039  0.1697E+01  0.9092E+01
      7.085  0.1759E+01  0.9172E+01
      7.130  0.1809E+01  0.9254E+01
      7.175  0.1838E+01  0.9337E+01
      7.221  0.1852E+01  0.9421E+01
      7.266  0.1866E+01  0.9506E+01
      7.311  0.1895E+01  0.9592E+01
      7.357  0.1948E+01  0.9680E+01
      7.402  0.2021E+01  0.9772E+01
      7.447  0.2098E+01  0.9867E+01
      7.493  0.2146E+01  0.9964E+01
      7.538  0.2123E+01  0.1006E+02
      7.583  0.1989E+01  0.1015E+02
      7.629  0.1728E+01  0.1023E+02
      7.674  0.1362E+01  0.1029E+02
      7.720  0.9471E+00  0.1033E+02
      7.765  0.5555E+00  0.1036E+02
      7.810  0.2465E+00  0.1037E+02
      7.856  0.4723E-01  0.1037E+02
      7.901 -0.5026E-01  0.1037E+02
      7.946 -0.7624E-01  0.1037E+02
      7.992 -0.6525E-01  0.1036E+02
      8.037 -0.4330E-01  0.1036E+02
      8.082 -0.2406E-01  0.1036E+02
      8.128 -0.1153E-01  0.1036E+02
      8.173 -0.4844E-02  0.1036E+02
      8.218 -0.1797E-02  0.1036E+02
      8.264 -0.5925E-03  0.1036E+02
      8.309 -0.1741E-03  0.1036E+02
      8.354 -0.4572E-04  0.1036E+02
      8.400 -0.1075E-04  0.1036E+02
      8.445 -0.2264E-05  0.1036E+02
      8.491 -0.4281E-06  0.1036E+02
      8.536 -0.7270E-07  0.1036E+02
      8.581 -0.1109E-07  0.1036E+02
      8.627 -0.1522E-08  0.1036E+02
      8.672 -0.1879E-09  0.1036E+02
      8.717 -0.2087E-10  0.1036E+02
      8.763 -0.2087E-11  0.1036E+02
      8.808 -0.1879E-12  0.1036E+02
      8.853 -0.1524E-13  0.1036E+02
      8.899 -0.1236E-14  0.1036E+02
      8.944  0.0000E+00  0.1036E+02
      8.989  0.0000E+00  0.1036E+02
      9.035  0.0000E+00  0.1036E+02
      9.080  0.0000E+00  0.1036E+02
      9.126  0.0000E+00  0.1036E+02
      9.171  0.0000E+00  0.1036E+02
      9.216  0.0000E+00  0.1036E+02
      9.262  0.0000E+00  0.1036E+02
      9.307  0.0000E+00  0.1036E+02
      9.352  0.0000E+00  0.1036E+02
      9.398  0.0000E+00  0.1036E+02
      9.443  0.0000E+00  0.1036E+02
      9.488  0.0000E+00  0.1036E+02
      9.534  0.0000E+00  0.1036E+02
      9.579  0.0000E+00  0.1036E+02
      9.624  0.0000E+00  0.1036E+02
      9.670  0.0000E+00  0.1036E+02
