       N       E                     dE             d eps       ncg     rms          rms(c)
DAV:   1     0.103151119085E+05    0.10315E+05   -0.45527E+05  4144   0.307E+03
DAV:   2     0.484791632236E+03   -0.98303E+04   -0.96893E+04  4144   0.605E+02
DAV:   3    -0.803197794863E+03   -0.12880E+04   -0.11081E+04  4144   0.278E+02
DAV:   4    -0.102512691905E+04   -0.22193E+03   -0.20870E+03  7496   0.729E+01
DAV:   5    -0.104513828422E+04   -0.20011E+02   -0.18991E+02  6704   0.269E+01    0.935E+01
RMM:   6    -0.877123469304E+03    0.16801E+03   -0.13533E+03  4144   0.112E+02    0.883E+00
RMM:   7    -0.880251279083E+03   -0.31278E+01   -0.11202E+02  4550   0.242E+01    0.374E+00
RMM:   8    -0.880340635020E+03   -0.89356E-01   -0.14893E+01  4434   0.105E+01    0.143E+01
RMM:   9    -0.879658545951E+03    0.68209E+00   -0.47676E+00  5011   0.380E+00    0.257E+00
RMM:  10    -0.879541573979E+03    0.11697E+00   -0.20302E+00  5741   0.144E+00    0.851E-01
RMM:  11    -0.879554879886E+03   -0.13306E-01   -0.15533E-01  5741   0.412E-01    0.671E-01
RMM:  12    -0.879549150271E+03    0.57296E-02   -0.38839E-02  4563   0.529E-01    0.181E-01
RMM:  13    -0.879550193758E+03   -0.10435E-02   -0.17480E-02  5795   0.114E-01    0.705E-02
RMM:  14    -0.879550219161E+03   -0.25404E-04   -0.77984E-04  4844   0.698E-02    0.192E-02
RMM:  15    -0.879550220174E+03   -0.10130E-05   -0.15338E-04  6121   0.183E-02    0.165E-02
RMM:  16    -0.879550192917E+03    0.27257E-04    0.27843E-04  4870   0.683E-03    0.737E-03
RMM:  17    -0.879550146647E+03    0.46270E-04    0.35570E-04  3273   0.389E-03    0.278E-03
RMM:  18    -0.879550125845E+03    0.20802E-04    0.17578E-04  2809   0.279E-03    0.815E-04
RMM:  19    -0.879550111921E+03    0.13923E-04    0.13725E-04  2708   0.242E-03    0.104E-03
RMM:  20    -0.879550096496E+03    0.15425E-04    0.14540E-04  2647   0.237E-03    0.488E-04
RMM:  21    -0.879550085204E+03    0.11292E-04    0.10659E-04  2589   0.149E-03    0.536E-04
RMM:  22    -0.879550066588E+03    0.18616E-04    0.16957E-04  2455   0.124E-03    0.232E-04
RMM:  23    -0.879550056616E+03    0.99725E-05    0.90310E-05  2313   0.899E-04    0.374E-04
RMM:  24    -0.879550045989E+03    0.10627E-04    0.98952E-05  2214   0.951E-04    0.193E-04
RMM:  25    -0.879550038430E+03    0.75593E-05    0.68506E-05  1901   0.655E-04    0.201E-04
RMM:  26    -0.879550032273E+03    0.61570E-05    0.58562E-05  1982   0.623E-04    0.101E-04
RMM:  27    -0.879550026902E+03    0.53708E-05    0.51845E-05  1605   0.541E-04    0.280E-04
RMM:  28    -0.879550021924E+03    0.49777E-05    0.48354E-05  1308   0.444E-04    0.184E-04
RMM:  29    -0.879550017383E+03    0.45416E-05    0.44172E-05  1233   0.427E-04    0.306E-04
RMM:  30    -0.879550013138E+03    0.42442E-05    0.41435E-05  1118   0.398E-04    0.215E-04
RMM:  31    -0.879550009260E+03    0.38780E-05    0.37969E-05  1043   0.379E-04    0.287E-04
RMM:  32    -0.879550005633E+03    0.36276E-05    0.35483E-05   974   0.363E-04    0.235E-04
RMM:  33    -0.879550002316E+03    0.33171E-05    0.32509E-05   993   0.358E-04    0.265E-04
RMM:  34    -0.879549999241E+03    0.30751E-05    0.30241E-05   959   0.359E-04    0.218E-04
RMM:  35    -0.879549996420E+03    0.28208E-05    0.27677E-05   850   0.334E-04    0.255E-04
RMM:  36    -0.879549993810E+03    0.26095E-05    0.25638E-05   953   0.346E-04    0.205E-04
RMM:  37    -0.879549991423E+03    0.23877E-05    0.23435E-05   810   0.323E-04    0.221E-04
RMM:  38    -0.879549989229E+03    0.21937E-05    0.21634E-05   755   0.318E-04    0.212E-04
RMM:  39    -0.879549987218E+03    0.20107E-05    0.19747E-05  1240   0.331E-04    0.147E-04
RMM:  40    -0.879549985370E+03    0.18482E-05    0.18181E-05   679   0.266E-04    0.146E-04
RMM:  41    -0.879549983681E+03    0.16895E-05    0.16581E-05   800   0.250E-04    0.133E-04
RMM:  42    -0.879549982133E+03    0.15478E-05    0.15227E-05   651   0.226E-04    0.134E-04
RMM:  43    -0.879549980732E+03    0.14009E-05    0.13876E-05   620   0.230E-04    0.135E-04
RMM:  44    -0.879549979447E+03    0.12843E-05    0.12721E-05   614   0.234E-04    0.145E-04
RMM:  45    -0.879549978260E+03    0.11871E-05    0.11585E-05   633   0.210E-04    0.125E-04
RMM:  46    -0.879549977147E+03    0.11138E-05    0.10604E-05   760   0.248E-04    0.113E-04
RMM:  47    -0.879549976123E+03    0.10233E-05    0.96369E-06  1546   0.384E-04    0.309E-04
RMM:  48    -0.879549975206E+03    0.91688E-06    0.88295E-06   649   0.287E-04
   1 F= -.87954998E+03 E0= -.87952609E+03  d E =-.879550E+03
       N       E                     dE             d eps       ncg     rms          rms(c)
DAV:   1    -0.879765898491E+03   -0.21592E+00   -0.56900E+00  4760   0.757E+00    0.356E+00
RMM:   2    -0.879551125964E+03    0.21477E+00   -0.18637E+00  4153   0.377E+00    0.440E-01
RMM:   3    -0.879549974637E+03    0.11513E-02   -0.14975E-01  4608   0.708E-01    0.352E-01
RMM:   4    -0.879547161188E+03    0.28134E-02   -0.60404E-02  4144   0.812E-01    0.445E-01
RMM:   5    -0.879547910885E+03   -0.74970E-03   -0.78857E-03  4276   0.204E-01    0.590E-01
RMM:   6    -0.879545161005E+03    0.27499E-02   -0.15219E-02  4156   0.339E-01    0.537E-02
RMM:   7    -0.879545286887E+03   -0.12588E-03   -0.18818E-03  4960   0.486E-02    0.776E-02
RMM:   8    -0.879545239852E+03    0.47035E-04   -0.25377E-04  4164   0.478E-02    0.394E-02
RMM:   9    -0.879545255714E+03   -0.15861E-04   -0.17559E-04  4189   0.313E-02    0.656E-03
RMM:  10    -0.879545256479E+03   -0.76505E-06   -0.33086E-05  4477   0.537E-03    0.293E-03
RMM:  11    -0.879545256962E+03   -0.48319E-06   -0.11155E-06  2302   0.268E-03
   2 F= -.87954526E+03 E0= -.87952257E+03  d E =0.471824E-02
       N       E                     dE             d eps       ncg     rms          rms(c)
DAV:   1    -0.879631511075E+03   -0.86255E-01   -0.20235E+00  4664   0.451E+00    0.211E+00
RMM:   2    -0.879555789458E+03    0.75722E-01   -0.65266E-01  4153   0.224E+00    0.266E-01
RMM:   3    -0.879556321035E+03   -0.53158E-03   -0.55536E-02  4596   0.428E-01    0.375E-01
RMM:   4    -0.879555857727E+03    0.46331E-03   -0.49870E-03  4225   0.177E-01    0.343E-01
RMM:   5    -0.879554700021E+03    0.11577E-02   -0.17486E-02  4144   0.418E-01    0.185E-01
RMM:   6    -0.879554128515E+03    0.57151E-03   -0.35531E-03  4149   0.192E-01    0.264E-02
RMM:   7    -0.879554126750E+03    0.17655E-05   -0.21637E-04  4967   0.205E-02    0.278E-02
RMM:   8    -0.879554087394E+03    0.39356E-04   -0.87723E-05  4158   0.282E-02    0.303E-03
RMM:   9    -0.879554087140E+03    0.25417E-06   -0.76179E-06  3052   0.285E-03
   3 F= -.87955409E+03 E0= -.87953072E+03  d E =-.411193E-02
