 vasp.5.4.4.18Apr17-6-g9f103f2a35 (build Aug 17 2017 06:00:38) complex          
  
 executed on             LinuxIFC date 2019.07.12  15:11:17
 running on    8 total cores
 distrk:  each k-point on    8 cores,    1 groups
 distr:  one band on NCORES_PER_BAND=   4 cores,    2 groups


--------------------------------------------------------------------------------------------------------


 INCAR:
 POTCAR:   PAW_PBE Fe 06Sep2000                   
 POTCAR:   PAW_PBE Fe 06Sep2000                   
   VRHFIN =Fe:  d7 s1                                                           
   LEXCH  = PE                                                                  
   EATOM  =   594.4687 eV,   43.6922 Ry                                         
                                                                                
   TITEL  = PAW_PBE Fe 06Sep2000                                                
   LULTRA =        F    use ultrasoft PP ?                                      
   IUNSCR =        1    unscreen: 0-lin 1-nonlin 2-no                           
   RPACOR =    2.000    partial core radius                                     
   POMASS =   55.847; ZVAL   =    8.000    mass and valenz                      
   RCORE  =    2.300    outmost cutoff radius                                   
   RWIGS  =    2.460; RWIGS  =    1.302    wigner-seitz radius (au A)           
   ENMAX  =  267.883; ENMIN  =  200.912 eV                                      
   RCLOC  =    1.701    cutoff for local pot                                    
   LCOR   =        T    correct aug charges                                     
   LPAW   =        T    paw PP                                                  
   EAUG   =  511.368                                                            
   DEXC   =    -.022                                                            
   RMAX   =    2.817    core radius for proj-oper                               
   RAUG   =    1.300    factor for augmentation sphere                          
   RDEP   =    2.442    radius for radial grids                                 
   QCUT   =   -4.437; QGAM   =    8.874    optimization parameters              
                                                                                
   Description                                                                  
     l     E      TYP  RCUT    TYP  RCUT                                        
     2   .000     23  2.300                                                     
     2   .000     23  2.300                                                     
     0   .000     23  2.300                                                     
     0   .000     23  2.300                                                     
     1  -.200     23  2.300                                                     
     1   .000     23  2.300                                                     
     3   .000      7   .000                                                     
  local pseudopotential read in
  partial core-charges read in
  atomic valenz-charges read in
  non local Contribution for L=           2  read in
    real space projection operators read in
  non local Contribution for L=           2  read in
    real space projection operators read in
  non local Contribution for L=           0  read in
    real space projection operators read in
  non local Contribution for L=           0  read in
    real space projection operators read in
  non local Contribution for L=           1  read in
    real space projection operators read in
  non local Contribution for L=           1  read in
    real space projection operators read in
    PAW grid and wavefunctions read in
 
   number of l-projection  operators is LMAX  =           6
   number of lm-projection operators is LMMAX =          18
 
 Optimization of the real space projectors (new method)

 maximal supplied QI-value         = 16.25
 optimisation between [QCUT,QGAM] = [ 14.46, 28.93] = [ 58.58,234.33] Ry 
 Optimized for a Real-space Cutoff    1.31 Angstroem

   l    n(q)    QCUT    max X(q) W(low)/X(q) W(high)/X(q)  e(spline) 
   2     10    14.464     4.378    0.30E-04    0.23E-05    0.80E-07
   2     10    14.464    23.237    0.30E-03    0.15E-03    0.12E-05
   0     11    14.464    17.641    0.13E-04    0.43E-05    0.13E-07
   0     11    14.464    50.908    0.30E-04    0.54E-04    0.57E-06
   1     11    14.464     6.148    0.18E-04    0.17E-05    0.14E-06
   1     11    14.464     8.345    0.88E-04    0.53E-04    0.41E-06
 PAW_PBE Fe 06Sep2000                   :
 energy of atom  1       EATOM= -594.4687
 kinetic energy error for atom=    0.0005 (will be added to EATOM!!)
 
 
 POSCAR: fcc_Fe_CON_333                          
  positions in direct lattice
  velocities in cartesian coordinates
 exchange correlation table for  LEXCH =        8
   RHO(1)=    0.500       N(1)  =     2000
   RHO(2)=  100.500       N(2)  =     4000
 


--------------------------------------------------------------------------------------------------------


 ion  position               nearest neighbor table
   1  0.000  0.000  0.000-   2 2.44   3 2.44   4 2.44  11 2.44  12 2.44  26 2.44  28 2.44  74 2.44
                            75 2.44  36 2.44  83 2.44  98 2.44
   2  0.000  0.167  0.167-  49 2.44  37 2.44  13 2.44  40 2.44  15 2.44  48 2.44  23 2.44   3 2.44
                             4 2.44   1 2.44  12 2.44  11 2.44
   3  0.167  0.000  0.167-  41 2.44  37 2.44   5 2.44  40 2.44   6 2.44  30 2.44  64 2.44   2 2.44
                             4 2.44   1 2.44  28 2.44  26 2.44
   4  0.167  0.167  0.000-  17 2.44  13 2.44   5 2.44  15 2.44   6 2.44  78 2.44  87 2.44   2 2.44
                             3 2.44   1 2.44  74 2.44  75 2.44
   5  0.333  0.000  0.000-   3 2.44   4 2.44  28 2.44  75 2.44   6 2.44   7 2.44   8 2.44  30 2.44
                            78 2.44  32 2.44  79 2.44 102 2.44
   6  0.333  0.167  0.167-  15 2.44  40 2.44  53 2.44  17 2.44  19 2.44   4 2.44  41 2.44  44 2.44
                             3 2.44   7 2.44   8 2.44   5 2.44
   7  0.500  0.000  0.167-  41 2.44  44 2.44  45 2.44  68 2.44   6 2.44   5 2.44   8 2.44  10 2.44
                            30 2.44   9 2.44  32 2.44  34 2.44
   8  0.500  0.167  0.000-  17 2.44  19 2.44  21 2.44  91 2.44   6 2.44   5 2.44   7 2.44  78 2.44
                            10 2.44  79 2.44   9 2.44  82 2.44
   9  0.667  0.000  0.000-  11 2.44  12 2.44  36 2.44  83 2.44  10 2.44  82 2.44  34 2.44   8 2.44
                             7 2.44 106 2.44  79 2.44  32 2.44
  10  0.667  0.167  0.167-  23 2.44  48 2.44  57 2.44  12 2.44  11 2.44  21 2.44  45 2.44  44 2.44
                            19 2.44   9 2.44   7 2.44   8 2.44
  11  0.833  0.000  0.167-  45 2.44   9 2.44  10 2.44  34 2.44  48 2.44  37 2.44  72 2.44  12 2.44
                             2 2.44  36 2.44   1 2.44  26 2.44
  12  0.833  0.167  0.000-  21 2.44   9 2.44  10 2.44  82 2.44  23 2.44  13 2.44  95 2.44  11 2.44
                             1 2.44  83 2.44   2 2.44  74 2.44
  13  0.000  0.333  0.000-   2 2.44   4 2.44  12 2.44  74 2.44  15 2.44  16 2.44  14 2.44  23 2.44
                            87 2.44  86 2.44  24 2.44  95 2.44
  14  0.000  0.500  0.167-  49 2.44  52 2.44  60 2.44  61 2.44  15 2.44  13 2.44  16 2.44  23 2.44
                            27 2.44  25 2.44  24 2.44  35 2.44
  15  0.167  0.333  0.167-   6 2.44  40 2.44  53 2.44  17 2.44  18 2.44   4 2.44  49 2.44  52 2.44
                             2 2.44  13 2.44  14 2.44  16 2.44
  16  0.167  0.500  0.000-  17 2.44  18 2.44  29 2.44  90 2.44  15 2.44  14 2.44  13 2.44  87 2.44
                            27 2.44  25 2.44  86 2.44  99 2.44
  17  0.333  0.333  0.000-   4 2.44   8 2.44  16 2.44  15 2.44   6 2.44  78 2.44  87 2.44  20 2.44
                            18 2.44  19 2.44  90 2.44  91 2.44
  18  0.333  0.500  0.167-  52 2.44  16 2.44  56 2.44  53 2.44  15 2.44  27 2.44  65 2.44  20 2.44
                            17 2.44  19 2.44  29 2.44  31 2.44
  19  0.500  0.333  0.167-  44 2.44   8 2.44  56 2.44  53 2.44   6 2.44  10 2.44  57 2.44  18 2.44
                            20 2.44  17 2.44  21 2.44  22 2.44
  20  0.500  0.500  0.000-  17 2.44  18 2.44  19 2.44  21 2.44  22 2.44  29 2.44  31 2.44  90 2.44
                            91 2.44  33 2.44  94 2.44 103 2.44
  21  0.667  0.333  0.000-  12 2.44  24 2.44  23 2.44  95 2.44  10 2.44   8 2.44  82 2.44  22 2.44
                            20 2.44  94 2.44  19 2.44  91 2.44
  22  0.667  0.500  0.167-  60 2.44  24 2.44  23 2.44  35 2.44  57 2.44  56 2.44  69 2.44  21 2.44
                            33 2.44  20 2.44  19 2.44  31 2.44
  23  0.833  0.333  0.167-  10 2.44  57 2.44  48 2.44  21 2.44  22 2.44  12 2.44  60 2.44   2 2.44
                            49 2.44  24 2.44  14 2.44  13 2.44
  24  0.833  0.500  0.000-  21 2.44  22 2.44  33 2.44  94 2.44  23 2.44  35 2.44  95 2.44  14 2.44
                            13 2.44 107 2.44  86 2.44  25 2.44
  25  0.000  0.667  0.000-  26 2.44  28 2.44  36 2.44  98 2.44  27 2.44  35 2.44  99 2.44  16 2.44
                            14 2.44 107 2.44  86 2.44  24 2.44
  26  0.000  0.833  0.167-  61 2.44  25 2.44  27 2.44  35 2.44  64 2.44  37 2.44  72 2.44  28 2.44
                             3 2.44  36 2.44   1 2.44  11 2.44
  27  0.167  0.667  0.167-  30 2.44  64 2.44  65 2.44  28 2.44  26 2.44  29 2.44  61 2.44  52 2.44
                            18 2.44  25 2.44  14 2.44  16 2.44
  28  0.167  0.833  0.000-  29 2.44  25 2.44  27 2.44  99 2.44  30 2.44   5 2.44 102 2.44  26 2.44
                            98 2.44   1 2.44   3 2.44  75 2.44
  29  0.333  0.667  0.000-  28 2.44  32 2.44  30 2.44 102 2.44  27 2.44  16 2.44  99 2.44  31 2.44
                            20 2.44  18 2.44 103 2.44  90 2.44
  30  0.333  0.833  0.167-  27 2.44  65 2.44  64 2.44  29 2.44  31 2.44  28 2.44  68 2.44  41 2.44
                             3 2.44  32 2.44   7 2.44   5 2.44
  31  0.500  0.667  0.167-  68 2.44  32 2.44  30 2.44  34 2.44  65 2.44  56 2.44  69 2.44  29 2.44
                            33 2.44  20 2.44  18 2.44  22 2.44
  32  0.500  0.833  0.000-  29 2.44  31 2.44  33 2.44 103 2.44  30 2.44 102 2.44  34 2.44   7 2.44
                             5 2.44 106 2.44  79 2.44   9 2.44
  33  0.667  0.667  0.000-  36 2.44  35 2.44  34 2.44  32 2.44  24 2.44 106 2.44 107 2.44  22 2.44
                            31 2.44 103 2.44  20 2.44  94 2.44
  34  0.667  0.833  0.167-  35 2.44  69 2.44  72 2.44  33 2.44  36 2.44  31 2.44  11 2.44  45 2.44
                            68 2.44  32 2.44   9 2.44   7 2.44
  35  0.833  0.667  0.167-  34 2.44  69 2.44  72 2.44  33 2.44  36 2.44  26 2.44  22 2.44  60 2.44
                            61 2.44  24 2.44  25 2.44  14 2.44
  36  0.833  0.833  0.000-  33 2.44  34 2.44  35 2.44  25 2.44   9 2.44 106 2.44 107 2.44  26 2.44
                            11 2.44  98 2.44   1 2.44  83 2.44
  37  0.000  0.000  0.333-   2 2.44   3 2.44  11 2.44  26 2.44  40 2.44  39 2.44  38 2.44  48 2.44
                            64 2.44  62 2.44  47 2.44  72 2.44
  38  0.000  0.167  0.500-  49 2.44  51 2.44  59 2.44  85 2.44  40 2.44  39 2.44  37 2.44  76 2.44
                            48 2.44  47 2.44  73 2.44  84 2.44
  39  0.167  0.000  0.500-  41 2.44  42 2.44  66 2.44  77 2.44  40 2.44  38 2.44  37 2.44  76 2.44
                            64 2.44  62 2.44  73 2.44 100 2.44
  40  0.167  0.167  0.333-   6 2.44  15 2.44  53 2.44   3 2.44  41 2.44  42 2.44  49 2.44  51 2.44
                             2 2.44  39 2.44  37 2.44  38 2.44
  41  0.333  0.000  0.333-   3 2.44   7 2.44  39 2.44   6 2.44  40 2.44  30 2.44  64 2.44  43 2.44
                            44 2.44  42 2.44  66 2.44  68 2.44
  42  0.333  0.167  0.500-  51 2.44  39 2.44  55 2.44  53 2.44  40 2.44  76 2.44  89 2.44  44 2.44
                            41 2.44  43 2.44  80 2.44  77 2.44
  43  0.500  0.000  0.500-  41 2.44  42 2.44  44 2.44  45 2.44  46 2.44  66 2.44  68 2.44  77 2.44
                            80 2.44  70 2.44  81 2.44 104 2.44
  44  0.500  0.167  0.333-  19 2.44   7 2.44  55 2.44  53 2.44   6 2.44  10 2.44  57 2.44  41 2.44
                            42 2.44  43 2.44  46 2.44  45 2.44
  45  0.667  0.000  0.333-  11 2.44  47 2.44  48 2.44  72 2.44  10 2.44   7 2.44  34 2.44  46 2.44
                            43 2.44  70 2.44  44 2.44  68 2.44
  46  0.667  0.167  0.500-  59 2.44  47 2.44  48 2.44  84 2.44  57 2.44  55 2.44  93 2.44  45 2.44
                            81 2.44  43 2.44  44 2.44  80 2.44
  47  0.833  0.000  0.500-  45 2.44  46 2.44  70 2.44  81 2.44  48 2.44  72 2.44  84 2.44  38 2.44
                            37 2.44 108 2.44  73 2.44  62 2.44
  48  0.833  0.167  0.333-  10 2.44  57 2.44  23 2.44  46 2.44  45 2.44  11 2.44  59 2.44   2 2.44
                            49 2.44  47 2.44  37 2.44  38 2.44
  49  0.000  0.333  0.333-   2 2.44  14 2.44  38 2.44  15 2.44  40 2.44  23 2.44  48 2.44  50 2.44
                            51 2.44  52 2.44  59 2.44  60 2.44
  50  0.000  0.500  0.500-  49 2.44  51 2.44  52 2.44  59 2.44  60 2.44  61 2.44  63 2.44  85 2.44
                            88 2.44  71 2.44  96 2.44  97 2.44
  51  0.167  0.333  0.500-  42 2.44  38 2.44  54 2.44  53 2.44  40 2.44  76 2.44  89 2.44  50 2.44
                            52 2.44  49 2.44  88 2.44  85 2.44
  52  0.167  0.500  0.333-  18 2.44  14 2.44  54 2.44  53 2.44  15 2.44  27 2.44  65 2.44  49 2.44
                            50 2.44  51 2.44  63 2.44  61 2.44
  53  0.333  0.333  0.333-   6 2.44  15 2.44  40 2.44  19 2.44  18 2.44  42 2.44  44 2.44  51 2.44
                            52 2.44  54 2.44  55 2.44  56 2.44
  54  0.333  0.500  0.500-  51 2.44  52 2.44  63 2.44  88 2.44  53 2.44  55 2.44  56 2.44  65 2.44
                            89 2.44  67 2.44  92 2.44 101 2.44
  55  0.500  0.333  0.500-  42 2.44  44 2.44  46 2.44  80 2.44  53 2.44  56 2.44  54 2.44  57 2.44
                            89 2.44  58 2.44  92 2.44  93 2.44
  56  0.500  0.500  0.333-  18 2.44  19 2.44  22 2.44  31 2.44  53 2.44  54 2.44  55 2.44  57 2.44
                            65 2.44  58 2.44  67 2.44  69 2.44
  57  0.667  0.333  0.333-  23 2.44  48 2.44  10 2.44  59 2.44  60 2.44  46 2.44  22 2.44  19 2.44
                            44 2.44  58 2.44  56 2.44  55 2.44
  58  0.667  0.500  0.500-  59 2.44  60 2.44  71 2.44  96 2.44  57 2.44  93 2.44  69 2.44  56 2.44
                            55 2.44 105 2.44  92 2.44  67 2.44
  59  0.833  0.333  0.500-  46 2.44  58 2.44  57 2.44  93 2.44  48 2.44  38 2.44  84 2.44  60 2.44
                            50 2.44  49 2.44  96 2.44  85 2.44
  60  0.833  0.500  0.333-  22 2.44  58 2.44  57 2.44  69 2.44  23 2.44  14 2.44  35 2.44  59 2.44
                            49 2.44  50 2.44  71 2.44  61 2.44
  61  0.000  0.667  0.333-  26 2.44  62 2.44  64 2.44  72 2.44  27 2.44  14 2.44  35 2.44  63 2.44
                            50 2.44  71 2.44  52 2.44  60 2.44
  62  0.000  0.833  0.500-  61 2.44  63 2.44  71 2.44  97 2.44  64 2.44  72 2.44 100 2.44  39 2.44
                            37 2.44 108 2.44  73 2.44  47 2.44
  63  0.167  0.667  0.500-  66 2.44  62 2.44  64 2.44 100 2.44  65 2.44  54 2.44 101 2.44  61 2.44
                            97 2.44  50 2.44  52 2.44  88 2.44
  64  0.167  0.833  0.333-  27 2.44  65 2.44  30 2.44  63 2.44  61 2.44  26 2.44  66 2.44   3 2.44
                            41 2.44  62 2.44  37 2.44  39 2.44
  65  0.333  0.667  0.333-  30 2.44  64 2.44  27 2.44  66 2.44  68 2.44  63 2.44  31 2.44  18 2.44
                            52 2.44  67 2.44  56 2.44  54 2.44
  66  0.333  0.833  0.500-  63 2.44  67 2.44  65 2.44 101 2.44  64 2.44  39 2.44 100 2.44  68 2.44
                            43 2.44  41 2.44 104 2.44  77 2.44
  67  0.500  0.667  0.500-  66 2.44  68 2.44  70 2.44 104 2.44  65 2.44 101 2.44  69 2.44  56 2.44
                            54 2.44 105 2.44  92 2.44  58 2.44
  68  0.500  0.833  0.333-  31 2.44  67 2.44  65 2.44  69 2.44  30 2.44   7 2.44  34 2.44  66 2.44
                            41 2.44  43 2.44  70 2.44  45 2.44
  69  0.667  0.667  0.333-  72 2.44  35 2.44  34 2.44  71 2.44  70 2.44  68 2.44  60 2.44  31 2.44
                            22 2.44  58 2.44  67 2.44  56 2.44
  70  0.667  0.833  0.500-  71 2.44  69 2.44  72 2.44  67 2.44  47 2.44 105 2.44 108 2.44  68 2.44
                            45 2.44 104 2.44  43 2.44  81 2.44
  71  0.833  0.667  0.500-  70 2.44  69 2.44  72 2.44  62 2.44  58 2.44 105 2.44 108 2.44  60 2.44
                            61 2.44  97 2.44  50 2.44  96 2.44
  72  0.833  0.833  0.333-  69 2.44  35 2.44  34 2.44  70 2.44  71 2.44  61 2.44  45 2.44  26 2.44
                            11 2.44  62 2.44  47 2.44  37 2.44
  73  0.000  0.000  0.667-  74 2.44  75 2.44  83 2.44  98 2.44  76 2.44  84 2.44 100 2.44  39 2.44
                            38 2.44 108 2.44  47 2.44  62 2.44
  74  0.000  0.167  0.833-  85 2.44  73 2.44  76 2.44  84 2.44  87 2.44  13 2.44  95 2.44  75 2.44
                             4 2.44  83 2.44   1 2.44  12 2.44
  75  0.167  0.000  0.833-  77 2.44  73 2.44  76 2.44 100 2.44  78 2.44   5 2.44 102 2.44  74 2.44
                            98 2.44   1 2.44   4 2.44  28 2.44
  76  0.167  0.167  0.667-  78 2.44  87 2.44  89 2.44  75 2.44  74 2.44  77 2.44  85 2.44  51 2.44
                            42 2.44  73 2.44  38 2.44  39 2.44
  77  0.333  0.000  0.667-  75 2.44  79 2.44  78 2.44 102 2.44  76 2.44  39 2.44 100 2.44  80 2.44
                            43 2.44  42 2.44 104 2.44  66 2.44
  78  0.333  0.167  0.833-  76 2.44  89 2.44  87 2.44  77 2.44  80 2.44  75 2.44  91 2.44  17 2.44
                             4 2.44  79 2.44   8 2.44   5 2.44
  79  0.500  0.000  0.833-  77 2.44  80 2.44  81 2.44 104 2.44  78 2.44 102 2.44  82 2.44   8 2.44
                             5 2.44 106 2.44   9 2.44  32 2.44
  80  0.500  0.167  0.667-  91 2.44  79 2.44  78 2.44  82 2.44  89 2.44  55 2.44  93 2.44  77 2.44
                            43 2.44  81 2.44  42 2.44  46 2.44
  81  0.667  0.000  0.667-  83 2.44  82 2.44  84 2.44  79 2.44  47 2.44 106 2.44 108 2.44  80 2.44
                            46 2.44 104 2.44  70 2.44  43 2.44
  82  0.667  0.167  0.833-  84 2.44  93 2.44  95 2.44  83 2.44  81 2.44  80 2.44  12 2.44  21 2.44
                            91 2.44  79 2.44   9 2.44   8 2.44
  83  0.833  0.000  0.833-  81 2.44  82 2.44  84 2.44  73 2.44   9 2.44 106 2.44 108 2.44  74 2.44
                            12 2.44  98 2.44  36 2.44   1 2.44
  84  0.833  0.167  0.667-  82 2.44  93 2.44  95 2.44  81 2.44  83 2.44  74 2.44  46 2.44  59 2.44
                            85 2.44  73 2.44  47 2.44  38 2.44
  85  0.000  0.333  0.667-  74 2.44  86 2.44  87 2.44  95 2.44  76 2.44  38 2.44  84 2.44  88 2.44
                            51 2.44  50 2.44  96 2.44  59 2.44
  86  0.000  0.500  0.833-  85 2.44  88 2.44  96 2.44  97 2.44  87 2.44  95 2.44  99 2.44  16 2.44
                            13 2.44 107 2.44  24 2.44  25 2.44
  87  0.167  0.333  0.833-  76 2.44  89 2.44  78 2.44  88 2.44  85 2.44  74 2.44  90 2.44  17 2.44
                             4 2.44  86 2.44  16 2.44  13 2.44
  88  0.167  0.500  0.667-  90 2.44  86 2.44  87 2.44  99 2.44  89 2.44  54 2.44 101 2.44  85 2.44
                            97 2.44  50 2.44  51 2.44  63 2.44
  89  0.333  0.333  0.667-  78 2.44  87 2.44  76 2.44  90 2.44  91 2.44  80 2.44  88 2.44  51 2.44
                            42 2.44  92 2.44  54 2.44  55 2.44
  90  0.333  0.500  0.833-  88 2.44  92 2.44  89 2.44 101 2.44  87 2.44  16 2.44  99 2.44  91 2.44
                            20 2.44  17 2.44 103 2.44  29 2.44
  91  0.500  0.333  0.833-  80 2.44  92 2.44  89 2.44  93 2.44  78 2.44   8 2.44  82 2.44  90 2.44
                            20 2.44  17 2.44  94 2.44  21 2.44
  92  0.500  0.500  0.667-  90 2.44  91 2.44  94 2.44 103 2.44  89 2.44 101 2.44  93 2.44  55 2.44
                            54 2.44 105 2.44  58 2.44  67 2.44
  93  0.667  0.333  0.667-  95 2.44  84 2.44  82 2.44  94 2.44  96 2.44  91 2.44  59 2.44  46 2.44
                            80 2.44  92 2.44  58 2.44  55 2.44
  94  0.667  0.500  0.833-  96 2.44  95 2.44  93 2.44  92 2.44  24 2.44 105 2.44 107 2.44  21 2.44
                            91 2.44 103 2.44  33 2.44  20 2.44
  95  0.833  0.333  0.833-  93 2.44  84 2.44  82 2.44  94 2.44  96 2.44  85 2.44  21 2.44  12 2.44
                            74 2.44  86 2.44  24 2.44  13 2.44
  96  0.833  0.500  0.667-  94 2.44  93 2.44  95 2.44  86 2.44  58 2.44 105 2.44 107 2.44  59 2.44
                            85 2.44  97 2.44  71 2.44  50 2.44
  97  0.000  0.667  0.667-  98 2.44  99 2.44 100 2.44  86 2.44  62 2.44 107 2.44 108 2.44  88 2.44
                            63 2.44  96 2.44  50 2.44  71 2.44
  98  0.000  0.833  0.833-  97 2.44  99 2.44 100 2.44  73 2.44  25 2.44 107 2.44 108 2.44  75 2.44
                            28 2.44  83 2.44   1 2.44  36 2.44
  99  0.167  0.667  0.833- 100 2.44 101 2.44 102 2.44  98 2.44  97 2.44  88 2.44  28 2.44  90 2.44
                            29 2.44  86 2.44  25 2.44  16 2.44
 100  0.167  0.833  0.667-  99 2.44 101 2.44 102 2.44  98 2.44  97 2.44  75 2.44  63 2.44  77 2.44
                            66 2.44  73 2.44  62 2.44  39 2.44
 101  0.333  0.667  0.667- 102 2.44 100 2.44  99 2.44 103 2.44 104 2.44  90 2.44  66 2.44  63 2.44
                            88 2.44  92 2.44  67 2.44  54 2.44
 102  0.333  0.833  0.833- 101 2.44 100 2.44  99 2.44 103 2.44 104 2.44  77 2.44  29 2.44  28 2.44
                            75 2.44  79 2.44  32 2.44   5 2.44
 103  0.500  0.667  0.833- 104 2.44 102 2.44 101 2.44  92 2.44  32 2.44 105 2.44 106 2.44  29 2.44
                            90 2.44  94 2.44  20 2.44  33 2.44
 104  0.500  0.833  0.667- 103 2.44 102 2.44 101 2.44  79 2.44  67 2.44 105 2.44 106 2.44  66 2.44
                            77 2.44  81 2.44  43 2.44  70 2.44
 105  0.667  0.667  0.667- 106 2.44 107 2.44 108 2.44  96 2.44 103 2.44 104 2.44  70 2.44  71 2.44
                            94 2.44  67 2.44  92 2.44  58 2.44
 106  0.667  0.833  0.833- 105 2.44 107 2.44 108 2.44  83 2.44 103 2.44 104 2.44  33 2.44  36 2.44
                            81 2.44  32 2.44  79 2.44   9 2.44
 107  0.833  0.667  0.833- 105 2.44 106 2.44 108 2.44  96 2.44  97 2.44  98 2.44  33 2.44  36 2.44
                            94 2.44  25 2.44  86 2.44  24 2.44
 108  0.833  0.833  0.667- 105 2.44 106 2.44 107 2.44  83 2.44  97 2.44  98 2.44  70 2.44  71 2.44
                            81 2.44  62 2.44  73 2.44  47 2.44
 
  LATTYP: Found a simple cubic cell.
 ALAT       =    10.3348470474
  
  Lattice vectors:
  
 A1 = (  10.3348470474,   0.0000000000,   0.0000000000)
 A2 = (   0.0000000000,  10.3348470474,   0.0000000000)
 A3 = (   0.0000000000,   0.0000000000,  10.3348470474)


Analysis of symmetry for initial positions (statically):
=====================================================================
 Subroutine PRICEL returns following result:
 
  LATTYP: Found a simple cubic cell.
 ALAT       =     3.4449252899
  
  Lattice vectors:
  
 A1 = (   3.4449252899,   0.0000000000,   0.0000000000)
 A2 = (   0.0000000000,   3.4449252899,   0.0000000000)
 A3 = (   0.0000000000,   0.0000000000,   3.4449252443)
 
  27 primitive cells build up your supercell.
 

 Routine SETGRP: Setting up the symmetry group for a 
 simple cubic supercell.


 Subroutine GETGRP returns: Found 48 space group operations
 (whereof 48 operations were pure point group operations)
 out of a pool of 48 trial point group operations.


The static configuration has the point symmetry O_h .


Analysis of symmetry for dynamics (positions and initial velocities):
=====================================================================
 Subroutine PRICEL returns following result:
 
  LATTYP: Found a simple cubic cell.
 ALAT       =     3.4449252899
  
  Lattice vectors:
  
 A1 = (   3.4449252899,   0.0000000000,   0.0000000000)
 A2 = (   0.0000000000,   3.4449252899,   0.0000000000)
 A3 = (   0.0000000000,   0.0000000000,   3.4449252443)
 
  27 primitive cells build up your supercell.
 

 Routine SETGRP: Setting up the symmetry group for a 
 simple cubic supercell.


 Subroutine GETGRP returns: Found 48 space group operations
 (whereof 48 operations were pure point group operations)
 out of a pool of 48 trial point group operations.


The dynamic configuration has the point symmetry O_h .


 Subroutine INISYM returns: Found 48 space group operations
 (whereof 48 operations are pure point group operations),
 and found    27 'primitive' translations

 
 
 KPOINTS: pymatgen generated KPOINTS with grid den

Automatic generation of k-mesh.
Space group operators:
 irot       det(A)        alpha          n_x          n_y          n_z        tau_x        tau_y        tau_z
    1     1.000000     0.000000     1.000000     0.000000     0.000000     0.000000     0.000000     0.000000
    2    -1.000000     0.000000     1.000000     0.000000     0.000000     0.000000     0.000000     0.000000
    3     1.000000   120.000000    -0.577350    -0.577350    -0.577350     0.000000     0.000000     0.000000
    4    -1.000000   120.000000    -0.577350    -0.577350    -0.577350     0.000000     0.000000     0.000000
    5     1.000000   120.000000     0.577350     0.577350     0.577350     0.000000     0.000000     0.000000
    6    -1.000000   120.000000     0.577350     0.577350     0.577350     0.000000     0.000000     0.000000
    7     1.000000    90.000000     0.000000     0.000000    -1.000000     0.000000     0.000000     0.000000
    8    -1.000000    90.000000     0.000000     0.000000    -1.000000     0.000000     0.000000     0.000000
    9     1.000000   180.000000     0.000000     0.707107     0.707107     0.000000     0.000000     0.000000
   10    -1.000000   180.000000     0.000000     0.707107     0.707107     0.000000     0.000000     0.000000
   11     1.000000    90.000000     0.000000     1.000000     0.000000     0.000000     0.000000     0.000000
   12    -1.000000    90.000000     0.000000     1.000000     0.000000     0.000000     0.000000     0.000000
   13     1.000000   180.000000     0.000000     0.000000     1.000000     0.000000     0.000000     0.000000
   14    -1.000000   180.000000     0.000000     0.000000     1.000000     0.000000     0.000000     0.000000
   15     1.000000   120.000000    -0.577350     0.577350     0.577350     0.000000     0.000000     0.000000
   16    -1.000000   120.000000    -0.577350     0.577350     0.577350     0.000000     0.000000     0.000000
   17     1.000000   120.000000    -0.577350     0.577350    -0.577350     0.000000     0.000000     0.000000
   18    -1.000000   120.000000    -0.577350     0.577350    -0.577350     0.000000     0.000000     0.000000
   19     1.000000    90.000000     0.000000     0.000000     1.000000     0.000000     0.000000     0.000000
   20    -1.000000    90.000000     0.000000     0.000000     1.000000     0.000000     0.000000     0.000000
   21     1.000000    90.000000    -1.000000     0.000000     0.000000     0.000000     0.000000     0.000000
   22    -1.000000    90.000000    -1.000000     0.000000     0.000000     0.000000     0.000000     0.000000
   23     1.000000   180.000000     0.707107     0.000000     0.707107     0.000000     0.000000     0.000000
   24    -1.000000   180.000000     0.707107     0.000000     0.707107     0.000000     0.000000     0.000000
   25     1.000000   120.000000     0.577350    -0.577350     0.577350     0.000000     0.000000     0.000000
   26    -1.000000   120.000000     0.577350    -0.577350     0.577350     0.000000     0.000000     0.000000
   27     1.000000   120.000000    -0.577350    -0.577350     0.577350     0.000000     0.000000     0.000000
   28    -1.000000   120.000000    -0.577350    -0.577350     0.577350     0.000000     0.000000     0.000000
   29     1.000000   180.000000     1.000000     0.000000     0.000000     0.000000     0.000000     0.000000
   30    -1.000000   180.000000     1.000000     0.000000     0.000000     0.000000     0.000000     0.000000
   31     1.000000    90.000000     0.000000    -1.000000     0.000000     0.000000     0.000000     0.000000
   32    -1.000000    90.000000     0.000000    -1.000000     0.000000     0.000000     0.000000     0.000000
   33     1.000000   180.000000     0.707107     0.707107     0.000000     0.000000     0.000000     0.000000
   34    -1.000000   180.000000     0.707107     0.707107     0.000000     0.000000     0.000000     0.000000
   35     1.000000    90.000000     1.000000     0.000000     0.000000     0.000000     0.000000     0.000000
   36    -1.000000    90.000000     1.000000     0.000000     0.000000     0.000000     0.000000     0.000000
   37     1.000000   120.000000     0.577350    -0.577350    -0.577350     0.000000     0.000000     0.000000
   38    -1.000000   120.000000     0.577350    -0.577350    -0.577350     0.000000     0.000000     0.000000
   39     1.000000   180.000000     0.000000     1.000000     0.000000     0.000000     0.000000     0.000000
   40    -1.000000   180.000000     0.000000     1.000000     0.000000     0.000000     0.000000     0.000000
   41     1.000000   120.000000     0.577350     0.577350    -0.577350     0.000000     0.000000     0.000000
   42    -1.000000   120.000000     0.577350     0.577350    -0.577350     0.000000     0.000000     0.000000
   43     1.000000   180.000000     0.000000    -0.707107     0.707107     0.000000     0.000000     0.000000
   44    -1.000000   180.000000     0.000000    -0.707107     0.707107     0.000000     0.000000     0.000000
   45     1.000000   180.000000     0.707107    -0.707107     0.000000     0.000000     0.000000     0.000000
   46    -1.000000   180.000000     0.707107    -0.707107     0.000000     0.000000     0.000000     0.000000
   47     1.000000   180.000000     0.707107     0.000000    -0.707107     0.000000     0.000000     0.000000
   48    -1.000000   180.000000     0.707107     0.000000    -0.707107     0.000000     0.000000     0.000000
 
 Subroutine IBZKPT returns following result:
 ===========================================
 
 Found      4 irreducible k-points:
 
 Following reciprocal coordinates:
            Coordinates               Weight
  0.125000  0.125000  0.125000      8.000000
  0.375000  0.125000  0.125000     24.000000
  0.375000  0.375000  0.125000     24.000000
  0.375000  0.375000  0.375000      8.000000
 
 Following cartesian coordinates:
            Coordinates               Weight
  0.012095  0.012095  0.012095      8.000000
  0.036285  0.012095  0.012095     24.000000
  0.036285  0.036285  0.012095     24.000000
  0.036285  0.036285  0.036285      8.000000
 


--------------------------------------------------------------------------------------------------------




 Dimension of arrays:
   k-points           NKPTS =      4   k-points in BZ     NKDIM =      4   number of bands    NBANDS=    518
   number of dos      NEDOS =    301   number of ions     NIONS =    108
   non local maximal  LDIM  =      6   non local SUM 2l+1 LMDIM =     18
   total plane-waves  NPLWV = 373248
   max r-space proj   IRMAX =   3248   max aug-charges    IRDMAX=  12243
   dimension x,y,z NGX =    72 NGY =   72 NGZ =   72
   dimension x,y,z NGXF=   144 NGYF=  144 NGZF=  144
   support grid    NGXF=   144 NGYF=  144 NGZF=  144
   ions per type =             108
   NGX,Y,Z   is equivalent  to a cutoff of  11.58, 11.58, 11.58 a.u.
   NGXF,Y,Z  is equivalent  to a cutoff of  23.16, 23.16, 23.16 a.u.

 SYSTEM =  Opt                                     
 POSCAR =  fcc_Fe_CON_333                          

 Startparameter for this run:
   NWRITE =      2    write-flag & timer
   PREC   = normal    normal or accurate (medium, high low for compatibility)
   ISTART =      0    job   : 0-new  1-cont  2-samecut
   ICHARG =      2    charge: 1-file 2-atom 10-const
   ISPIN  =      1    spin polarized calculation?
   LNONCOLLINEAR =      F non collinear calculations
   LSORBIT =      F    spin-orbit coupling
   INIWAV =      1    electr: 0-lowe 1-rand  2-diag
   LASPH  =      F    aspherical Exc in radial PAW
   METAGGA=      F    non-selfconsistent MetaGGA calc.

 Electronic Relaxation 1
   ENCUT  =  800.0 eV  58.80 Ry    7.67 a.u.  23.83 23.83 23.83*2*pi/ulx,y,z
   ENINI  =  800.0     initial cutoff
   ENAUG  =  511.4 eV  augmentation charge cutoff
   NELM   =    400;   NELMIN=  2; NELMDL= -5     # of ELM steps 
   EDIFF  = 0.1E-05   stopping-criterion for ELM
   LREAL  =      T    real-space projection
   NLSPLINE    = F    spline interpolate recip. space projectors
   LCOMPAT=      F    compatible to vasp.4.4
   GGA_COMPAT  = T    GGA compatible to vasp.4.4-vasp.4.6
   LMAXPAW     = -100 max onsite density
   LMAXMIX     =    2 max onsite mixed and CHGCAR
   VOSKOWN=      0    Vosko Wilk Nusair interpolation
   ROPT   =   -0.00050
 Ionic relaxation
   EDIFFG = -.1E-01   stopping-criterion for IOM
   NSW    =    100    number of steps for IOM
   NBLOCK =      1;   KBLOCK =    100    inner block; outer block 
   IBRION =      2    ionic relax: 0-MD 1-quasi-New 2-CG
   NFREE  =      1    steps in history (QN), initial steepest desc. (CG)
   ISIF   =      3    stress and relaxation
   IWAVPR =     11    prediction:  0-non 1-charg 2-wave 3-comb
   ISYM   =      2    0-nonsym 1-usesym 2-fastsym
   LCORR  =      T    Harris-Foulkes like correction to forces

   POTIM  = 0.5000    time-step for ionic-motion
   TEIN   =    0.0    initial temperature
   TEBEG  =    0.0;   TEEND  =   0.0 temperature during run
   SMASS  =  -3.00    Nose mass-parameter (am)
   estimated Nose-frequenzy (Omega)   =  0.10E-29 period in steps =****** mass=  -0.244E-26a.u.
   SCALEE = 1.0000    scale energy and forces
   NPACO  =    256;   APACO  = 16.0  distance and # of slots for P.C.
   PSTRESS=    0.0 pullay stress

  Mass of Ions in am
   POMASS =  55.85
  Ionic Valenz
   ZVAL   =   8.00
  Atomic Wigner-Seitz radii
   RWIGS  =  -1.00
  virtual crystal weights 
   VCA    =   1.00
   NELECT =     864.0000    total number of electrons
   NUPDOWN=      -1.0000    fix difference up-down

 DOS related values:
   EMIN   =  10.00;   EMAX   =-10.00  energy-range for DOS
   EFERMI =   0.00
   ISMEAR =     1;   SIGMA  =   0.20  broadening in eV -4-tet -1-fermi 0-gaus

 Electronic relaxation 2 (details)
   IALGO  =     68    algorithm
   LDIAG  =      T    sub-space diagonalisation (order eigenvalues)
   LSUBROT=      F    optimize rotation matrix (better conditioning)
   TURBO    =      0    0=normal 1=particle mesh
   IRESTART =      0    0=no restart 2=restart with 2 vectors
   NREBOOT  =      0    no. of reboots
   NMIN     =      0    reboot dimension
   EREF     =   0.00    reference energy to select bands
   IMIX   =      4    mixing-type and parameters
     AMIX     =   0.40;   BMIX     =  1.00
     AMIX_MAG =   1.60;   BMIX_MAG =  1.00
     AMIN     =   0.10
     WC   =   100.;   INIMIX=   1;  MIXPRE=   1;  MAXMIX= -45

 Intra band minimization:
   WEIMIN = 0.0010     energy-eigenvalue tresh-hold
   EBREAK =  0.48E-09  absolut break condition
   DEPER  =   0.30     relativ break condition  

   TIME   =   0.40     timestep for ELM

  volume/ion in A,a.u.               =      10.22        68.97
  Fermi-wavevector in a.u.,A,eV,Ry     =   1.508720  2.851068 30.970078  2.276236
  Thomas-Fermi vector in A             =   2.619137
 
 Write flags
   LWAVE        =      F    write WAVECAR
   LDOWNSAMPLE  =      F    k-point downsampling of WAVECAR
   LCHARG       =      F    write CHGCAR
   LVTOT        =      F    write LOCPOT, total local potential
   LVHAR        =      F    write LOCPOT, Hartree potential only
   LELF         =      F    write electronic localiz. function (ELF)
   LORBIT       =      0    0 simple, 1 ext, 2 COOP (PROOUT), +10 PAW based schemes


 Dipole corrections
   LMONO  =      F    monopole corrections only (constant potential shift)
   LDIPOL =      F    correct potential (dipole corrections)
   IDIPOL =      0    1-x, 2-y, 3-z, 4-all directions 
   EPSILON=  1.0000000 bulk dielectric constant

 Exchange correlation treatment:
   GGA     =    --    GGA type
   LEXCH   =     8    internal setting for exchange type
   VOSKOWN=      0    Vosko Wilk Nusair interpolation
   LHFCALC =     F    Hartree Fock is set to
   LHFONE  =     F    Hartree Fock one center treatment
   AEXX    =    0.0000 exact exchange contribution

 Linear response parameters
   LEPSILON=     F    determine dielectric tensor
   LRPA    =     F    only Hartree local field effects (RPA)
   LNABLA  =     F    use nabla operator in PAW spheres
   LVEL    =     F    velocity operator in full k-point grid
   LINTERFAST=   F  fast interpolation
   KINTER  =     0    interpolate to denser k-point grid
   CSHIFT  =0.1000    complex shift for real part using Kramers Kronig
   OMEGAMAX=  -1.0    maximum frequency
   DEG_THRESHOLD= 0.2000000E-02 threshold for treating states as degnerate
   RTIME   =   -0.100 relaxation time in fs
  (WPLASMAI=    0.000 imaginary part of plasma frequency in eV, 0.658/RTIME)
   DFIELD  = 0.0000000 0.0000000 0.0000000 field for delta impulse in time
 
 Orbital magnetization related:
   ORBITALMAG=     F  switch on orbital magnetization
   LCHIMAG   =     F  perturbation theory with respect to B field
   DQ        =  0.001000  dq finite difference perturbation B field
   LLRAUG    =     F  two centre corrections for induced B field



--------------------------------------------------------------------------------------------------------


 conjugate gradient relaxation of ions
 charge density and potential will be updated during run
 non-spin polarized calculation
 RMM-DIIS sequential band-by-band and
  variant of blocked Davidson during initial phase
 perform sub-space diagonalisation
    before iterative eigenvector-optimisation
 modified Broyden-mixing scheme, WC =      100.0
 initial mixing is a Kerker type mixing with AMIX =  0.4000 and BMIX =      1.0000
 Hartree-type preconditioning will be used
 using additional bands           86
 real space projection scheme for non local part
 use partial core corrections
 calculate Harris-corrections to forces 
   (improved forces if not selfconsistent)
 use gradient corrections 
 use of overlap-Matrix (Vanderbilt PP)
 Methfessel and Paxton  Order N= 1 SIGMA  =   0.20


--------------------------------------------------------------------------------------------------------


  energy-cutoff  :      800.00
  volume of cell :     1103.86
      direct lattice vectors                 reciprocal lattice vectors
    10.334847047  0.000000000  0.000000000     0.096760019  0.000000000  0.000000000
     0.000000000 10.334847047  0.000000000     0.000000000  0.096760019  0.000000000
     0.000000000  0.000000000 10.334847047     0.000000000  0.000000000  0.096760019

  length of vectors
    10.334847047 10.334847047 10.334847047     0.096760019  0.096760019  0.096760019


 
 k-points in units of 2pi/SCALE and weight: pymatgen generated KPOINTS with grid den
   0.01209500  0.01209500  0.01209500       0.125
   0.03628501  0.01209500  0.01209500       0.375
   0.03628501  0.03628501  0.01209500       0.375
   0.03628501  0.03628501  0.03628501       0.125
 
 k-points in reciprocal lattice and weights: pymatgen generated KPOINTS with grid den
   0.12500000  0.12500000  0.12500000       0.125
   0.37500000  0.12500000  0.12500000       0.375
   0.37500000  0.37500000  0.12500000       0.375
   0.37500000  0.37500000  0.37500000       0.125
 
 position of ions in fractional coordinates (direct lattice) 
   0.00000000  0.00000000  0.00000000
   0.00000000  0.16666893  0.16666893
   0.16666893  0.00000000  0.16666893
   0.16666893  0.16666893  0.00000000
   0.33333106  0.00000000  0.00000000
   0.33333107  0.16666893  0.16666893
   0.50000000  0.00000000  0.16666894
   0.50000000  0.16666894  0.00000000
   0.66666897  0.00000000  0.00000000
   0.66666896  0.16666893  0.16666893
   0.83333104  0.00000000  0.16666893
   0.83333104  0.16666893  0.00000000
   0.00000000  0.33333106  0.00000000
   0.00000000  0.50000000  0.16666894
   0.16666893  0.33333107  0.16666893
   0.16666894  0.50000000  0.00000000
   0.33333107  0.33333107  0.00000000
   0.33333107  0.50000000  0.16666893
   0.50000000  0.33333107  0.16666893
   0.50000000  0.50000000  0.00000000
   0.66666896  0.33333107  0.00000000
   0.66666896  0.50000000  0.16666893
   0.83333104  0.33333107  0.16666893
   0.83333103  0.50000000  0.00000000
   0.00000000  0.66666897  0.00000000
   0.00000000  0.83333104  0.16666893
   0.16666893  0.66666896  0.16666893
   0.16666893  0.83333104  0.00000000
   0.33333107  0.66666896  0.00000000
   0.33333107  0.83333104  0.16666893
   0.50000000  0.66666896  0.16666893
   0.50000000  0.83333103  0.00000000
   0.66666896  0.66666896  0.00000000
   0.66666896  0.83333104  0.16666893
   0.83333104  0.66666896  0.16666893
   0.83333104  0.83333104  0.00000000
   0.00000000  0.00000000  0.33333106
   0.00000000  0.16666894  0.50000000
   0.16666894  0.00000000  0.50000000
   0.16666893  0.16666893  0.33333107
   0.33333107  0.00000000  0.33333107
   0.33333107  0.16666893  0.50000000
   0.50000000  0.00000000  0.50000000
   0.50000000  0.16666893  0.33333107
   0.66666896  0.00000000  0.33333107
   0.66666896  0.16666893  0.50000000
   0.83333103  0.00000000  0.50000000
   0.83333104  0.16666893  0.33333107
   0.00000000  0.33333107  0.33333107
   0.00000000  0.50000000  0.50000000
   0.16666893  0.33333107  0.50000000
   0.16666893  0.50000000  0.33333107
   0.33333107  0.33333107  0.33333107
   0.33333106  0.50000000  0.50000000
   0.50000000  0.33333106  0.50000000
   0.50000000  0.50000000  0.33333106
   0.66666896  0.33333107  0.33333107
   0.66666897  0.50000000  0.50000000
   0.83333104  0.33333107  0.50000000
   0.83333104  0.50000000  0.33333107
   0.00000000  0.66666896  0.33333107
   0.00000000  0.83333103  0.50000000
   0.16666893  0.66666896  0.50000000
   0.16666893  0.83333104  0.33333107
   0.33333107  0.66666896  0.33333107
   0.33333107  0.83333104  0.50000000
   0.50000000  0.66666897  0.50000000
   0.50000000  0.83333104  0.33333107
   0.66666896  0.66666896  0.33333107
   0.66666896  0.83333104  0.50000000
   0.83333104  0.66666896  0.50000000
   0.83333104  0.83333104  0.33333107
   0.00000000  0.00000000  0.66666897
   0.00000000  0.16666893  0.83333104
   0.16666893  0.00000000  0.83333104
   0.16666893  0.16666893  0.66666896
   0.33333107  0.00000000  0.66666896
   0.33333107  0.16666893  0.83333104
   0.50000000  0.00000000  0.83333103
   0.50000000  0.16666893  0.66666896
   0.66666896  0.00000000  0.66666896
   0.66666896  0.16666893  0.83333104
   0.83333104  0.00000000  0.83333104
   0.83333104  0.16666893  0.66666896
   0.00000000  0.33333107  0.66666896
   0.00000000  0.50000000  0.83333103
   0.16666893  0.33333107  0.83333104
   0.16666893  0.50000000  0.66666896
   0.33333107  0.33333107  0.66666896
   0.33333107  0.50000000  0.83333104
   0.50000000  0.33333107  0.83333104
   0.50000000  0.50000000  0.66666897
   0.66666896  0.33333107  0.66666896
   0.66666896  0.50000000  0.83333104
   0.83333104  0.33333107  0.83333104
   0.83333104  0.50000000  0.66666896
   0.00000000  0.66666896  0.66666896
   0.00000000  0.83333104  0.83333104
   0.16666893  0.66666896  0.83333104
   0.16666893  0.83333104  0.66666896
   0.33333107  0.66666896  0.66666896
   0.33333107  0.83333104  0.83333104
   0.50000000  0.66666896  0.83333104
   0.50000000  0.83333104  0.66666896
   0.66666896  0.66666896  0.66666896
   0.66666896  0.83333104  0.83333104
   0.83333104  0.66666896  0.83333104
   0.83333104  0.83333104  0.66666896
 
 position of ions in cartesian coordinates  (Angst):
   0.00000000  0.00000000  0.00000000
   0.00000000  1.72249793  1.72249793
   1.72249793  0.00000000  1.72249793
   1.72249793  1.72249793  0.00000000
   3.44492554  0.00000000  0.00000000
   3.44492559  1.72249794  1.72249794
   5.16742352  0.00000000  1.72249798
   5.16742352  1.72249798  0.00000000
   6.88992180  0.00000000  0.00000000
   6.88992176  1.72249794  1.72249794
   8.61234881  0.00000000  1.72249793
   8.61234881  1.72249793  0.00000000
   0.00000000  3.44492554  0.00000000
   0.00000000  5.16742352  1.72249798
   1.72249794  3.44492559  1.72249794
   1.72249798  5.16742352  0.00000000
   3.44492559  3.44492559  0.00000000
   3.44492559  5.16742352  1.72249793
   5.16742352  3.44492559  1.72249793
   5.16742352  5.16742352  0.00000000
   6.88992176  3.44492559  0.00000000
   6.88992176  5.16742352  1.72249793
   8.61234881  3.44492559  1.72249794
   8.61234877  5.16742352  0.00000000
   0.00000000  6.88992180  0.00000000
   0.00000000  8.61234881  1.72249793
   1.72249794  6.88992176  1.72249794
   1.72249793  8.61234881  0.00000000
   3.44492559  6.88992176  0.00000000
   3.44492559  8.61234881  1.72249794
   5.16742352  6.88992176  1.72249793
   5.16742352  8.61234877  0.00000000
   6.88992176  6.88992176  0.00000000
   6.88992176  8.61234881  1.72249794
   8.61234881  6.88992176  1.72249794
   8.61234881  8.61234881  0.00000000
   0.00000000  0.00000000  3.44492554
   0.00000000  1.72249798  5.16742352
   1.72249798  0.00000000  5.16742352
   1.72249794  1.72249794  3.44492559
   3.44492559  0.00000000  3.44492559
   3.44492559  1.72249793  5.16742352
   5.16742352  0.00000000  5.16742352
   5.16742352  1.72249793  3.44492559
   6.88992176  0.00000000  3.44492559
   6.88992176  1.72249793  5.16742352
   8.61234877  0.00000000  5.16742352
   8.61234881  1.72249794  3.44492559
   0.00000000  3.44492559  3.44492559
   0.00000000  5.16742352  5.16742352
   1.72249793  3.44492559  5.16742352
   1.72249793  5.16742352  3.44492559
   3.44492559  3.44492559  3.44492559
   3.44492554  5.16742352  5.16742352
   5.16742352  3.44492554  5.16742352
   5.16742352  5.16742352  3.44492554
   6.88992176  3.44492559  3.44492559
   6.88992180  5.16742352  5.16742352
   8.61234881  3.44492559  5.16742352
   8.61234881  5.16742352  3.44492559
   0.00000000  6.88992176  3.44492559
   0.00000000  8.61234877  5.16742352
   1.72249793  6.88992176  5.16742352
   1.72249794  8.61234881  3.44492559
   3.44492559  6.88992176  3.44492559
   3.44492559  8.61234881  5.16742352
   5.16742352  6.88992180  5.16742352
   5.16742352  8.61234881  3.44492559
   6.88992176  6.88992176  3.44492559
   6.88992176  8.61234881  5.16742352
   8.61234881  6.88992176  5.16742352
   8.61234881  8.61234881  3.44492559
   0.00000000  0.00000000  6.88992180
   0.00000000  1.72249793  8.61234881
   1.72249793  0.00000000  8.61234881
   1.72249794  1.72249794  6.88992176
   3.44492559  0.00000000  6.88992176
   3.44492559  1.72249794  8.61234881
   5.16742352  0.00000000  8.61234877
   5.16742352  1.72249793  6.88992176
   6.88992176  0.00000000  6.88992176
   6.88992176  1.72249794  8.61234881
   8.61234881  0.00000000  8.61234881
   8.61234881  1.72249794  6.88992176
   0.00000000  3.44492559  6.88992176
   0.00000000  5.16742352  8.61234877
   1.72249794  3.44492559  8.61234881
   1.72249793  5.16742352  6.88992176
   3.44492559  3.44492559  6.88992176
   3.44492559  5.16742352  8.61234881
   5.16742352  3.44492559  8.61234881
   5.16742352  5.16742352  6.88992180
   6.88992176  3.44492559  6.88992176
   6.88992176  5.16742352  8.61234881
   8.61234881  3.44492559  8.61234881
   8.61234881  5.16742352  6.88992176
   0.00000000  6.88992176  6.88992176
   0.00000000  8.61234881  8.61234881
   1.72249794  6.88992176  8.61234881
   1.72249794  8.61234881  6.88992176
   3.44492559  6.88992176  6.88992176
   3.44492559  8.61234881  8.61234881
   5.16742352  6.88992176  8.61234881
   5.16742352  8.61234881  6.88992176
   6.88992176  6.88992176  6.88992176
   6.88992176  8.61234881  8.61234881
   8.61234881  6.88992176  8.61234881
   8.61234881  8.61234881  6.88992176
 


--------------------------------------------------------------------------------------------------------


 k-point  1 :   0.1250 0.1250 0.1250  plane waves:   56688
 k-point  2 :   0.3750 0.1250 0.1250  plane waves:   56727
 k-point  3 :   0.3750 0.3750 0.1250  plane waves:   56715
 k-point  4 :   0.3750 0.3750 0.3750  plane waves:   56749

 maximum and minimum number of plane-waves per node :     14219    14144

 maximum number of plane-waves:     56749
 maximum index in each direction: 
   IXMAX=   23   IYMAX=   23   IZMAX=   23
   IXMIN=  -24   IYMIN=  -24   IZMIN=  -24


 real space projection operators:
  total allocation   :      46640.81 KBytes
  max/ min on nodes  :      12043.69      11436.19


 parallel 3D FFT for wavefunctions:
    minimum data exchange during FFTs selected (reduces bandwidth)
 parallel 3D FFT for charge:
    minimum data exchange during FFTs selected (reduces bandwidth)


 total amount of memory used by VASP MPI-rank0   331653. kBytes
=======================================================================

   base      :      30000. kBytes
   nonlr-proj:      20636. kBytes
   fftplans  :      15560. kBytes
   grid      :      21835. kBytes
   one-center:        419. kBytes
   wavefun   :     243203. kBytes
 
     INWAV:  cpu time    0.0000: real time    0.0001
 Broyden mixing: mesh for mixing (old mesh)
   NGX = 47   NGY = 47   NGZ = 47
  (NGX  =144   NGY  =144   NGZ  =144)
  gives a total of 103823 points

 initial charge density was supplied:
 charge density of overlapping atoms calculated
 number of electron     864.0000000 magnetization 
 keeping initial charge density in first step


--------------------------------------------------------------------------------------------------------


 Maximum index for non-local projection operator          793
 Maximum index for augmentation-charges         1463 (set IRDMAX)


--------------------------------------------------------------------------------------------------------


 First call to EWALD:  gamma=   0.172
 Maximum number of real-space cells 3x 3x 3
 Maximum number of reciprocal cells 3x 3x 3

    FEWALD:  cpu time    0.0144: real time    0.0146


--------------------------------------- Iteration      1(   1)  ---------------------------------------


    POTLOK:  cpu time    0.3343: real time    0.3351
    SETDIJ:  cpu time    0.0554: real time    0.0554
     EDDAV:  cpu time   69.7847: real time   69.8393
       DOS:  cpu time    0.0038: real time    0.0038
    --------------------------------------------
      LOOP:  cpu time   70.1782: real time   70.2338

 eigenvalue-minimisations  :  4144
 total energy-change (2. order) : 0.1031511E+05  (-0.4552675E+05)
 number of electron     864.0000000 magnetization 
 augmentation part      864.0000000 magnetization 

 Free energy of the ion-electron system (eV)
  ---------------------------------------------------
  alpha Z        PSCENC =      7300.31925852
  Ewald energy   TEWEN  =    -66232.83996889
  -Hartree energ DENC   =    -11197.02572337
  -exchange      EXHF   =         0.00000000
  -V(xc)+E(xc)   XCENC  =       446.63038354
  PAW double counting   =     51723.88885462   -52548.28121372
  entropy T*S    EENTRO =        -0.02193283
  eigenvalues    EBANDS =     16619.87626664
  atomic energy  EATOM  =     64202.56598403
  Solvation  Ediel_sol  =         0.00000000
  ---------------------------------------------------
  free energy    TOTEN  =     10315.11190855 eV

  energy without entropy =    10315.13384138  energy(sigma->0) =    10315.11921949


--------------------------------------------------------------------------------------------------------




--------------------------------------- Iteration      1(   2)  ---------------------------------------


     EDDAV:  cpu time   70.5757: real time   70.5956
       DOS:  cpu time    0.0059: real time    0.0059
    --------------------------------------------
      LOOP:  cpu time   70.5816: real time   70.6015

 eigenvalue-minimisations  :  4144
 total energy-change (2. order) :-0.9830320E+04  (-0.9689274E+04)
 number of electron     864.0000000 magnetization 
 augmentation part      864.0000000 magnetization 

 Free energy of the ion-electron system (eV)
  ---------------------------------------------------
  alpha Z        PSCENC =      7300.31925852
  Ewald energy   TEWEN  =    -66232.83996889
  -Hartree energ DENC   =    -11197.02572337
  -exchange      EXHF   =         0.00000000
  -V(xc)+E(xc)   XCENC  =       446.63038354
  PAW double counting   =     51723.88885462   -52548.28121372
  entropy T*S    EENTRO =        -0.01063104
  eigenvalues    EBANDS =      6789.54468854
  atomic energy  EATOM  =     64202.56598403
  Solvation  Ediel_sol  =         0.00000000
  ---------------------------------------------------
  free energy    TOTEN  =       484.79163224 eV

  energy without entropy =      484.80226327  energy(sigma->0) =      484.79517592


--------------------------------------------------------------------------------------------------------




--------------------------------------- Iteration      1(   3)  ---------------------------------------


     EDDAV:  cpu time   70.2692: real time   70.2884
       DOS:  cpu time    0.0073: real time    0.0073
    --------------------------------------------
      LOOP:  cpu time   70.2765: real time   70.2957

 eigenvalue-minimisations  :  4144
 total energy-change (2. order) :-0.1287989E+04  (-0.1108116E+04)
 number of electron     864.0000000 magnetization 
 augmentation part      864.0000000 magnetization 

 Free energy of the ion-electron system (eV)
  ---------------------------------------------------
  alpha Z        PSCENC =      7300.31925852
  Ewald energy   TEWEN  =    -66232.83996889
  -Hartree energ DENC   =    -11197.02572337
  -exchange      EXHF   =         0.00000000
  -V(xc)+E(xc)   XCENC  =       446.63038354
  PAW double counting   =     51723.88885462   -52548.28121372
  entropy T*S    EENTRO =        -0.00512470
  eigenvalues    EBANDS =      5501.54975510
  atomic energy  EATOM  =     64202.56598403
  Solvation  Ediel_sol  =         0.00000000
  ---------------------------------------------------
  free energy    TOTEN  =      -803.19779486 eV

  energy without entropy =     -803.19267016  energy(sigma->0) =     -803.19608663


--------------------------------------------------------------------------------------------------------




--------------------------------------- Iteration      1(   4)  ---------------------------------------


     EDDAV:  cpu time  115.9843: real time  116.0178
       DOS:  cpu time    0.0076: real time    0.0076
    --------------------------------------------
      LOOP:  cpu time  115.9918: real time  116.0254

 eigenvalue-minimisations  :  7496
 total energy-change (2. order) :-0.2219291E+03  (-0.2087041E+03)
 number of electron     864.0000000 magnetization 
 augmentation part      864.0000000 magnetization 

 Free energy of the ion-electron system (eV)
  ---------------------------------------------------
  alpha Z        PSCENC =      7300.31925852
  Ewald energy   TEWEN  =    -66232.83996889
  -Hartree energ DENC   =    -11197.02572337
  -exchange      EXHF   =         0.00000000
  -V(xc)+E(xc)   XCENC  =       446.63038354
  PAW double counting   =     51723.88885462   -52548.28121372
  entropy T*S    EENTRO =        -0.04922022
  eigenvalues    EBANDS =      5279.66472643
  atomic energy  EATOM  =     64202.56598403
  Solvation  Ediel_sol  =         0.00000000
  ---------------------------------------------------
  free energy    TOTEN  =     -1025.12691905 eV

  energy without entropy =    -1025.07769883  energy(sigma->0) =    -1025.11051231


--------------------------------------------------------------------------------------------------------




--------------------------------------- Iteration      1(   5)  ---------------------------------------


     EDDAV:  cpu time  108.0489: real time  108.0790
       DOS:  cpu time    0.0076: real time    0.0076
    CHARGE:  cpu time    2.7051: real time    2.7056
    MIXING:  cpu time    0.0079: real time    0.0079
    --------------------------------------------
      LOOP:  cpu time  110.7694: real time  110.8001

 eigenvalue-minimisations  :  6704
 total energy-change (2. order) :-0.2001137E+02  (-0.1899059E+02)
 number of electron     864.0000691 magnetization 
 augmentation part      382.7850759 magnetization 

 Broyden mixing:
  rms(total) = 0.93455E+01    rms(broyden)= 0.93455E+01
  rms(prec ) = 0.11651E+02
  weight for this iteration     100.00

 Free energy of the ion-electron system (eV)
  ---------------------------------------------------
  alpha Z        PSCENC =      7300.31925852
  Ewald energy   TEWEN  =    -66232.83996889
  -Hartree energ DENC   =    -11197.02572337
  -exchange      EXHF   =         0.00000000
  -V(xc)+E(xc)   XCENC  =       446.63038354
  PAW double counting   =     51723.88885462   -52548.28121372
  entropy T*S    EENTRO =        -0.10586227
  eigenvalues    EBANDS =      5259.71000331
  atomic energy  EATOM  =     64202.56598403
  Solvation  Ediel_sol  =         0.00000000
  ---------------------------------------------------
  free energy    TOTEN  =     -1045.13828422 eV

  energy without entropy =    -1045.03242196  energy(sigma->0) =    -1045.10299680


--------------------------------------------------------------------------------------------------------




--------------------------------------- Iteration      1(   6)  ---------------------------------------


    POTLOK:  cpu time    0.3207: real time    0.3208
    SETDIJ:  cpu time    0.0550: real time    0.0550
    EDDIAG:  cpu time    8.7445: real time    8.7466
  RMM-DIIS:  cpu time   31.3874: real time   31.3956
    ORTHCH:  cpu time    2.5692: real time    2.5697
       DOS:  cpu time    0.0082: real time    0.0082
    CHARGE:  cpu time    2.7325: real time    2.7331
    MIXING:  cpu time    0.0090: real time    0.0090
    --------------------------------------------
      LOOP:  cpu time   45.8264: real time   45.8380

 eigenvalue-minimisations  :  4144
 total energy-change (2. order) : 0.1680148E+03  (-0.1353266E+03)
 number of electron     864.0000778 magnetization 
 augmentation part      447.5730957 magnetization 

 Broyden mixing:
  rms(total) = 0.88266E+00    rms(broyden)= 0.88261E+00
  rms(prec ) = 0.95404E+00
  weight for this iteration     100.00

 eigenvalues of (default mixing * dielectric matrix)
  average eigenvalue GAMMA=   0.9509
  0.9509

 Free energy of the ion-electron system (eV)
  ---------------------------------------------------
  alpha Z        PSCENC =      7300.31925852
  Ewald energy   TEWEN  =    -66232.83996889
  -Hartree energ DENC   =     -9342.77368322
  -exchange      EXHF   =         0.00000000
  -V(xc)+E(xc)   XCENC  =       355.79422422
  PAW double counting   =     52458.05822820   -53038.08857033
  entropy T*S    EENTRO =        -0.05620883
  eigenvalues    EBANDS =      3419.89726698
  atomic energy  EATOM  =     64202.56598403
  Solvation  Ediel_sol  =         0.00000000
  ---------------------------------------------------
  free energy    TOTEN  =      -877.12346930 eV

  energy without entropy =     -877.06726047  energy(sigma->0) =     -877.10473303


--------------------------------------------------------------------------------------------------------




--------------------------------------- Iteration      1(   7)  ---------------------------------------


    POTLOK:  cpu time    0.3232: real time    0.3235
    SETDIJ:  cpu time    0.0565: real time    0.0565
    EDDIAG:  cpu time    8.7765: real time    8.7787
  RMM-DIIS:  cpu time   34.9697: real time   34.9791
    ORTHCH:  cpu time    2.5860: real time    2.5865
       DOS:  cpu time    0.0083: real time    0.0083
    CHARGE:  cpu time    2.7139: real time    2.7145
    MIXING:  cpu time    0.0101: real time    0.0101
    --------------------------------------------
      LOOP:  cpu time   49.4442: real time   49.4572

 eigenvalue-minimisations  :  4550
 total energy-change (2. order) :-0.3127810E+01  (-0.1120168E+02)
 number of electron     864.0000753 magnetization 
 augmentation part      447.0969086 magnetization 

 Broyden mixing:
  rms(total) = 0.37376E+00    rms(broyden)= 0.37375E+00
  rms(prec ) = 0.43494E+00
  weight for this iteration     100.00

 eigenvalues of (default mixing * dielectric matrix)
  average eigenvalue GAMMA=   1.0638
  1.0638  1.0638

 Free energy of the ion-electron system (eV)
  ---------------------------------------------------
  alpha Z        PSCENC =      7300.31925852
  Ewald energy   TEWEN  =    -66232.83996889
  -Hartree energ DENC   =     -9379.47922058
  -exchange      EXHF   =         0.00000000
  -V(xc)+E(xc)   XCENC  =       359.96795662
  PAW double counting   =     54337.30708701   -55113.38108806
  entropy T*S    EENTRO =        -0.14900563
  eigenvalues    EBANDS =      3645.43771789
  atomic energy  EATOM  =     64202.56598403
  Solvation  Ediel_sol  =         0.00000000
  ---------------------------------------------------
  free energy    TOTEN  =      -880.25127908 eV

  energy without entropy =     -880.10227346  energy(sigma->0) =     -880.20161054


--------------------------------------------------------------------------------------------------------




--------------------------------------- Iteration      1(   8)  ---------------------------------------


    POTLOK:  cpu time    0.3091: real time    0.3096
    SETDIJ:  cpu time    0.0582: real time    0.0582
    EDDIAG:  cpu time    9.3119: real time    9.3142
  RMM-DIIS:  cpu time   34.5535: real time   34.5618
    ORTHCH:  cpu time    2.7878: real time    2.7881
       DOS:  cpu time    0.0084: real time    0.0084
    CHARGE:  cpu time    3.0112: real time    3.0114
    MIXING:  cpu time    0.0135: real time    0.0135
    --------------------------------------------
      LOOP:  cpu time   50.0537: real time   50.0653

 eigenvalue-minimisations  :  4434
 total energy-change (2. order) :-0.8935594E-01  (-0.1489291E+01)
 number of electron     864.0000749 magnetization 
 augmentation part      443.5717664 magnetization 

 Broyden mixing:
  rms(total) = 0.14273E+01    rms(broyden)= 0.14273E+01
  rms(prec ) = 0.19972E+01
  weight for this iteration     100.00

 eigenvalues of (default mixing * dielectric matrix)
  average eigenvalue GAMMA=   0.7741
  1.1038  1.1038  0.1147

 Free energy of the ion-electron system (eV)
  ---------------------------------------------------
  alpha Z        PSCENC =      7300.31925852
  Ewald energy   TEWEN  =    -66232.83996889
  -Hartree energ DENC   =     -9415.25332993
  -exchange      EXHF   =         0.00000000
  -V(xc)+E(xc)   XCENC  =       362.67639908
  PAW double counting   =     55957.36865122   -56831.16686787
  entropy T*S    EENTRO =        -0.12185967
  eigenvalues    EBANDS =      3776.11109848
  atomic energy  EATOM  =     64202.56598403
  Solvation  Ediel_sol  =         0.00000000
  ---------------------------------------------------
  free energy    TOTEN  =      -880.34063502 eV

  energy without entropy =     -880.21877535  energy(sigma->0) =     -880.30001513


--------------------------------------------------------------------------------------------------------




--------------------------------------- Iteration      1(   9)  ---------------------------------------


    POTLOK:  cpu time    0.3572: real time    0.3577
    SETDIJ:  cpu time    0.0577: real time    0.0577
    EDDIAG:  cpu time    9.3466: real time    9.3475
  RMM-DIIS:  cpu time   39.3588: real time   39.3620
    ORTHCH:  cpu time    2.8072: real time    2.8074
       DOS:  cpu time    0.0084: real time    0.0084
    CHARGE:  cpu time    3.0427: real time    3.0429
    MIXING:  cpu time    0.0117: real time    0.0117
    --------------------------------------------
      LOOP:  cpu time   54.9902: real time   54.9952

 eigenvalue-minimisations  :  5011
 total energy-change (2. order) : 0.6820891E+00  (-0.4767550E+00)
 number of electron     864.0000750 magnetization 
 augmentation part      443.5250688 magnetization 

 Broyden mixing:
  rms(total) = 0.25712E+00    rms(broyden)= 0.25711E+00
  rms(prec ) = 0.31273E+00
  weight for this iteration     100.00

 eigenvalues of (default mixing * dielectric matrix)
  average eigenvalue GAMMA=   1.1367
  2.3797  1.0291  1.0291  0.1088

 Free energy of the ion-electron system (eV)
  ---------------------------------------------------
  alpha Z        PSCENC =      7300.31925852
  Ewald energy   TEWEN  =    -66232.83996889
  -Hartree energ DENC   =     -9414.23028602
  -exchange      EXHF   =         0.00000000
  -V(xc)+E(xc)   XCENC  =       362.78967004
  PAW double counting   =     56253.80472903   -57143.02289208
  entropy T*S    EENTRO =        -0.07514575
  eigenvalues    EBANDS =      3791.03010516
  atomic energy  EATOM  =     64202.56598403
  Solvation  Ediel_sol  =         0.00000000
  ---------------------------------------------------
  free energy    TOTEN  =      -879.65854595 eV

  energy without entropy =     -879.58340020  energy(sigma->0) =     -879.63349737


--------------------------------------------------------------------------------------------------------




--------------------------------------- Iteration      1(  10)  ---------------------------------------


    POTLOK:  cpu time    0.3585: real time    0.3590
    SETDIJ:  cpu time    0.0594: real time    0.0594
    EDDIAG:  cpu time    8.9848: real time    8.9893
  RMM-DIIS:  cpu time   45.6458: real time   45.6536
    ORTHCH:  cpu time    2.7455: real time    2.7457
       DOS:  cpu time    0.0082: real time    0.0082
    CHARGE:  cpu time    2.8467: real time    2.8469
    MIXING:  cpu time    0.0147: real time    0.0147
    --------------------------------------------
      LOOP:  cpu time   60.6637: real time   60.6769

 eigenvalue-minimisations  :  5741
 total energy-change (2. order) : 0.1169720E+00  (-0.2030249E+00)
 number of electron     864.0000752 magnetization 
 augmentation part      444.8932069 magnetization 

 Broyden mixing:
  rms(total) = 0.85145E-01    rms(broyden)= 0.85144E-01
  rms(prec ) = 0.11159E+00
  weight for this iteration     100.00

 eigenvalues of (default mixing * dielectric matrix)
  average eigenvalue GAMMA=   1.1144
  2.5576  1.0656  1.0656  0.7743  0.1091

 Free energy of the ion-electron system (eV)
  ---------------------------------------------------
  alpha Z        PSCENC =      7300.31925852
  Ewald energy   TEWEN  =    -66232.83996889
  -Hartree energ DENC   =     -9334.56440199
  -exchange      EXHF   =         0.00000000
  -V(xc)+E(xc)   XCENC  =       359.57159752
  PAW double counting   =     57770.86241871   -58707.74700878
  entropy T*S    EENTRO =        -0.08255338
  eigenvalues    EBANDS =      3762.37310028
  atomic energy  EATOM  =     64202.56598403
  Solvation  Ediel_sol  =         0.00000000
  ---------------------------------------------------
  free energy    TOTEN  =      -879.54157398 eV

  energy without entropy =     -879.45902060  energy(sigma->0) =     -879.51405618


--------------------------------------------------------------------------------------------------------




--------------------------------------- Iteration      1(  11)  ---------------------------------------


    POTLOK:  cpu time    0.3120: real time    0.3124
    SETDIJ:  cpu time    0.0554: real time    0.0554
    EDDIAG:  cpu time    8.8624: real time    8.8632
  RMM-DIIS:  cpu time   47.5094: real time   47.5133
    ORTHCH:  cpu time    2.8269: real time    2.8272
       DOS:  cpu time    0.0085: real time    0.0085
    CHARGE:  cpu time    3.0415: real time    3.0417
    MIXING:  cpu time    0.0130: real time    0.0130
    --------------------------------------------
      LOOP:  cpu time   62.6291: real time   62.6347

 eigenvalue-minimisations  :  5741
 total energy-change (2. order) :-0.1330591E-01  (-0.1553263E-01)
 number of electron     864.0000752 magnetization 
 augmentation part      444.9650915 magnetization 

 Broyden mixing:
  rms(total) = 0.67108E-01    rms(broyden)= 0.67108E-01
  rms(prec ) = 0.85851E-01
  weight for this iteration     100.00

 eigenvalues of (default mixing * dielectric matrix)
  average eigenvalue GAMMA=   1.2400
  2.6260  1.8442  0.9564  0.9564  0.9479  0.1091

 Free energy of the ion-electron system (eV)
  ---------------------------------------------------
  alpha Z        PSCENC =      7300.31925852
  Ewald energy   TEWEN  =    -66232.83996889
  -Hartree energ DENC   =     -9334.80903910
  -exchange      EXHF   =         0.00000000
  -V(xc)+E(xc)   XCENC  =       359.62276432
  PAW double counting   =     57991.99846114   -58932.00650941
  entropy T*S    EENTRO =        -0.08042563
  eigenvalues    EBANDS =      3765.67459513
  atomic energy  EATOM  =     64202.56598403
  Solvation  Ediel_sol  =         0.00000000
  ---------------------------------------------------
  free energy    TOTEN  =      -879.55487989 eV

  energy without entropy =     -879.47445425  energy(sigma->0) =     -879.52807134


--------------------------------------------------------------------------------------------------------




--------------------------------------- Iteration      1(  12)  ---------------------------------------


    POTLOK:  cpu time    0.3685: real time    0.3691
    SETDIJ:  cpu time    0.0582: real time    0.0582
    EDDIAG:  cpu time    9.3627: real time    9.3636
  RMM-DIIS:  cpu time   37.2354: real time   37.2384
    ORTHCH:  cpu time    2.8602: real time    2.8636
       DOS:  cpu time    0.0084: real time    0.0084
    CHARGE:  cpu time    2.8293: real time    2.8295
    MIXING:  cpu time    0.0127: real time    0.0127
    --------------------------------------------
      LOOP:  cpu time   52.7356: real time   52.7437

 eigenvalue-minimisations  :  4563
 total energy-change (2. order) : 0.5729615E-02  (-0.3883918E-02)
 number of electron     864.0000752 magnetization 
 augmentation part      444.6662906 magnetization 

 Broyden mixing:
  rms(total) = 0.18097E-01    rms(broyden)= 0.18097E-01
  rms(prec ) = 0.23940E-01
  weight for this iteration     100.00

 eigenvalues of (default mixing * dielectric matrix)
  average eigenvalue GAMMA=   1.3064
  2.4502  2.4502  1.2946  0.9683  0.9683  0.9041  0.1091

 Free energy of the ion-electron system (eV)
  ---------------------------------------------------
  alpha Z        PSCENC =      7300.31925852
  Ewald energy   TEWEN  =    -66232.83996889
  -Hartree energ DENC   =     -9347.57589208
  -exchange      EXHF   =         0.00000000
  -V(xc)+E(xc)   XCENC  =       360.19140123
  PAW double counting   =     58051.88192447   -58988.57526367
  entropy T*S    EENTRO =        -0.07680714
  eigenvalues    EBANDS =      3774.56021325
  atomic energy  EATOM  =     64202.56598403
  Solvation  Ediel_sol  =         0.00000000
  ---------------------------------------------------
  free energy    TOTEN  =      -879.54915027 eV

  energy without entropy =     -879.47234313  energy(sigma->0) =     -879.52354789


--------------------------------------------------------------------------------------------------------




--------------------------------------- Iteration      1(  13)  ---------------------------------------


    POTLOK:  cpu time    0.3220: real time    0.3228
    SETDIJ:  cpu time    0.0556: real time    0.0556
    EDDIAG:  cpu time    8.7760: real time    8.7767
  RMM-DIIS:  cpu time   49.0836: real time   49.0915
    ORTHCH:  cpu time    2.7394: real time    2.7396
       DOS:  cpu time    0.0085: real time    0.0085
    CHARGE:  cpu time    3.0032: real time    3.0034
    MIXING:  cpu time    0.0184: real time    0.0184
    --------------------------------------------
      LOOP:  cpu time   64.0065: real time   64.0166

 eigenvalue-minimisations  :  5795
 total energy-change (2. order) :-0.1043486E-02  (-0.1748023E-02)
 number of electron     864.0000752 magnetization 
 augmentation part      444.5568978 magnetization 

 Broyden mixing:
  rms(total) = 0.70525E-02    rms(broyden)= 0.70524E-02
  rms(prec ) = 0.90043E-02
  weight for this iteration     100.00

 eigenvalues of (default mixing * dielectric matrix)
  average eigenvalue GAMMA=   1.3615
  2.5860  2.1983  2.1983  0.1091  0.9736  0.9736  0.9267  0.9267

 Free energy of the ion-electron system (eV)
  ---------------------------------------------------
  alpha Z        PSCENC =      7300.31925852
  Ewald energy   TEWEN  =    -66232.83996889
  -Hartree energ DENC   =     -9350.96800026
  -exchange      EXHF   =         0.00000000
  -V(xc)+E(xc)   XCENC  =       360.33267777
  PAW double counting   =     58043.53882488   -58978.16883118
  entropy T*S    EENTRO =        -0.07546639
  eigenvalues    EBANDS =      3775.74532776
  atomic energy  EATOM  =     64202.56598403
  Solvation  Ediel_sol  =         0.00000000
  ---------------------------------------------------
  free energy    TOTEN  =      -879.55019376 eV

  energy without entropy =     -879.47472737  energy(sigma->0) =     -879.52503829


--------------------------------------------------------------------------------------------------------




--------------------------------------- Iteration      1(  14)  ---------------------------------------


    POTLOK:  cpu time    0.3291: real time    0.3295
    SETDIJ:  cpu time    0.0583: real time    0.0583
    EDDIAG:  cpu time    8.8248: real time    8.8256
  RMM-DIIS:  cpu time   41.2405: real time   41.2485
    ORTHCH:  cpu time    2.6639: real time    2.6642
       DOS:  cpu time    0.0084: real time    0.0084
    CHARGE:  cpu time    2.7181: real time    2.7183
    MIXING:  cpu time    0.0167: real time    0.0167
    --------------------------------------------
      LOOP:  cpu time   55.8598: real time   55.8693

 eigenvalue-minimisations  :  4844
 total energy-change (2. order) :-0.2540364E-04  (-0.7798413E-04)
 number of electron     864.0000752 magnetization 
 augmentation part      444.5973033 magnetization 

 Broyden mixing:
  rms(total) = 0.19233E-02    rms(broyden)= 0.19233E-02
  rms(prec ) = 0.25804E-02
  weight for this iteration     100.00

 eigenvalues of (default mixing * dielectric matrix)
  average eigenvalue GAMMA=   1.3768
  2.7442  2.2382  2.2382  0.1091  1.2373  0.9900  0.9900  0.9752  0.8689

 Free energy of the ion-electron system (eV)
  ---------------------------------------------------
  alpha Z        PSCENC =      7300.31925852
  Ewald energy   TEWEN  =    -66232.83996889
  -Hartree energ DENC   =     -9349.23196724
  -exchange      EXHF   =         0.00000000
  -V(xc)+E(xc)   XCENC  =       360.25917818
  PAW double counting   =     58042.14263725   -58977.14722968
  entropy T*S    EENTRO =        -0.07521131
  eigenvalues    EBANDS =      3774.45709997
  atomic energy  EATOM  =     64202.56598403
  Solvation  Ediel_sol  =         0.00000000
  ---------------------------------------------------
  free energy    TOTEN  =      -879.55021916 eV

  energy without entropy =     -879.47500785  energy(sigma->0) =     -879.52514872


--------------------------------------------------------------------------------------------------------




--------------------------------------- Iteration      1(  15)  ---------------------------------------


    POTLOK:  cpu time    0.3533: real time    0.3538
    SETDIJ:  cpu time    0.0571: real time    0.0571
    EDDIAG:  cpu time    8.9915: real time    8.9923
  RMM-DIIS:  cpu time   50.6702: real time   50.6744
    ORTHCH:  cpu time    2.6407: real time    2.6409
       DOS:  cpu time    0.0083: real time    0.0083
    CHARGE:  cpu time    2.5987: real time    2.5989
    MIXING:  cpu time    0.0158: real time    0.0158
    --------------------------------------------
      LOOP:  cpu time   65.3358: real time   65.3416

 eigenvalue-minimisations  :  6121
 total energy-change (2. order) :-0.1013017E-05  (-0.1533767E-04)
 number of electron     864.0000752 magnetization 
 augmentation part      444.5958073 magnetization 

 Broyden mixing:
  rms(total) = 0.16473E-02    rms(broyden)= 0.16473E-02
  rms(prec ) = 0.23196E-02
  weight for this iteration     100.00

 eigenvalues of (default mixing * dielectric matrix)
  average eigenvalue GAMMA=   1.3650
  2.9428  2.3775  2.3775  0.1091  1.3436  0.9748  0.9748  0.9150  0.8176  0.8176

 Free energy of the ion-electron system (eV)
  ---------------------------------------------------
  alpha Z        PSCENC =      7300.31925852
  Ewald energy   TEWEN  =    -66232.83996889
  -Hartree energ DENC   =     -9349.40948233
  -exchange      EXHF   =         0.00000000
  -V(xc)+E(xc)   XCENC  =       360.26968872
  PAW double counting   =     58042.10681490   -58977.10310166
  entropy T*S    EENTRO =        -0.07473415
  eigenvalues    EBANDS =      3774.61532067
  atomic energy  EATOM  =     64202.56598403
  Solvation  Ediel_sol  =         0.00000000
  ---------------------------------------------------
  free energy    TOTEN  =      -879.55022017 eV

  energy without entropy =     -879.47548603  energy(sigma->0) =     -879.52530879


--------------------------------------------------------------------------------------------------------




--------------------------------------- Iteration      1(  16)  ---------------------------------------


    POTLOK:  cpu time    0.3294: real time    0.3297
    SETDIJ:  cpu time    0.0567: real time    0.0567
    EDDIAG:  cpu time    8.0126: real time    8.0132
  RMM-DIIS:  cpu time   26.6420: real time   26.6441
    ORTHCH:  cpu time    2.3886: real time    2.3888
       DOS:  cpu time    0.0083: real time    0.0083
    CHARGE:  cpu time    2.2716: real time    2.2718
    MIXING:  cpu time    0.0138: real time    0.0138
    --------------------------------------------
      LOOP:  cpu time   39.7229: real time   39.7264

 eigenvalue-minimisations  :  4870
 total energy-change (2. order) : 0.2725726E-04  ( 0.2784302E-04)
 number of electron     864.0000752 magnetization 
 augmentation part      444.5994021 magnetization 

 Broyden mixing:
  rms(total) = 0.73703E-03    rms(broyden)= 0.73703E-03
  rms(prec ) = 0.10231E-02
  weight for this iteration     100.00

 eigenvalues of (default mixing * dielectric matrix)
  average eigenvalue GAMMA=   1.4106
  2.8351  2.5502  2.0531  2.0531  0.1091  0.9887  0.9887  1.0899  1.0899  0.8794
  0.8794

 Free energy of the ion-electron system (eV)
  ---------------------------------------------------
  alpha Z        PSCENC =      7300.31925852
  Ewald energy   TEWEN  =    -66232.83996889
  -Hartree energ DENC   =     -9349.30291319
  -exchange      EXHF   =         0.00000000
  -V(xc)+E(xc)   XCENC  =       360.26538026
  PAW double counting   =     58041.54214262   -58976.55680971
  entropy T*S    EENTRO =        -0.07440432
  eigenvalues    EBANDS =      3774.53113776
  atomic energy  EATOM  =     64202.56598403
  Solvation  Ediel_sol  =         0.00000000
  ---------------------------------------------------
  free energy    TOTEN  =      -879.55019292 eV

  energy without entropy =     -879.47578860  energy(sigma->0) =     -879.52539148


--------------------------------------------------------------------------------------------------------




--------------------------------------- Iteration      1(  17)  ---------------------------------------


    POTLOK:  cpu time    0.2542: real time    0.2546
    SETDIJ:  cpu time    0.0518: real time    0.0518
    EDDIAG:  cpu time    7.4137: real time    7.4143
  RMM-DIIS:  cpu time   17.1165: real time   17.1180
    ORTHCH:  cpu time    2.3746: real time    2.3748
       DOS:  cpu time    0.0078: real time    0.0078
    CHARGE:  cpu time    2.3635: real time    2.3637
    MIXING:  cpu time    0.0151: real time    0.0151
    --------------------------------------------
      LOOP:  cpu time   29.5972: real time   29.6000

 eigenvalue-minimisations  :  3273
 total energy-change (2. order) : 0.4626998E-04  ( 0.3557041E-04)
 number of electron     864.0000752 magnetization 
[...]
   0.105E-01 0.103E-01 0.143E-04   -.205E-01 -.202E-01 -.277E-04   0.235E-20 0.104E-19 -.106E-19   -.313E-06 -.322E-06 0.104E-07
   -.105E-01 -.143E-04 0.142E-04   0.205E-01 0.277E-04 -.277E-04   -.884E-25 0.381E-20 0.157E-19   0.314E-06 -.104E-07 0.104E-07
   -.105E-01 0.103E-01 -.103E-01   0.205E-01 -.202E-01 0.202E-01   0.119E-24 0.238E-20 -.254E-20   0.313E-06 -.322E-06 0.321E-06
   -.143E-04 -.103E-01 -.103E-01   0.277E-04 0.202E-01 0.202E-01   -.127E-20 -.762E-20 0.229E-19   -.104E-07 0.326E-06 0.326E-06
   -.143E-04 0.143E-04 0.143E-04   0.277E-04 -.277E-04 -.277E-04   -.847E-21 -.847E-20 0.233E-19   -.104E-07 0.104E-07 0.104E-07
   0.103E-01 -.103E-01 0.143E-04   -.202E-01 0.202E-01 -.277E-04   -.267E-20 -.424E-20 0.296E-20   -.322E-06 0.321E-06 0.104E-07
   0.103E-01 0.143E-04 -.103E-01   -.202E-01 -.277E-04 0.202E-01   0.596E-21 0.508E-20 0.762E-20   -.322E-06 0.104E-07 0.321E-06
   -.103E-01 -.103E-01 -.103E-01   0.202E-01 0.202E-01 0.202E-01   0.888E-25 0.678E-20 -.216E-19   0.326E-06 0.326E-06 0.326E-06
   -.103E-01 0.143E-04 0.142E-04   0.202E-01 -.277E-04 -.277E-04   -.880E-25 -.102E-24 0.593E-20   0.322E-06 0.104E-07 0.104E-07
   0.143E-04 -.103E-01 0.142E-04   -.277E-04 0.202E-01 -.277E-04   0.169E-20 0.246E-19 0.635E-20   0.104E-07 0.322E-06 0.104E-07
   0.143E-04 0.143E-04 -.103E-01   -.277E-04 -.277E-04 0.202E-01   0.148E-24 0.847E-21 -.551E-20   0.104E-07 0.104E-07 0.322E-06
   0.105E-01 -.103E-01 -.103E-01   -.205E-01 0.202E-01 0.202E-01   -.490E-21 -.102E-19 -.216E-19   -.318E-06 0.326E-06 0.326E-06
   0.105E-01 0.143E-04 0.143E-04   -.205E-01 -.277E-04 -.277E-04   0.228E-21 0.847E-20 -.466E-20   -.313E-06 0.104E-07 0.104E-07
   -.105E-01 -.103E-01 0.142E-04   0.205E-01 0.202E-01 -.277E-04   -.148E-24 -.593E-20 -.102E-19   0.313E-06 0.321E-06 0.104E-07
   -.105E-01 0.143E-04 -.103E-01   0.205E-01 -.277E-04 0.202E-01   0.148E-24 0.339E-20 -.296E-20   0.313E-06 0.104E-07 0.321E-06
   -.143E-04 0.105E-01 -.103E-01   0.277E-04 -.205E-01 0.202E-01   0.847E-21 -.916E-20 -.182E-19   -.104E-07 -.317E-06 0.326E-06
   -.143E-04 -.105E-01 0.142E-04   0.277E-04 0.205E-01 -.277E-04   -.424E-21 0.212E-20 0.847E-20   -.104E-07 0.314E-06 0.104E-07
   0.103E-01 0.105E-01 0.143E-04   -.202E-01 -.205E-01 -.277E-04   0.197E-22 0.677E-20 -.305E-19   -.322E-06 -.313E-06 0.104E-07
   0.103E-01 -.105E-01 -.103E-01   -.202E-01 0.205E-01 0.202E-01   0.247E-20 0.254E-20 0.805E-20   -.322E-06 0.313E-06 0.321E-06
   -.103E-01 0.105E-01 -.103E-01   0.202E-01 -.205E-01 0.202E-01   0.119E-24 0.141E-19 -.487E-19   0.326E-06 -.318E-06 0.326E-06
   -.103E-01 -.105E-01 0.142E-04   0.202E-01 0.205E-01 -.277E-04   -.147E-24 -.551E-20 -.805E-20   0.321E-06 0.313E-06 0.104E-07
   0.143E-04 0.105E-01 0.143E-04   -.277E-04 -.205E-01 -.277E-04   -.847E-21 -.174E-19 -.136E-19   0.104E-07 -.313E-06 0.104E-07
   0.143E-04 -.105E-01 -.103E-01   -.277E-04 0.205E-01 0.202E-01   0.424E-21 0.551E-20 0.318E-19   0.104E-07 0.313E-06 0.321E-06
   0.105E-01 0.105E-01 -.103E-01   -.205E-01 -.205E-01 0.202E-01   0.764E-21 0.591E-21 -.508E-20   -.318E-06 -.318E-06 0.326E-06
   0.105E-01 -.105E-01 0.143E-04   -.205E-01 0.205E-01 -.277E-04   -.944E-22 -.119E-19 0.466E-20   -.313E-06 0.313E-06 0.104E-07
   -.105E-01 0.105E-01 0.143E-04   0.205E-01 -.205E-01 -.277E-04   -.118E-24 -.297E-20 -.237E-19   0.313E-06 -.313E-06 0.104E-07
   -.105E-01 -.105E-01 -.103E-01   0.205E-01 0.205E-01 0.202E-01   0.892E-25 0.551E-20 0.246E-19   0.313E-06 0.313E-06 0.321E-06
   -.143E-04 -.143E-04 0.105E-01   0.277E-04 0.277E-04 -.205E-01   0.169E-20 -.508E-20 -.159E-19   -.104E-07 -.104E-07 -.318E-06
   -.143E-04 0.103E-01 -.105E-01   0.277E-04 -.202E-01 0.205E-01   0.296E-20 -.127E-19 -.424E-21   -.104E-07 -.322E-06 0.313E-06
   0.103E-01 -.143E-04 -.105E-01   -.202E-01 0.277E-04 0.205E-01   0.111E-20 0.508E-20 -.119E-19   -.322E-06 -.104E-07 0.313E-06
   0.103E-01 0.103E-01 0.105E-01   -.202E-01 -.202E-01 -.205E-01   0.187E-21 -.936E-20 -.189E-19   -.322E-06 -.322E-06 -.313E-06
   -.103E-01 -.143E-04 0.105E-01   0.202E-01 0.277E-04 -.205E-01   0.294E-25 0.466E-20 0.151E-20   0.326E-06 -.104E-07 -.317E-06
   -.103E-01 0.103E-01 -.105E-01   0.202E-01 -.202E-01 0.205E-01   0.117E-24 0.110E-19 -.381E-20   0.321E-06 -.322E-06 0.313E-06
   0.143E-04 -.143E-04 -.105E-01   -.277E-04 0.277E-04 0.205E-01   -.169E-20 -.186E-19 -.364E-19   0.104E-07 -.104E-07 0.314E-06
   0.143E-04 0.103E-01 0.105E-01   -.277E-04 -.202E-01 -.205E-01   0.169E-20 0.105E-19 -.172E-19   0.104E-07 -.322E-06 -.313E-06
   0.105E-01 -.143E-04 0.105E-01   -.205E-01 0.277E-04 -.205E-01   0.874E-21 -.212E-20 0.252E-19   -.317E-06 -.104E-07 -.317E-06
   0.105E-01 0.103E-01 -.105E-01   -.205E-01 -.202E-01 0.205E-01   -.106E-20 0.971E-20 0.593E-20   -.313E-06 -.322E-06 0.313E-06
   -.105E-01 -.143E-04 -.105E-01   0.205E-01 0.277E-04 0.205E-01   0.147E-24 -.169E-20 -.322E-19   0.313E-06 -.104E-07 0.313E-06
   -.105E-01 0.103E-01 0.105E-01   0.205E-01 -.202E-01 -.205E-01   -.291E-27 -.893E-21 0.528E-20   0.313E-06 -.322E-06 -.313E-06
   -.143E-04 -.103E-01 0.105E-01   0.277E-04 0.202E-01 -.205E-01   -.847E-21 0.466E-20 -.311E-19   -.104E-07 0.326E-06 -.317E-06
   -.143E-04 0.143E-04 -.105E-01   0.277E-04 -.277E-04 0.205E-01   0.424E-21 -.974E-20 -.203E-19   -.104E-07 0.104E-07 0.314E-06
   0.103E-01 -.103E-01 -.105E-01   -.202E-01 0.202E-01 0.205E-01   -.230E-20 -.123E-19 -.254E-20   -.322E-06 0.321E-06 0.313E-06
   0.103E-01 0.143E-04 0.105E-01   -.202E-01 -.277E-04 -.205E-01   0.109E-20 -.889E-20 0.125E-19   -.322E-06 0.104E-07 -.313E-06
   -.103E-01 -.103E-01 0.105E-01   0.202E-01 0.202E-01 -.205E-01   -.300E-25 0.119E-19 0.745E-20   0.326E-06 0.326E-06 -.318E-06
   -.103E-01 0.143E-04 -.105E-01   0.202E-01 -.277E-04 0.205E-01   0.147E-24 -.114E-19 0.678E-20   0.321E-06 0.104E-07 0.313E-06
   0.143E-04 -.103E-01 -.105E-01   -.277E-04 0.202E-01 0.205E-01   0.212E-20 0.106E-19 0.254E-20   0.104E-07 0.321E-06 0.313E-06
   0.143E-04 0.143E-04 0.105E-01   -.277E-04 -.277E-04 -.205E-01   -.169E-20 0.254E-20 -.193E-19   0.104E-07 0.104E-07 -.313E-06
   0.105E-01 -.103E-01 0.105E-01   -.205E-01 0.202E-01 -.205E-01   -.115E-20 -.191E-19 0.320E-19   -.318E-06 0.326E-06 -.318E-06
   0.105E-01 0.143E-04 -.105E-01   -.205E-01 -.277E-04 0.205E-01   0.157E-21 0.762E-20 0.237E-19   -.313E-06 0.104E-07 0.313E-06
   -.105E-01 -.103E-01 -.105E-01   0.205E-01 0.202E-01 0.205E-01   0.871E-25 -.254E-20 -.762E-20   0.313E-06 0.321E-06 0.313E-06
   -.105E-01 0.143E-04 0.105E-01   0.205E-01 -.277E-04 -.205E-01   0.298E-25 -.551E-20 0.193E-19   0.313E-06 0.104E-07 -.313E-06
   -.143E-04 0.105E-01 0.105E-01   0.277E-04 -.205E-01 -.205E-01   0.127E-20 -.399E-20 0.413E-19   -.104E-07 -.317E-06 -.317E-06
   -.143E-04 -.105E-01 -.105E-01   0.277E-04 0.205E-01 0.205E-01   0.339E-20 0.974E-20 -.309E-19   -.104E-07 0.313E-06 0.313E-06
   0.103E-01 0.105E-01 -.105E-01   -.202E-01 -.205E-01 0.205E-01   0.654E-21 0.678E-20 0.182E-19   -.322E-06 -.313E-06 0.313E-06
   0.103E-01 -.105E-01 0.105E-01   -.202E-01 0.205E-01 -.205E-01   0.738E-21 0.424E-21 -.345E-19   -.322E-06 0.313E-06 -.313E-06
   -.103E-01 0.105E-01 0.105E-01   0.202E-01 -.205E-01 -.205E-01   -.231E-28 -.272E-20 0.108E-19   0.326E-06 -.318E-06 -.318E-06
   -.103E-01 -.105E-01 -.105E-01   0.202E-01 0.205E-01 0.205E-01   0.876E-25 -.254E-20 -.102E-19   0.321E-06 0.313E-06 0.313E-06
   0.143E-04 0.105E-01 -.105E-01   -.277E-04 -.205E-01 0.205E-01   -.127E-20 -.305E-19 0.169E-20   0.104E-07 -.313E-06 0.313E-06
   0.143E-04 -.105E-01 0.105E-01   -.277E-04 0.205E-01 -.205E-01   -.424E-21 0.424E-21 -.743E-20   0.104E-07 0.313E-06 -.313E-06
   0.105E-01 0.105E-01 0.105E-01   -.205E-01 -.205E-01 -.205E-01   0.738E-21 0.744E-20 0.257E-19   -.318E-06 -.318E-06 -.318E-06
   0.105E-01 -.105E-01 -.105E-01   -.205E-01 0.205E-01 0.205E-01   -.304E-20 -.208E-19 0.635E-20   -.313E-06 0.313E-06 0.313E-06
   -.105E-01 0.105E-01 -.105E-01   0.205E-01 -.205E-01 0.205E-01   0.117E-24 -.338E-20 0.284E-19   0.313E-06 -.313E-06 0.313E-06
   -.105E-01 -.105E-01 0.105E-01   0.205E-01 0.205E-01 -.205E-01   -.297E-25 0.339E-20 -.193E-19   0.313E-06 0.313E-06 -.313E-06
 -----------------------------------------------------------------------------------------------
   0.519E-08 0.522E-08 0.513E-08   -.446E-12 0.172E-11 0.229E-11   0.697E-21 -.433E-19 -.120E-18   -.466E-08 -.466E-08 -.467E-08
 
 
 POSITION                                       TOTAL-FORCE (eV/Angst)
 -----------------------------------------------------------------------------------
      0.00000     -0.00000     -0.00000         0.000000     -0.000000      0.000000
      0.00000      1.72370      1.72370        -0.000000      0.000000     -0.000000
      1.72370      0.00000      1.72370         0.000000      0.000000      0.000000
      1.72370      1.72370     -0.00000         0.000000     -0.000000      0.000000
      3.44733     -0.00000     -0.00000         0.000000     -0.000000     -0.000000
      3.44733      1.72370      1.72370         0.000000      0.000000     -0.000000
      5.17104      0.00000      1.72370         0.000000      0.000000     -0.000000
      5.17104      1.72370     -0.00000         0.000000     -0.000000     -0.000000
      6.89474     -0.00000     -0.00000        -0.000000      0.000000      0.000000
      6.89474      1.72370      1.72370        -0.000000      0.000000      0.000000
      8.61837      0.00000      1.72370        -0.000000     -0.000000      0.000000
      8.61837      1.72370     -0.00000        -0.000000      0.000000      0.000000
     -0.00000      3.44733     -0.00000        -0.000000      0.000000      0.000000
      0.00000      5.17104      1.72370         0.000000     -0.000000      0.000000
      1.72370      3.44733      1.72370        -0.000000      0.000000      0.000000
      1.72370      5.17104     -0.00000         0.000000     -0.000000     -0.000000
      3.44733      3.44733     -0.00000         0.000000      0.000000      0.000000
      3.44733      5.17104      1.72370         0.000000      0.000000     -0.000000
      5.17104      3.44733      1.72370        -0.000000     -0.000000      0.000000
      5.17104      5.17104     -0.00000         0.000000      0.000000     -0.000000
      6.89474      3.44733     -0.00000         0.000000      0.000000     -0.000000
      6.89474      5.17104      1.72370        -0.000000      0.000000     -0.000000
      8.61837      3.44733      1.72370         0.000000     -0.000000     -0.000000
      8.61837      5.17104     -0.00000         0.000000      0.000000     -0.000000
     -0.00000      6.89474     -0.00000        -0.000000      0.000000      0.000000
     -0.00000      8.61837      1.72370        -0.000000      0.000000     -0.000000
      1.72370      6.89474      1.72370        -0.000000      0.000000      0.000000
      1.72370      8.61837     -0.00000         0.000000     -0.000000      0.000000
      3.44733      6.89474     -0.00000         0.000000      0.000000      0.000000
      3.44733      8.61837      1.72370         0.000000     -0.000000      0.000000
      5.17104      6.89474      1.72370        -0.000000      0.000000     -0.000000
      5.17104      8.61837     -0.00000         0.000000     -0.000000     -0.000000
      6.89474      6.89474     -0.00000        -0.000000     -0.000000     -0.000000
      6.89474      8.61837      1.72370        -0.000000     -0.000000      0.000000
      8.61837      6.89474      1.72370         0.000000      0.000000     -0.000000
      8.61837      8.61837     -0.00000        -0.000000     -0.000000     -0.000000
      0.00000      0.00000      3.44733         0.000000     -0.000000     -0.000000
      0.00000      1.72370      5.17104         0.000000      0.000000      0.000000
      1.72370      0.00000      5.17104         0.000000      0.000000      0.000000
      1.72370      1.72370      3.44733         0.000000     -0.000000     -0.000000
      3.44733      0.00000      3.44733         0.000000      0.000000     -0.000000
      3.44733      1.72370      5.17104         0.000000     -0.000000     -0.000000
      5.17104      0.00000      5.17104         0.000000      0.000000      0.000000
      5.17104      1.72370      3.44733         0.000000     -0.000000     -0.000000
      6.89474      0.00000      3.44733        -0.000000      0.000000     -0.000000
      6.89474      1.72370      5.17104         0.000000      0.000000     -0.000000
      8.61837      0.00000      5.17104         0.000000     -0.000000      0.000000
      8.61837      1.72370      3.44733         0.000000     -0.000000     -0.000000
      0.00000      3.44733      3.44733        -0.000000      0.000000     -0.000000
      0.00000      5.17104      5.17104         0.000000     -0.000000      0.000000
      1.72370      3.44733      5.17104         0.000000      0.000000     -0.000000
      1.72370      5.17104      3.44733         0.000000     -0.000000     -0.000000
      3.44733      3.44733      3.44733         0.000000     -0.000000     -0.000000
      3.44733      5.17104      5.17104        -0.000000     -0.000000     -0.000000
      5.17104      3.44733      5.17104         0.000000     -0.000000      0.000000
      5.17104      5.17104      3.44733         0.000000     -0.000000      0.000000
      6.89474      3.44733      3.44733        -0.000000      0.000000      0.000000
      6.89474      5.17104      5.17104         0.000000      0.000000      0.000000
      8.61837      3.44733      5.17104         0.000000      0.000000     -0.000000
      8.61837      5.17104      3.44733         0.000000     -0.000000     -0.000000
      0.00000      6.89474      3.44733         0.000000     -0.000000      0.000000
      0.00000      8.61837      5.17104         0.000000     -0.000000     -0.000000
      1.72370      6.89474      5.17104        -0.000000      0.000000     -0.000000
      1.72370      8.61837      3.44733         0.000000     -0.000000     -0.000000
      3.44733      6.89474      3.44733        -0.000000      0.000000     -0.000000
      3.44733      8.61837      5.17104        -0.000000     -0.000000      0.000000
      5.17104      6.89474      5.17104        -0.000000      0.000000     -0.000000
      5.17104      8.61837      3.44733        -0.000000      0.000000      0.000000
      6.89474      6.89474      3.44733        -0.000000     -0.000000      0.000000
      6.89474      8.61837      5.17104        -0.000000     -0.000000     -0.000000
      8.61837      6.89474      5.17104         0.000000      0.000000      0.000000
      8.61837      8.61837      3.44733         0.000000      0.000000      0.000000
      0.00000      0.00000      6.89474         0.000000     -0.000000      0.000000
      0.00000      1.72370      8.61837        -0.000000      0.000000     -0.000000
      1.72370      0.00000      8.61837         0.000000     -0.000000      0.000000
      1.72370      1.72370      6.89474        -0.000000     -0.000000      0.000000
      3.44733      0.00000      6.89474         0.000000     -0.000000      0.000000
      3.44733      1.72370      8.61837         0.000000     -0.000000      0.000000
      5.17104      0.00000      8.61837         0.000000     -0.000000     -0.000000
      5.17104      1.72370      6.89474        -0.000000      0.000000     -0.000000
      6.89474      0.00000      6.89474         0.000000     -0.000000      0.000000
      6.89474      1.72370      8.61837        -0.000000      0.000000      0.000000
      8.61837      0.00000      8.61837        -0.000000     -0.000000     -0.000000
      8.61837      1.72370      6.89474         0.000000     -0.000000      0.000000
      0.00000      3.44733      6.89474         0.000000      0.000000      0.000000
      0.00000      5.17104      8.61837         0.000000     -0.000000     -0.000000
      1.72370      3.44733      8.61837        -0.000000      0.000000      0.000000
      1.72370      5.17104      6.89474        -0.000000     -0.000000      0.000000
      3.44733      3.44733      6.89474        -0.000000     -0.000000      0.000000
      3.44733      5.17104      8.61837        -0.000000     -0.000000      0.000000
      5.17104      3.44733      8.61837        -0.000000     -0.000000     -0.000000
      5.17104      5.17104      6.89474        -0.000000     -0.000000     -0.000000
      6.89474      3.44733      6.89474         0.000000      0.000000     -0.000000
      6.89474      5.17104      8.61837         0.000000      0.000000      0.000000
      8.61837      3.44733      8.61837         0.000000      0.000000     -0.000000
      8.61837      5.17104      6.89474         0.000000     -0.000000     -0.000000
      0.00000      6.89474      6.89474         0.000000      0.000000     -0.000000
      0.00000      8.61837      8.61837         0.000000     -0.000000      0.000000
      1.72370      6.89474      8.61837        -0.000000      0.000000      0.000000
      1.72370      8.61837      6.89474        -0.000000      0.000000      0.000000
      3.44733      6.89474      6.89474         0.000000      0.000000     -0.000000
      3.44733      8.61837      8.61837         0.000000     -0.000000     -0.000000
      5.17104      6.89474      8.61837        -0.000000      0.000000      0.000000
      5.17104      8.61837      6.89474        -0.000000      0.000000      0.000000
      6.89474      6.89474      6.89474        -0.000000      0.000000      0.000000
      6.89474      8.61837      8.61837         0.000000     -0.000000      0.000000
      8.61837      6.89474      8.61837         0.000000      0.000000     -0.000000
      8.61837      8.61837      6.89474         0.000000      0.000000     -0.000000
 -----------------------------------------------------------------------------------
    total drift:                                0.000000      0.000000      0.000000


--------------------------------------------------------------------------------------------------------



  FREE ENERGIE OF THE ION-ELECTRON SYSTEM (eV)
  ---------------------------------------------------
  free  energy   TOTEN  =      -879.55408714 eV

  energy  without entropy=     -879.48398206  energy(sigma->0) =     -879.53071878
 
 d Force = 0.0000000E+00[ 0.000E+00, 0.000E+00]  d Energy = 0.8830178E-02-0.883E-02
 d Force = 0.0000000E+00[ 0.000E+00, 0.000E+00]  d Ewald  = 0.6887863E+02-0.689E+02


--------------------------------------------------------------------------------------------------------


    POTLOK:  cpu time    0.2949: real time    0.2950


--------------------------------------------------------------------------------------------------------




--------------------------------------------------------------------------------------------------------


  
 reached required accuracy - stopping structural energy minimisation
     LOOP+:  cpu time  370.7892: real time  370.8322
    4ORBIT:  cpu time    0.0000: real time    0.0000

 total amount of memory used by VASP MPI-rank0   331653. kBytes
=======================================================================

   base      :      30000. kBytes
   nonlr-proj:      20636. kBytes
   fftplans  :      15560. kBytes
   grid      :      21835. kBytes
   one-center:        419. kBytes
   wavefun   :     243203. kBytes
 
  
  
 General timing and accounting informations for this job:
 ========================================================
  
                  Total CPU time used (sec):     2671.273
                            User time (sec):     2666.656
                          System time (sec):        4.617
                         Elapsed time (sec):     2671.713
  
                   Maximum memory used (kb):      389072.
                   Average memory used (kb):           0.
  
                          Minor page faults:       596228
                          Major page faults:            0
                 Voluntary context switches:          722
