<?xml version="1.0" encoding="ISO-8859-1"?>
<modeling>
 <generator>
  <i name="program" type="string">vasp </i>
  <i name="version" type="string">5.4.4.18Apr17-6-g9f103f2a35  </i>
  <i name="subversion" type="string">(build Aug 17 2017 06:00:38) complex            parallel </i>
  <i name="platform" type="string">LinuxIFC </i>
  <i name="date" type="string">2019 07 12 </i>
  <i name="time" type="string">15:11:17 </i>
 </generator>
 <incar>
  <i type="string" name="SYSTEM">Opt</i>
  <i type="int" name="ISTART">     0</i>
  <i type="string" name="PREC">normal</i>
  <i type="string" name="ALGO"> Fast</i>
  <i type="int" name="ISPIN">     1</i>
  <i type="int" name="ICHARG">     2</i>
  <i type="int" name="NELM">   400</i>
  <i type="int" name="IBRION">     2</i>
  <i name="EDIFF">      0.00000100</i>
  <i name="EDIFFG">     -0.01000000</i>
  <i type="int" name="NSW">   100</i>
  <i type="int" name="ISIF">     3</i>
  <i name="ENCUT">    800.00000000</i>
  <i type="int" name="NGX">    72</i>
  <i type="int" name="NGY">    72</i>
  <i type="int" name="NGZ">    72</i>
  <i name="POTIM">      0.50000000</i>
  <i type="string" name="LREAL">Auto</i>
  <i type="logical" name="LWAVE"> F  </i>
  <i type="logical" name="LCHARG"> F  </i>
  <v type="int" name="KPOINT_BSE">    -1     0     0     0</v>
  <i type="int" name="NELM">   400</i>
 </incar>
 <structure name="primitive_cell" >
  <crystal>
   <varray name="basis" >
    <v>       3.44492529       0.00000000       0.00000000 </v>
    <v>       0.00000000       3.44492529       0.00000000 </v>
    <v>       0.00000000       0.00000000       3.44492524 </v>
   </varray>
   <i name="volume">     40.88268566 </i>
   <varray name="rec_basis" >
    <v>       0.29028206       0.00000000       0.00000000 </v>
    <v>       0.00000000       0.29028206       0.00000000 </v>
    <v>       0.00000000       0.00000000       0.29028206 </v>
   </varray>
  </crystal>
  <varray name="positions" >
   <v>       0.00000000       0.00000000       0.00000000 </v>
   <v>       0.00000000      -0.49998976      -0.49998975 </v>
   <v>      -0.49998976       0.00000000      -0.49998975 </v>
   <v>      -0.49998976      -0.49998976       0.00000000 </v>
  </varray>
 </structure>
 <varray name="primitive_index" >
  <v type="int" >        1 </v>
  <v type="int" >        2 </v>
  <v type="int" >        3 </v>
  <v type="int" >        4 </v>
 </varray>
 <kpoints>
  <generation param="Monkhorst-Pack">
   <v type="int" name="divisions">       4        4        4 </v>
   <v name="usershift">      0.00000000       0.00000000       0.00000000 </v>
   <v name="genvec1">      0.25000000       0.00000000       0.00000000 </v>
   <v name="genvec2">      0.00000000       0.25000000       0.00000000 </v>
   <v name="genvec3">      0.00000000       0.00000000       0.25000000 </v>
   <v name="shift">      0.50000000       0.50000000       0.50000000 </v>
  </generation>
  <varray name="kpointlist" >
   <v>       0.12500000       0.12500000       0.12500000 </v>
   <v>       0.37500000       0.12500000       0.12500000 </v>
   <v>       0.37500000       0.37500000       0.12500000 </v>
   <v>       0.37500000       0.37500000       0.37500000 </v>
  </varray>
  <varray name="weights" >
   <v>       0.12500000 </v>
   <v>       0.37500000 </v>
   <v>       0.37500000 </v>
   <v>       0.12500000 </v>
  </varray>
 </kpoints>
 <parameters>
  <separator name="general" >
   <i type="string" name="SYSTEM">Opt</i>
   <i type="logical" name="LCOMPAT"> F  </i>
  </separator>
  <separator name="electronic" >
   <i type="string" name="PREC">normal</i>
   <i name="ENMAX">    800.00000000</i>
   <i name="ENAUG">    511.36800000</i>
   <i name="EDIFF">      0.00000100</i>
   <i type="int" name="IALGO">    68</i>
   <i type="int" name="IWAVPR">    11</i>
   <i type="int" name="NBANDS">   518</i>
   <i name="NELECT">    864.00000000</i>
   <i type="int" name="TURBO">     0</i>
   <i type="int" name="IRESTART">     0</i>
   <i type="int" name="NREBOOT">     0</i>
   <i type="int" name="NMIN">     0</i>
   <i name="EREF">      0.00000000</i>
   <separator name="electronic smearing" >
    <i type="int" name="ISMEAR">     1</i>
    <i name="SIGMA">      0.20000000</i>
    <i name="KSPACING">      0.50000000</i>
    <i type="logical" name="KGAMMA"> T  </i>
   </separator>
   <separator name="electronic projectors" >
    <i type="logical" name="LREAL"> T  </i>
    <v name="ROPT">     -0.00050000</v>
    <i type="int" name="LMAXPAW">  -100</i>
    <i type="int" name="LMAXMIX">     2</i>
    <i type="logical" name="NLSPLINE"> F  </i>
   </separator>
   <separator name="electronic startup" >
    <i type="int" name="ISTART">     0</i>
    <i type="int" name="ICHARG">     2</i>
    <i type="int" name="INIWAV">     1</i>
   </separator>
   <separator name="electronic spin" >
    <i type="int" name="ISPIN">     1</i>
    <i type="logical" name="LNONCOLLINEAR"> F  </i>
    <v name="MAGMOM">      1.00000000      1.00000000      1.00000000      1.00000000      1.00000000      1.00000000      1.00000000      1.00000000      1.00000000      1.00000000      1.00000000      1.00000000      1.00000000      1.00000000      1.00000000      1.00000000      1.00000000      1.00000000      1.00000000      1.00000000
      1.00000000      1.00000000      1.00000000      1.00000000      1.00000000      1.00000000      1.00000000      1.00000000      1.00000000      1.00000000      1.00000000      1.00000000      1.00000000      1.00000000      1.00000000      1.00000000      1.00000000      1.00000000      1.00000000      1.00000000
      1.00000000      1.00000000      1.00000000      1.00000000      1.00000000      1.00000000      1.00000000      1.00000000      1.00000000      1.00000000      1.00000000      1.00000000      1.00000000      1.00000000      1.00000000      1.00000000      1.00000000      1.00000000      1.00000000      1.00000000
      1.00000000      1.00000000      1.00000000      1.00000000      1.00000000      1.00000000      1.00000000      1.00000000      1.00000000      1.00000000      1.00000000      1.00000000      1.00000000      1.00000000      1.00000000      1.00000000      1.00000000      1.00000000      1.00000000      1.00000000
      1.00000000      1.00000000      1.00000000      1.00000000      1.00000000      1.00000000      1.00000000      1.00000000      1.00000000      1.00000000      1.00000000      1.00000000      1.00000000      1.00000000      1.00000000      1.00000000      1.00000000      1.00000000      1.00000000      1.00000000
      1.00000000      1.00000000      1.00000000      1.00000000      1.00000000      1.00000000      1.00000000      1.00000000</v>
    <i name="NUPDOWN">     -1.00000000</i>
    <i type="logical" name="LSORBIT"> F  </i>
    <v name="SAXIS">      0.00000000      0.00000000      1.00000000</v>
    <i type="logical" name="LSPIRAL"> F  </i>
    <v name="QSPIRAL">      0.00000000      0.00000000      0.00000000</v>
    <i type="logical" name="LZEROZ"> F  </i>
   </separator>
   <separator name="electronic exchange-correlation" >
    <i type="logical" name="LASPH"> F  </i>
    <i type="logical" name="LMETAGGA"> F  </i>
   </separator>
   <separator name="electronic convergence" >
    <i type="int" name="NELM">   400</i>
    <i type="int" name="NELMDL">    -5</i>
    <i type="int" name="NELMIN">     2</i>
    <i name="ENINI">    800.00000000</i>
    <separator name="electronic convergence detail" >
     <i type="logical" name="LDIAG"> T  </i>
     <i type="logical" name="LSUBROT"> F  </i>
     <i name="WEIMIN">      0.00100000</i>
     <i name="EBREAK">      0.00000000</i>
     <i name="DEPER">      0.30000000</i>
     <i type="int" name="NRMM">     4</i>
     <i name="TIME">      0.40000000</i>
    </separator>
   </separator>
   <separator name="electronic mixer" >
    <i name="AMIX">      0.40000000</i>
    <i name="BMIX">      1.00000000</i>
    <i name="AMIN">      0.10000000</i>
    <i name="AMIX_MAG">      1.60000000</i>
    <i name="BMIX_MAG">      1.00000000</i>
    <separator name="electronic mixer details" >
     <i type="int" name="IMIX">     4</i>
     <i type="logical" name="MIXFIRST"> F  </i>
     <i type="int" name="MAXMIX">   -45</i>
     <i name="WC">    100.00000000</i>
     <i type="int" name="INIMIX">     1</i>
     <i type="int" name="MIXPRE">     1</i>
     <i type="int" name="MREMOVE">     5</i>
    </separator>
   </separator>
   <separator name="electronic dipolcorrection" >
    <i type="logical" name="LDIPOL"> F  </i>
    <i type="logical" name="LMONO"> F  </i>
    <i type="int" name="IDIPOL">     0</i>
    <i name="EPSILON">      1.00000000</i>
    <v name="DIPOL">   -100.00000000   -100.00000000   -100.00000000</v>
    <i name="EFIELD">      0.00000000</i>
   </separator>
  </separator>
  <separator name="grids" >
   <i type="int" name="NGX">    72</i>
   <i type="int" name="NGY">    72</i>
   <i type="int" name="NGZ">    72</i>
   <i type="int" name="NGXF">   144</i>
   <i type="int" name="NGYF">   144</i>
   <i type="int" name="NGZF">   144</i>
   <i type="logical" name="ADDGRID"> F  </i>
  </separator>
  <separator name="ionic" >
   <i type="int" name="NSW">   100</i>
   <i type="int" name="IBRION">     2</i>
   <i type="int" name="MDALGO">     0</i>
   <i type="int" name="ISIF">     3</i>
   <i name="PSTRESS">      0.00000000</i>
   <i name="EDIFFG">     -0.01000000</i>
   <i type="int" name="NFREE">     1</i>
   <i name="POTIM">      0.50000000</i>
   <i name="SMASS">     -3.00000000</i>
   <i name="SCALEE">      1.00000000</i>
  </separator>
  <separator name="ionic md" >
   <i name="TEBEG">      0.00010000</i>
   <i name="TEEND">      0.00010000</i>
   <i type="int" name="NBLOCK">     1</i>
   <i type="int" name="KBLOCK">   100</i>
   <i type="int" name="NPACO">   256</i>
   <i name="APACO">     16.00000000</i>
  </separator>
  <separator name="symmetry" >
   <i type="int" name="ISYM">     2</i>
   <i name="SYMPREC">      0.00001000</i>
  </separator>
  <separator name="dos" >
   <i type="int" name="LORBIT">     0</i>
   <v name="RWIGS">     -1.00000000</v>
   <i type="int" name="NEDOS">   301</i>
   <i name="EMIN">     10.00000000</i>
   <i name="EMAX">    -10.00000000</i>
   <i name="EFERMI">      0.00000000</i>
  </separator>
  <separator name="writing" >
   <i type="int" name="NWRITE">     2</i>
   <i type="logical" name="LWAVE"> F  </i>
   <i type="logical" name="LDOWNSAMPLE"> F  </i>
   <i type="logical" name="LCHARG"> F  </i>
   <i type="logical" name="LPARD"> F  </i>
   <i type="logical" name="LVTOT"> F  </i>
   <i type="logical" name="LVHAR"> F  </i>
   <i type="logical" name="LELF"> F  </i>
   <i type="logical" name="LOPTICS"> F  </i>
   <v name="STM">      0.00000000      0.00000000      0.00000000      0.00000000      0.00000000      0.00000000      0.00000000</v>
  </separator>
  <separator name="performance" >
   <i type="int" name="NPAR">     2</i>
   <i type="int" name="NSIM">     4</i>
   <i type="int" name="NBLK">    -1</i>
   <i type="logical" name="LPLANE"> T  </i>
   <i type="logical" name="LSCALAPACK"> T  </i>
   <i type="logical" name="LSCAAWARE"> F  </i>
   <i type="logical" name="LSCALU"> F  </i>
   <i type="logical" name="LASYNC"> F  </i>
   <i type="logical" name="LORBITALREAL"> F  </i>
  </separator>
  <separator name="miscellaneous" >
   <i type="int" name="IDIOT">     3</i>
   <i type="int" name="ISPECIAL">     0</i>
   <i type="logical" name="LMUSIC"> F  </i>
   <v name="POMASS">     55.84700000</v>
   <v name="DARWINR">      0.00000000</v>
   <v name="DARWINV">      1.00000000</v>
   <i type="logical" name="LCORR"> T  </i>
  </separator>
  <i type="logical" name="GGA_COMPAT"> T  </i>
  <i type="logical" name="LBERRY"> F  </i>
  <i type="int" name="ICORELEVEL">     0</i>
  <i type="logical" name="LDAU"> F  </i>
  <i type="int" name="I_CONSTRAINED_M">     0</i>
  <separator name="electronic exchange-correlation" >
   <i type="string" name="GGA">--</i>
   <i type="int" name="VOSKOWN">     0</i>
   <i type="logical" name="LHFCALC"> F  </i>
   <i type="string" name="PRECFOCK"></i>
   <i type="logical" name="LSYMGRAD"> F  </i>
   <i type="logical" name="LHFONE"> F  </i>
   <i type="logical" name="LRHFCALC"> F  </i>
   <i type="logical" name="LTHOMAS"> F  </i>
   <i type="logical" name="LMODELHF"> F  </i>
   <i name="ENCUT4O">     -1.00000000</i>
   <i type="int" name="EXXOEP">     0</i>
   <i type="int" name="FOURORBIT">     0</i>
   <i name="AEXX">      0.00000000</i>
   <i name="HFALPHA">      0.00000000</i>
   <i name="MCALPHA">      0.00000000</i>
   <i name="ALDAX">      1.00000000</i>
   <i name="AGGAX">      1.00000000</i>
   <i name="ALDAC">      1.00000000</i>
   <i name="AGGAC">      1.00000000</i>
   <i type="int" name="NKREDX">     1</i>
   <i type="int" name="NKREDY">     1</i>
   <i type="int" name="NKREDZ">     1</i>
   <i type="logical" name="SHIFTRED"> F  </i>
   <i type="logical" name="ODDONLY"> F  </i>
   <i type="logical" name="EVENONLY"> F  </i>
   <i type="int" name="LMAXFOCK">     0</i>
   <i type="int" name="NMAXFOCKAE">     0</i>
   <i type="logical" name="LFOCKAEDFT"> F  </i>
   <i name="HFSCREEN">      0.00000000</i>
   <i name="HFSCREENC">      0.00000000</i>
   <i type="int" name="NBANDSGWLOW">     0</i>
  </separator>
  <separator name="vdW DFT" >
   <i type="logical" name="LUSE_VDW"> F  </i>
   <i name="Zab_VDW">     -0.84910000</i>
   <i name="PARAM1">      0.12340000</i>
   <i name="PARAM2">      1.00000000</i>
   <i name="PARAM3">      0.00000000</i>
  </separator>
  <separator name="model GW" >
   <i type="int" name="MODEL_GW">     0</i>
   <i name="MODEL_EPS0">      6.13252964</i>
   <i name="MODEL_ALPHA">      1.00000000</i>
  </separator>
  <separator name="linear response parameters" >
   <i type="logical" name="LEPSILON"> F  </i>
   <i type="logical" name="LRPA"> F  </i>
   <i type="logical" name="LNABLA"> F  </i>
   <i type="logical" name="LVEL"> F  </i>
   <i type="int" name="KINTER">     0</i>
   <i name="CSHIFT">      0.10000000</i>
   <i name="OMEGAMAX">     -1.00000000</i>
   <i name="DEG_THRESHOLD">      0.00200000</i>
   <i name="RTIME">     -0.10000000</i>
   <i name="WPLASMAI">      0.00000000</i>
   <v name="DFIELD">      0.00000000      0.00000000      0.00000000</v>
   <v name="WPLASMA">      0.00000000      0.00000000      0.00000000      0.00000000      0.00000000      0.00000000      0.00000000      0.00000000      0.00000000</v>
  </separator>
  <separator name="orbital magnetization" >
   <i type="logical" name="NUCIND"> F  </i>
   <v name="MAGPOS">      0.00000000      0.00000000      0.00000000</v>
   <i type="logical" name="LNICSALL"> T  </i>
   <i type="logical" name="ORBITALMAG"> F  </i>
   <i type="logical" name="LMAGBLOCH"> F  </i>
   <i type="logical" name="LCHIMAG"> F  </i>
   <i type="logical" name="LGAUGE"> T  </i>
   <i type="int" name="MAGATOM">     0</i>
   <v name="MAGDIPOL">      0.00000000      0.00000000      0.00000000</v>
   <v name="AVECCONST">      0.00000000      0.00000000      0.00000000</v>
  </separator>
  <separator name="response functions" >
   <i type="logical" name="LADDER"> F  </i>
   <i type="logical" name="LRPAFORCE"> F  </i>
   <i type="logical" name="LFXC"> F  </i>
   <i type="logical" name="LHARTREE"> T  </i>
   <i type="int" name="IBSE">     0</i>
   <v type="int" name="KPOINT">    -1     0     0     0</v>
   <i type="logical" name="LTCTE"> F  </i>
   <i type="logical" name="LTETE"> F  </i>
   <i type="logical" name="LTRIPLET"> F  </i>
   <i type="logical" name="LFXCEPS"> F  </i>
   <i type="logical" name="LFXHEG"> F  </i>
   <i type="int" name="NATURALO">     2</i>
   <i type="logical" name="L2ORDER"> F  </i>
   <i type="logical" name="LMP2LT"> F  </i>
   <i type="logical" name="LUSEW"> F  </i>
   <i name="ENCUTGW">     -2.00000000</i>
   <i name="ENCUTGWSOFT">     -2.00000000</i>
   <i name="ENCUTLF">     -1.00000000</i>
   <i type="int" name="LMAXMP2">    -1</i>
   <i name="SCISSOR">      0.00000000</i>
   <i type="int" name="NOMEGA">     0</i>
   <i type="int" name="NOMEGAR">     0</i>
   <i type="int" name="NBANDSGW">    -1</i>
   <i type="int" name="NBANDSO">    -1</i>
   <i type="int" name="NBANDSV">    -1</i>
   <i type="int" name="NELM">   400</i>
   <i type="int" name="NELMHF">     1</i>
   <i type="int" name="DIM">     3</i>
   <i type="int" name="ANTIRES">     0</i>
   <i name="OMEGAMAX">    -30.00000000</i>
   <i name="OMEGAMIN">    -30.00000000</i>
   <i name="OMEGATL">   -200.00000000</i>
   <i type="int" name="OMEGAGRID">   140</i>
   <i name="CSHIFT">     -0.10000000</i>
   <i type="logical" name="SELFENERGY"> F  </i>
   <i type="logical" name="LSPECTRAL"> F  </i>
   <i type="logical" name="LSPECTRALGW"> F  </i>
   <i type="logical" name="LSINGLES"> F  </i>
   <i type="logical" name="LFERMIGW"> F  </i>
   <i type="logical" name="ODDONLYGW"> F  </i>
   <i type="logical" name="EVENONLYGW"> F  </i>
   <i type="int" name="NKREDLFX">     1</i>
   <i type="int" name="NKREDLFY">     1</i>
   <i type="int" name="NKREDLFZ">     1</i>
   <i type="int" name="MAXMEM">  2800</i>
   <i type="int" name="TELESCOPE">     0</i>
   <i type="int" name="TAUPAR">     1</i>
   <i type="int" name="OMEGAPAR">    -1</i>
   <i name="LAMBDA">      1.00000000</i>
  </separator>
  <separator name="External order field" >
   <i name="OFIELD_KAPPA">      0.00000000</i>
   <v name="OFIELD_K">      0.00000000      0.00000000      0.00000000</v>
   <i name="OFIELD_Q6_NEAR">      0.00000000</i>
   <i name="OFIELD_Q6_FAR">      0.00000000</i>
   <i name="OFIELD_A">      0.00000000</i>
  </separator>
 </parameters>
 <atominfo>
  <atoms>     108 </atoms>
  <types>       1 </types>
  <array name="atoms" >
   <dimension dim="1">ion</dimension>
   <field type="string">element</field>
   <field type="int">atomtype</field>
   <set>
    <rc><c>Fe</c><c>   1</c></rc>
    <rc><c>Fe</c><c>   1</c></rc>
    <rc><c>Fe</c><c>   1</c></rc>
    <rc><c>Fe</c><c>   1</c></rc>
    <rc><c>Fe</c><c>   1</c></rc>
    <rc><c>Fe</c><c>   1</c></rc>
    <rc><c>Fe</c><c>   1</c></rc>
    <rc><c>Fe</c><c>   1</c></rc>
    <rc><c>Fe</c><c>   1</c></rc>
    <rc><c>Fe</c><c>   1</c></rc>
    <rc><c>Fe</c><c>   1</c></rc>
    <rc><c>Fe</c><c>   1</c></rc>
    <rc><c>Fe</c><c>   1</c></rc>
    <rc><c>Fe</c><c>   1</c></rc>
    <rc><c>Fe</c><c>   1</c></rc>
    <rc><c>Fe</c><c>   1</c></rc>
    <rc><c>Fe</c><c>   1</c></rc>
    <rc><c>Fe</c><c>   1</c></rc>
    <rc><c>Fe</c><c>   1</c></rc>
    <rc><c>Fe</c><c>   1</c></rc>
    <rc><c>Fe</c><c>   1</c></rc>
    <rc><c>Fe</c><c>   1</c></rc>
    <rc><c>Fe</c><c>   1</c></rc>
    <rc><c>Fe</c><c>   1</c></rc>
    <rc><c>Fe</c><c>   1</c></rc>
    <rc><c>Fe</c><c>   1</c></rc>
    <rc><c>Fe</c><c>   1</c></rc>
    <rc><c>Fe</c><c>   1</c></rc>
    <rc><c>Fe</c><c>   1</c></rc>
    <rc><c>Fe</c><c>   1</c></rc>
    <rc><c>Fe</c><c>   1</c></rc>
    <rc><c>Fe</c><c>   1</c></rc>
    <rc><c>Fe</c><c>   1</c></rc>
    <rc><c>Fe</c><c>   1</c></rc>
    <rc><c>Fe</c><c>   1</c></rc>
    <rc><c>Fe</c><c>   1</c></rc>
    <rc><c>Fe</c><c>   1</c></rc>
    <rc><c>Fe</c><c>   1</c></rc>
    <rc><c>Fe</c><c>   1</c></rc>
    <rc><c>Fe</c><c>   1</c></rc>
    <rc><c>Fe</c><c>   1</c></rc>
    <rc><c>Fe</c><c>   1</c></rc>
    <rc><c>Fe</c><c>   1</c></rc>
    <rc><c>Fe</c><c>   1</c></rc>
    <rc><c>Fe</c><c>   1</c></rc>
    <rc><c>Fe</c><c>   1</c></rc>
    <rc><c>Fe</c><c>   1</c></rc>
    <rc><c>Fe</c><c>   1</c></rc>
    <rc><c>Fe</c><c>   1</c></rc>
    <rc><c>Fe</c><c>   1</c></rc>
    <rc><c>Fe</c><c>   1</c></rc>
    <rc><c>Fe</c><c>   1</c></rc>
    <rc><c>Fe</c><c>   1</c></rc>
    <rc><c>Fe</c><c>   1</c></rc>
    <rc><c>Fe</c><c>   1</c></rc>
    <rc><c>Fe</c><c>   1</c></rc>
    <rc><c>Fe</c><c>   1</c></rc>
    <rc><c>Fe</c><c>   1</c></rc>
    <rc><c>Fe</c><c>   1</c></rc>
    <rc><c>Fe</c><c>   1</c></rc>
    <rc><c>Fe</c><c>   1</c></rc>
    <rc><c>Fe</c><c>   1</c></rc>
    <rc><c>Fe</c><c>   1</c></rc>
    <rc><c>Fe</c><c>   1</c></rc>
    <rc><c>Fe</c><c>   1</c></rc>
    <rc><c>Fe</c><c>   1</c></rc>
    <rc><c>Fe</c><c>   1</c></rc>
    <rc><c>Fe</c><c>   1</c></rc>
    <rc><c>Fe</c><c>   1</c></rc>
    <rc><c>Fe</c><c>   1</c></rc>
    <rc><c>Fe</c><c>   1</c></rc>
    <rc><c>Fe</c><c>   1</c></rc>
    <rc><c>Fe</c><c>   1</c></rc>
    <rc><c>Fe</c><c>   1</c></rc>
    <rc><c>Fe</c><c>   1</c></rc>
    <rc><c>Fe</c><c>   1</c></rc>
    <rc><c>Fe</c><c>   1</c></rc>
    <rc><c>Fe</c><c>   1</c></rc>
    <rc><c>Fe</c><c>   1</c></rc>
    <rc><c>Fe</c><c>   1</c></rc>
    <rc><c>Fe</c><c>   1</c></rc>
    <rc><c>Fe</c><c>   1</c></rc>
    <rc><c>Fe</c><c>   1</c></rc>
    <rc><c>Fe</c><c>   1</c></rc>
    <rc><c>Fe</c><c>   1</c></rc>
    <rc><c>Fe</c><c>   1</c></rc>
    <rc><c>Fe</c><c>   1</c></rc>
    <rc><c>Fe</c><c>   1</c></rc>
    <rc><c>Fe</c><c>   1</c></rc>
    <rc><c>Fe</c><c>   1</c></rc>
    <rc><c>Fe</c><c>   1</c></rc>
    <rc><c>Fe</c><c>   1</c></rc>
    <rc><c>Fe</c><c>   1</c></rc>
    <rc><c>Fe</c><c>   1</c></rc>
    <rc><c>Fe</c><c>   1</c></rc>
    <rc><c>Fe</c><c>   1</c></rc>
    <rc><c>Fe</c><c>   1</c></rc>
    <rc><c>Fe</c><c>   1</c></rc>
    <rc><c>Fe</c><c>   1</c></rc>
    <rc><c>Fe</c><c>   1</c></rc>
    <rc><c>Fe</c><c>   1</c></rc>
    <rc><c>Fe</c><c>   1</c></rc>
    <rc><c>Fe</c><c>   1</c></rc>
    <rc><c>Fe</c><c>   1</c></rc>
    <rc><c>Fe</c><c>   1</c></rc>
    <rc><c>Fe</c><c>   1</c></rc>
    <rc><c>Fe</c><c>   1</c></rc>
    <rc><c>Fe</c><c>   1</c></rc>
   </set>
  </array>
  <array name="atomtypes" >
   <dimension dim="1">type</dimension>
   <field type="int">atomspertype</field>
   <field type="string">element</field>
   <field>mass</field>
   <field>valence</field>
   <field type="string">pseudopotential</field>
   <set>
    <rc><c> 108</c><c>Fe</c><c>     55.84700000</c><c>      8.00000000</c><c> PAW_PBE Fe 06Sep2000                   </c></rc>
   </set>
  </array>
 </atominfo>
 <structure name="initialpos" >
  <crystal>
   <varray name="basis" >
    <v>      10.33484705       0.00000000       0.00000000 </v>
    <v>       0.00000000      10.33484705       0.00000000 </v>
    <v>       0.00000000       0.00000000      10.33484705 </v>
   </varray>
   <i name="volume">   1103.85533447 </i>
   <varray name="rec_basis" >
    <v>       0.09676002       0.00000000       0.00000000 </v>
    <v>       0.00000000       0.09676002       0.00000000 </v>
    <v>       0.00000000       0.00000000       0.09676002 </v>
   </varray>
  </crystal>
  <varray name="positions" >
   <v>       0.00000000       0.00000000       0.00000000 </v>
   <v>       0.00000000       0.16666893       0.16666893 </v>
   <v>       0.16666893       0.00000000       0.16666893 </v>
   <v>       0.16666893       0.16666893       0.00000000 </v>
   <v>       0.33333106       0.00000000       0.00000000 </v>
   <v>       0.33333107       0.16666893       0.16666893 </v>
   <v>       0.50000000       0.00000000       0.16666894 </v>
   <v>       0.50000000       0.16666894       0.00000000 </v>
   <v>       0.66666897       0.00000000       0.00000000 </v>
   <v>       0.66666896       0.16666893       0.16666893 </v>
   <v>       0.83333104       0.00000000       0.16666893 </v>
   <v>       0.83333104       0.16666893       0.00000000 </v>
   <v>       0.00000000       0.33333106       0.00000000 </v>
   <v>       0.00000000       0.50000000       0.16666894 </v>
   <v>       0.16666893       0.33333107       0.16666893 </v>
   <v>       0.16666894       0.50000000       0.00000000 </v>
   <v>       0.33333107       0.33333107       0.00000000 </v>
   <v>       0.33333107       0.50000000       0.16666893 </v>
   <v>       0.50000000       0.33333107       0.16666893 </v>
   <v>       0.50000000       0.50000000       0.00000000 </v>
   <v>       0.66666896       0.33333107       0.00000000 </v>
   <v>       0.66666896       0.50000000       0.16666893 </v>
   <v>       0.83333104       0.33333107       0.16666893 </v>
   <v>       0.83333103       0.50000000       0.00000000 </v>
   <v>       0.00000000       0.66666897       0.00000000 </v>
   <v>       0.00000000       0.83333104       0.16666893 </v>
   <v>       0.16666893       0.66666896       0.16666893 </v>
   <v>       0.16666893       0.83333104       0.00000000 </v>
   <v>       0.33333107       0.66666896       0.00000000 </v>
   <v>       0.33333107       0.83333104       0.16666893 </v>
   <v>       0.50000000       0.66666896       0.16666893 </v>
   <v>       0.50000000       0.83333103       0.00000000 </v>
   <v>       0.66666896       0.66666896       0.00000000 </v>
   <v>       0.66666896       0.83333104       0.16666893 </v>
   <v>       0.83333104       0.66666896       0.16666893 </v>
   <v>       0.83333104       0.83333104       0.00000000 </v>
   <v>       0.00000000       0.00000000       0.33333106 </v>
   <v>       0.00000000       0.16666894       0.50000000 </v>
   <v>       0.16666894       0.00000000       0.50000000 </v>
   <v>       0.16666893       0.16666893       0.33333107 </v>
   <v>       0.33333107       0.00000000       0.33333107 </v>
   <v>       0.33333107       0.16666893       0.50000000 </v>
   <v>       0.50000000       0.00000000       0.50000000 </v>
   <v>       0.50000000       0.16666893       0.33333107 </v>
   <v>       0.66666896       0.00000000       0.33333107 </v>
   <v>       0.66666896       0.16666893       0.50000000 </v>
   <v>       0.83333103       0.00000000       0.50000000 </v>
   <v>       0.83333104       0.16666893       0.33333107 </v>
   <v>       0.00000000       0.33333107       0.33333107 </v>
   <v>       0.00000000       0.50000000       0.50000000 </v>
   <v>       0.16666893       0.33333107       0.50000000 </v>
   <v>       0.16666893       0.50000000       0.33333107 </v>
   <v>       0.33333107       0.33333107       0.33333107 </v>
   <v>       0.33333106       0.50000000       0.50000000 </v>
   <v>       0.50000000       0.33333106       0.50000000 </v>
   <v>       0.50000000       0.50000000       0.33333106 </v>
   <v>       0.66666896       0.33333107       0.33333107 </v>
   <v>       0.66666897       0.50000000       0.50000000 </v>
   <v>       0.83333104       0.33333107       0.50000000 </v>
   <v>       0.83333104       0.50000000       0.33333107 </v>
   <v>       0.00000000       0.66666896       0.33333107 </v>
   <v>       0.00000000       0.83333103       0.50000000 </v>
   <v>       0.16666893       0.66666896       0.50000000 </v>
   <v>       0.16666893       0.83333104       0.33333107 </v>
   <v>       0.33333107       0.66666896       0.33333107 </v>
   <v>       0.33333107       0.83333104       0.50000000 </v>
   <v>       0.50000000       0.66666897       0.50000000 </v>
   <v>       0.50000000       0.83333104       0.33333107 </v>
   <v>       0.66666896       0.66666896       0.33333107 </v>
   <v>       0.66666896       0.83333104       0.50000000 </v>
   <v>       0.83333104       0.66666896       0.50000000 </v>
   <v>       0.83333104       0.83333104       0.33333107 </v>
   <v>       0.00000000       0.00000000       0.66666897 </v>
   <v>       0.00000000       0.16666893       0.83333104 </v>
   <v>       0.16666893       0.00000000       0.83333104 </v>
   <v>       0.16666893       0.16666893       0.66666896 </v>
   <v>       0.33333107       0.00000000       0.66666896 </v>
   <v>       0.33333107       0.16666893       0.83333104 </v>
   <v>       0.50000000       0.00000000       0.83333103 </v>
   <v>       0.50000000       0.16666893       0.66666896 </v>
   <v>       0.66666896       0.00000000       0.66666896 </v>
   <v>       0.66666896       0.16666893       0.83333104 </v>
   <v>       0.83333104       0.00000000       0.83333104 </v>
   <v>       0.83333104       0.16666893       0.66666896 </v>
   <v>       0.00000000       0.33333107       0.66666896 </v>
   <v>       0.00000000       0.50000000       0.83333103 </v>
   <v>       0.16666893       0.33333107       0.83333104 </v>
   <v>       0.16666893       0.50000000       0.66666896 </v>
   <v>       0.33333107       0.33333107       0.66666896 </v>
   <v>       0.33333107       0.50000000       0.83333104 </v>
   <v>       0.50000000       0.33333107       0.83333104 </v>
   <v>       0.50000000       0.50000000       0.66666897 </v>
   <v>       0.66666896       0.33333107       0.66666896 </v>
   <v>       0.66666896       0.50000000       0.83333104 </v>
   <v>       0.83333104       0.33333107       0.83333104 </v>
   <v>       0.83333104       0.50000000       0.66666896 </v>
   <v>       0.00000000       0.66666896       0.66666896 </v>
   <v>       0.00000000       0.83333104       0.83333104 </v>
   <v>       0.16666893       0.66666896       0.83333104 </v>
   <v>       0.16666893       0.83333104       0.66666896 </v>
   <v>       0.33333107       0.66666896       0.66666896 </v>
   <v>       0.33333107       0.83333104       0.83333104 </v>
   <v>       0.50000000       0.66666896       0.83333104 </v>
   <v>       0.50000000       0.83333104       0.66666896 </v>
   <v>       0.66666896       0.66666896       0.66666896 </v>
   <v>       0.66666896       0.83333104       0.83333104 </v>
   <v>       0.83333104       0.66666896       0.83333104 </v>
   <v>       0.83333104       0.83333104       0.66666896 </v>
  </varray>
 </structure>
 <calculation>
  <scstep>
   <time name="dav">   69.78   69.84</time>
   <time name="total">   70.18   70.23</time>
   <energy>
    <i name="alphaZ">   7300.31925852 </i>
    <i name="ewald"> -66232.83996889 </i>
    <i name="hartreedc"> -11197.02572337 </i>
    <i name="XCdc">    446.63038354 </i>
    <i name="pawpsdc">  51723.88885462 </i>
    <i name="pawaedc"> -52548.28121372 </i>
    <i name="eentropy">     -0.02193283 </i>
    <i name="bandstr">  16619.87626664 </i>
    <i name="atom">  64202.56598403 </i>
    <i name="e_fr_energy">  10315.11190855 </i>
    <i name="e_wo_entrp">  10315.13384138 </i>
    <i name="e_0_energy">  10315.11921949 </i>
   </energy>
  </scstep>
  <scstep>
   <time name="dav">   70.58   70.60</time>
   <time name="total">   70.58   70.60</time>
   <energy>
    <i name="e_fr_energy">    484.79163224 </i>
    <i name="e_wo_entrp">    484.80226327 </i>
    <i name="e_0_energy">    484.79517592 </i>
   </energy>
  </scstep>
  <scstep>
   <time name="dav">   70.27   70.29</time>
   <time name="total">   70.28   70.30</time>
   <energy>
    <i name="e_fr_energy">   -803.19779486 </i>
    <i name="e_wo_entrp">   -803.19267016 </i>
    <i name="e_0_energy">   -803.19608663 </i>
   </energy>
  </scstep>
  <scstep>
   <time name="dav">  115.98  116.02</time>
   <time name="total">  115.99  116.03</time>
   <energy>
    <i name="e_fr_energy">  -1025.12691905 </i>
    <i name="e_wo_entrp">  -1025.07769883 </i>
    <i name="e_0_energy">  -1025.11051231 </i>
   </energy>
  </scstep>
  <scstep>
   <time name="dav">  108.05  108.08</time>
   <time name="total">  110.77  110.80</time>
   <energy>
    <i name="e_fr_energy">  -1045.13828422 </i>
    <i name="e_wo_entrp">  -1045.03242196 </i>
    <i name="e_0_energy">  -1045.10299680 </i>
   </energy>
  </scstep>
  <scstep>
   <time name="diag">    8.74    8.75</time>
   <time name="diis">   31.39   31.40</time>
   <time name="orth">    2.57    2.57</time>
   <time name="total">   45.83   45.84</time>
   <energy>
    <i name="e_fr_energy">   -877.12346930 </i>
    <i name="e_wo_entrp">   -877.06726047 </i>
    <i name="e_0_energy">   -877.10473303 </i>
   </energy>
  </scstep>
  <scstep>
   <time name="diag">    8.78    8.78</time>
   <time name="diis">   34.97   34.98</time>
   <time name="orth">    2.59    2.59</time>
   <time name="total">   49.44   49.46</time>
   <energy>
    <i name="e_fr_energy">   -880.25127908 </i>
    <i name="e_wo_entrp">   -880.10227346 </i>
    <i name="e_0_energy">   -880.20161054 </i>
   </energy>
  </scstep>
  <scstep>
   <time name="diag">    9.31    9.31</time>
   <time name="diis">   34.55   34.56</time>
   <time name="orth">    2.79    2.79</time>
   <time name="total">   50.05   50.07</time>
   <energy>
    <i name="e_fr_energy">   -880.34063502 </i>
    <i name="e_wo_entrp">   -880.21877535 </i>
    <i name="e_0_energy">   -880.30001513 </i>
   </energy>
  </scstep>
  <scstep>
   <time name="diag">    9.35    9.35</time>
   <time name="diis">   39.36   39.36</time>
   <time name="orth">    2.81    2.81</time>
   <time name="total">   54.99   55.00</time>
   <energy>
    <i name="e_fr_energy">   -879.65854595 </i>
    <i name="e_wo_entrp">   -879.58340020 </i>
    <i name="e_0_energy">   -879.63349737 </i>
   </energy>
  </scstep>
  <scstep>
   <time name="diag">    8.98    8.99</time>
   <time name="diis">   45.65   45.65</time>
   <time name="orth">    2.75    2.75</time>
   <time name="total">   60.66   60.68</time>
   <energy>
    <i name="e_fr_energy">   -879.54157398 </i>
    <i name="e_wo_entrp">   -879.45902060 </i>
    <i name="e_0_energy">   -879.51405618 </i>
   </energy>
  </scstep>
  <scstep>
   <time name="diag">    8.86    8.86</time>
   <time name="diis">   47.51   47.51</time>
   <time name="orth">    2.83    2.83</time>
   <time name="total">   62.63   62.63</time>
   <energy>
    <i name="e_fr_energy">   -879.55487989 </i>
    <i name="e_wo_entrp">   -879.47445425 </i>
    <i name="e_0_energy">   -879.52807134 </i>
   </energy>
  </scstep>
  <scstep>
   <time name="diag">    9.36    9.36</time>
   <time name="diis">   37.24   37.24</time>
   <time name="orth">    2.86    2.86</time>
   <time name="total">   52.74   52.74</time>
   <energy>
    <i name="e_fr_energy">   -879.54915027 </i>
    <i name="e_wo_entrp">   -879.47234313 </i>
    <i name="e_0_energy">   -879.52354789 </i>
   </energy>
  </scstep>
  <scstep>
   <time name="diag">    8.78    8.78</time>
   <time name="diis">   49.08   49.09</time>
   <time name="orth">    2.74    2.74</time>
   <time name="total">   64.01   64.02</time>
   <energy>
    <i name="e_fr_energy">   -879.55019376 </i>
    <i name="e_wo_entrp">   -879.47472737 </i>
    <i name="e_0_energy">   -879.52503829 </i>
   </energy>
  </scstep>
  <scstep>
   <time name="diag">    8.82    8.83</time>
   <time name="diis">   41.24   41.25</time>
   <time name="orth">    2.66    2.66</time>
   <time name="total">   55.86   55.87</time>
   <energy>
    <i name="e_fr_energy">   -879.55021916 </i>
    <i name="e_wo_entrp">   -879.47500785 </i>
    <i name="e_0_energy">   -879.52514872 </i>
   </energy>
  </scstep>
  <scstep>
   <time name="diag">    8.99    8.99</time>
   <time name="diis">   50.67   50.67</time>
   <time name="orth">    2.64    2.64</time>
   <time name="total">   65.34   65.34</time>
   <energy>
    <i name="e_fr_energy">   -879.55022017 </i>
    <i name="e_wo_entrp">   -879.47548603 </i>
    <i name="e_0_energy">   -879.52530879 </i>
   </energy>
  </scstep>
  <scstep>
   <time name="diag">    8.01    8.01</time>
   <time name="diis">   26.64   26.64</time>
   <time name="orth">    2.39    2.39</time>
   <time name="total">   39.72   39.73</time>
   <energy>
    <i name="e_fr_energy">   -879.55019292 </i>
    <i name="e_wo_entrp">   -879.47578860 </i>
    <i name="e_0_energy">   -879.52539148 </i>
   </energy>
  </scstep>
  <scstep>
   <time name="diag">    7.41    7.41</time>
   <time name="diis">   17.12   17.12</time>
   <time name="orth">    2.37    2.37</time>
   <time name="total">   29.60   29.60</time>
   <energy>
    <i name="e_fr_energy">   -879.55014665 </i>
    <i name="e_wo_entrp">   -879.47620902 </i>
    <i name="e_0_energy">   -879.52550077 </i>
   </energy>
  </scstep>
  <scstep>
   <time name="diag">    7.39    7.39</time>
   <time name="diis">   14.75   14.75</time>
   <time name="orth">    2.38    2.38</time>
   <time name="total">   27.22   27.22</time>
   <energy>
    <i name="e_fr_energy">   -879.55012584 </i>
    <i name="e_wo_entrp">   -879.47642232 </i>
    <i name="e_0_energy">   -879.52555800 </i>
   </energy>
  </scstep>
  <scstep>
   <time name="diag">    7.19    7.19</time>
   <time name="diis">   14.46   14.46</time>
   <time name="orth">    2.38    2.38</time>
   <time name="total">   26.73   26.73</time>
   <energy>
    <i name="e_fr_energy">   -879.55011192 </i>
    <i name="e_wo_entrp">   -879.47659763 </i>
    <i name="e_0_energy">   -879.52560716 </i>
   </energy>
  </scstep>
  <scstep>
   <time name="diag">    6.97    6.97</time>
   <time name="diis">   14.42   14.42</time>
   <time name="orth">    2.36    2.36</time>
   <time name="total">   26.30   26.30</time>
   <energy>
    <i name="e_fr_energy">   -879.55009650 </i>
    <i name="e_wo_entrp">   -879.47677723 </i>
    <i name="e_0_energy">   -879.52565674 </i>
   </energy>
  </scstep>
  <scstep>
   <time name="diag">    7.05    7.05</time>
   <time name="diis">   14.18   14.18</time>
   <time name="orth">    2.29    2.29</time>
   <time name="total">   26.11   26.11</time>
   <energy>
    <i name="e_fr_energy">   -879.55008520 </i>
    <i name="e_wo_entrp">   -879.47692030 </i>
    <i name="e_0_energy">   -879.52569690 </i>
   </energy>
  </scstep>
  <scstep>
   <time name="diag">    7.24    7.24</time>
   <time name="diis">   13.56   13.57</time>
   <time name="orth">    2.30    2.30</time>
   <time name="total">   25.71   25.71</time>
   <energy>
    <i name="e_fr_energy">   -879.55006659 </i>
    <i name="e_wo_entrp">   -879.47713383 </i>
    <i name="e_0_energy">   -879.52575567 </i>
   </energy>
  </scstep>
  <scstep>
   <time name="diag">    7.38    7.38</time>
   <time name="diis">   13.07   13.07</time>
   <time name="orth">    2.35    2.35</time>
   <time name="total">   25.49   25.49</time>
   <energy>
    <i name="e_fr_energy">   -879.55005662 </i>
    <i name="e_wo_entrp">   -879.47725775 </i>
    <i name="e_0_energy">   -879.52579033 </i>
   </energy>
  </scstep>
  <scstep>
   <time name="diag">    7.25    7.25</time>
   <time name="diis">   12.89   12.89</time>
   <time name="orth">    2.35    2.35</time>
   <time name="total">   25.20   25.20</time>
   <energy>
    <i name="e_fr_energy">   -879.55004599 </i>
    <i name="e_wo_entrp">   -879.47738690 </i>
    <i name="e_0_energy">   -879.52582629 </i>
   </energy>
  </scstep>
  <scstep>
   <time name="diag">    7.08    7.08</time>
   <time name="diis">   12.52   12.52</time>
   <time name="orth">    2.36    2.36</time>
   <time name="total">   24.52   24.53</time>
   <energy>
    <i name="e_fr_energy">   -879.55003843 </i>
    <i name="e_wo_entrp">   -879.47748222 </i>
    <i name="e_0_energy">   -879.52585303 </i>
   </energy>
  </scstep>
  <scstep>
   <time name="diag">    7.08    7.08</time>
   <time name="diis">   12.56   12.56</time>
   <time name="orth">    2.29    2.29</time>
   <time name="total">   24.50   24.50</time>
   <energy>
    <i name="e_fr_energy">   -879.55003227 </i>
    <i name="e_wo_entrp">   -879.47756316 </i>
    <i name="e_0_energy">   -879.52587590 </i>
   </energy>
  </scstep>
  <scstep>
   <time name="diag">    7.18    7.18</time>
   <time name="diis">   11.71   11.71</time>
   <time name="orth">    2.30    2.30</time>
   <time name="total">   23.78   23.78</time>
   <energy>
    <i name="e_fr_energy">   -879.55002690 </i>
    <i name="e_wo_entrp">   -879.47763408 </i>
    <i name="e_0_energy">   -879.52589596 </i>
   </energy>
  </scstep>
  <scstep>
   <time name="diag">    7.28    7.28</time>
   <time name="diis">   10.98   10.98</time>
   <time name="orth">    2.30    2.30</time>
   <time name="total">   23.15   23.15</time>
   <energy>
    <i name="e_fr_energy">   -879.55002192 </i>
    <i name="e_wo_entrp">   -879.47770032 </i>
    <i name="e_0_energy">   -879.52591472 </i>
   </energy>
  </scstep>
  <scstep>
   <time name="diag">    7.36    7.36</time>
   <time name="diis">   10.71   10.71</time>
   <time name="orth">    2.30    2.30</time>
   <time name="total">   23.08   23.08</time>
   <energy>
    <i name="e_fr_energy">   -879.55001738 </i>
    <i name="e_wo_entrp">   -879.47776065 </i>
    <i name="e_0_energy">   -879.52593181 </i>
   </energy>
  </scstep>
  <scstep>
   <time name="diag">    7.31    7.31</time>
   <time name="diis">   10.42   10.42</time>
   <time name="orth">    2.35    2.35</time>
   <time name="total">   22.78   22.79</time>
   <energy>
    <i name="e_fr_energy">   -879.55001314 </i>
    <i name="e_wo_entrp">   -879.47781690 </i>
    <i name="e_0_energy">   -879.52594773 </i>
   </energy>
  </scstep>
  <scstep>
   <time name="diag">    7.15    7.15</time>
   <time name="diis">   10.43   10.43</time>
   <time name="orth">    2.35    2.35</time>
   <time name="total">   22.62   22.62</time>
   <energy>
    <i name="e_fr_energy">   -879.55000926 </i>
    <i name="e_wo_entrp">   -879.47786859 </i>
    <i name="e_0_energy">   -879.52596237 </i>
   </energy>
  </scstep>
  <scstep>
   <time name="diag">    7.03    7.03</time>
   <time name="diis">   10.46   10.46</time>
   <time name="orth">    2.35    2.35</time>
   <time name="total">   22.52   22.52</time>
   <energy>
    <i name="e_fr_energy">   -879.55000563 </i>
    <i name="e_wo_entrp">   -879.47791679 </i>
    <i name="e_0_energy">   -879.52597602 </i>
   </energy>
  </scstep>
  <scstep>
   <time name="diag">    7.02    7.03</time>
   <time name="diis">   10.60   10.60</time>
   <time name="orth">    2.34    2.34</time>
   <time name="total">   22.49   22.49</time>
   <energy>
    <i name="e_fr_energy">   -879.55000232 </i>
    <i name="e_wo_entrp">   -879.47796084 </i>
    <i name="e_0_energy">   -879.52598849 </i>
   </energy>
  </scstep>
  <scstep>
   <time name="diag">    7.05    7.05</time>
   <time name="diis">   10.51   10.51</time>
   <time name="orth">    2.29    2.29</time>
   <time name="total">   22.40   22.40</time>
   <energy>
    <i name="e_fr_energy">   -879.54999924 </i>
    <i name="e_wo_entrp">   -879.47800181 </i>
    <i name="e_0_energy">   -879.52600010 </i>
   </energy>
  </scstep>
  <scstep>
   <time name="diag">    7.08    7.08</time>
   <time name="diis">   10.28   10.28</time>
   <time name="orth">    2.27    2.27</time>
   <time name="total">   22.23   22.23</time>
   <energy>
    <i name="e_fr_energy">   -879.54999642 </i>
    <i name="e_wo_entrp">   -879.47803942 </i>
    <i name="e_0_energy">   -879.52601075 </i>
   </energy>
  </scstep>
  <scstep>
   <time name="diag">    7.17    7.17</time>
   <time name="diis">   10.15   10.16</time>
   <time name="orth">    2.30    2.30</time>
   <time name="total">   22.24   22.24</time>
   <energy>
    <i name="e_fr_energy">   -879.54999381 </i>
    <i name="e_wo_entrp">   -879.47807404 </i>
    <i name="e_0_energy">   -879.52602055 </i>
   </energy>
  </scstep>
  <scstep>
   <time name="diag">    7.29    7.29</time>
   <time name="diis">    9.85    9.85</time>
   <time name="orth">    2.31    2.31</time>
   <time name="total">   22.04   22.04</time>
   <energy>
    <i name="e_fr_energy">   -879.54999142 </i>
    <i name="e_wo_entrp">   -879.47810582 </i>
    <i name="e_0_energy">   -879.52602955 </i>
   </energy>
  </scstep>
  <scstep>
   <time name="diag">    7.34    7.34</time>
   <time name="diis">    9.61    9.61</time>
   <time name="orth">    2.32    2.32</time>
   <time name="total">   21.90   21.90</time>
   <energy>
    <i name="e_fr_energy">   -879.54998923 </i>
    <i name="e_wo_entrp">   -879.47813526 </i>
    <i name="e_0_energy">   -879.52603791 </i>
   </energy>
  </scstep>
  <scstep>
   <time name="diag">    7.14    7.14</time>
   <time name="diis">   10.61   10.62</time>
   <time name="orth">    2.32    2.32</time>
   <time name="total">   22.70   22.71</time>
   <energy>
    <i name="e_fr_energy">   -879.54998722 </i>
    <i name="e_wo_entrp">   -879.47816163 </i>
    <i name="e_0_energy">   -879.52604536 </i>
   </energy>
  </scstep>
  <scstep>
   <time name="diag">    7.15    7.15</time>
   <time name="diis">    9.42    9.42</time>
   <time name="orth">    2.32    2.32</time>
   <time name="total">   21.56   21.56</time>
   <energy>
    <i name="e_fr_energy">   -879.54998537 </i>
    <i name="e_wo_entrp">   -879.47818638 </i>
    <i name="e_0_energy">   -879.52605237 </i>
   </energy>
  </scstep>
  <scstep>
   <time name="diag">    7.22    7.22</time>
   <time name="diis">    9.91    9.91</time>
   <time name="orth">    2.33    2.33</time>
   <time name="total">   22.12   22.12</time>
   <energy>
    <i name="e_fr_energy">   -879.54998368 </i>
    <i name="e_wo_entrp">   -879.47820878 </i>
    <i name="e_0_energy">   -879.52605871 </i>
   </energy>
  </scstep>
  <scstep>
   <time name="diag">    7.25    7.25</time>
   <time name="diis">    9.62    9.62</time>
   <time name="orth">    2.33    2.33</time>
   <time name="total">   21.89   21.89</time>
   <energy>
    <i name="e_fr_energy">   -879.54998213 </i>
    <i name="e_wo_entrp">   -879.47822952 </i>
    <i name="e_0_energy">   -879.52606460 </i>
   </energy>
  </scstep>
  <scstep>
   <time name="diag">    7.06    7.06</time>
   <time name="diis">    9.68    9.68</time>
   <time name="orth">    2.35    2.36</time>
   <time name="total">   21.83   21.83</time>
   <energy>
    <i name="e_fr_energy">   -879.54998073 </i>
    <i name="e_wo_entrp">   -879.47824864 </i>
    <i name="e_0_energy">   -879.52607003 </i>
   </energy>
  </scstep>
  <scstep>
   <time name="diag">    7.40    7.40</time>
   <time name="diis">    9.26    9.26</time>
   <time name="orth">    2.30    2.30</time>
   <time name="total">   21.68   21.68</time>
   <energy>
    <i name="e_fr_energy">   -879.54997945 </i>
    <i name="e_wo_entrp">   -879.47826612 </i>
    <i name="e_0_energy">   -879.52607501 </i>
   </energy>
  </scstep>
  <scstep>
   <time name="diag">    7.40    7.40</time>
   <time name="diis">    9.87    9.87</time>
   <time name="orth">    2.36    2.36</time>
   <time name="total">   22.25   22.25</time>
   <energy>
    <i name="e_fr_energy">   -879.54997826 </i>
    <i name="e_wo_entrp">   -879.47828170 </i>
    <i name="e_0_energy">   -879.52607941 </i>
   </energy>
  </scstep>
  <scstep>
   <time name="diag">    6.99    6.99</time>
   <time name="diis">    9.99    9.99</time>
   <time name="orth">    2.36    2.36</time>
   <time name="total">   22.08   22.08</time>
   <energy>
    <i name="e_fr_energy">   -879.54997715 </i>
    <i name="e_wo_entrp">   -879.47829543 </i>
    <i name="e_0_energy">   -879.52608324 </i>
   </energy>
  </scstep>
  <scstep>
   <time name="diag">    7.39    7.39</time>
   <time name="diis">   10.75   10.76</time>
   <time name="orth">    2.36    2.36</time>
   <time name="total">   23.25   23.26</time>
   <energy>
    <i name="e_fr_energy">   -879.54997612 </i>
    <i name="e_wo_entrp">   -879.47830767 </i>
    <i name="e_0_energy">   -879.52608664 </i>
   </energy>
  </scstep>
  <scstep>
   <time name="diag">    7.40    7.40</time>
   <time name="diis">    9.74    9.74</time>
   <time name="orth">    2.27    2.27</time>
   <time name="total">   19.73   19.73</time>
   <energy>
    <i name="alphaZ">   7300.31925852 </i>
    <i name="ewald"> -66232.83996889 </i>
    <i name="hartreedc">  -9349.38609366 </i>
    <i name="XCdc">    360.26872953 </i>
    <i name="pawpsdc">  58041.08515247 </i>
    <i name="pawaedc"> -58976.05569917 </i>
    <i name="eentropy">     -0.07165531 </i>
    <i name="bandstr">   3774.56431727 </i>
    <i name="atom">  64202.56598403 </i>
    <i name="e_fr_energy">   -879.54997521 </i>
    <i name="e_wo_entrp">   -879.47831989 </i>
    <i name="e_0_energy">   -879.52609010 </i>
   </energy>
  </scstep>
  <structure>
   <crystal>
    <varray name="basis" >
     <v>      10.33484705       0.00000000       0.00000000 </v>
     <v>       0.00000000      10.33484705       0.00000000 </v>
     <v>       0.00000000       0.00000000      10.33484705 </v>
    </varray>
    <i name="volume">   1103.85533447 </i>
    <varray name="rec_basis" >
     <v>       0.09676002       0.00000000       0.00000000 </v>
     <v>       0.00000000       0.09676002       0.00000000 </v>
     <v>       0.00000000       0.00000000       0.09676002 </v>
    </varray>
   </crystal>
   <varray name="positions" >
    <v>       0.00000000       0.00000000       0.00000000 </v>
    <v>       0.00000000       0.16666893       0.16666893 </v>
    <v>       0.16666893       0.00000000       0.16666893 </v>
    <v>       0.16666893       0.16666893       0.00000000 </v>
    <v>       0.33333106       0.00000000       0.00000000 </v>
    <v>       0.33333107       0.16666893       0.16666893 </v>
    <v>       0.50000000       0.00000000       0.16666894 </v>
    <v>       0.50000000       0.16666894       0.00000000 </v>
    <v>       0.66666897       0.00000000       0.00000000 </v>
    <v>       0.66666896       0.16666893       0.16666893 </v>
    <v>       0.83333104       0.00000000       0.16666893 </v>
    <v>       0.83333104       0.16666893       0.00000000 </v>
    <v>       0.00000000       0.33333106       0.00000000 </v>
    <v>       0.00000000       0.50000000       0.16666894 </v>
    <v>       0.16666893       0.33333107       0.16666893 </v>
    <v>       0.16666894       0.50000000       0.00000000 </v>
    <v>       0.33333107       0.33333107       0.00000000 </v>
    <v>       0.33333107       0.50000000       0.16666893 </v>
    <v>       0.50000000       0.33333107       0.16666893 </v>
    <v>       0.50000000       0.50000000       0.00000000 </v>
    <v>       0.66666896       0.33333107       0.00000000 </v>
    <v>       0.66666896       0.50000000       0.16666893 </v>
    <v>       0.83333104       0.33333107       0.16666893 </v>
    <v>       0.83333103       0.50000000       0.00000000 </v>
    <v>       0.00000000       0.66666897       0.00000000 </v>
    <v>       0.00000000       0.83333104       0.16666893 </v>
    <v>       0.16666893       0.66666896       0.16666893 </v>
    <v>       0.16666893       0.83333104       0.00000000 </v>
    <v>       0.33333107       0.66666896       0.00000000 </v>
    <v>       0.33333107       0.83333104       0.16666893 </v>
    <v>       0.50000000       0.66666896       0.16666893 </v>
    <v>       0.50000000       0.83333103       0.00000000 </v>
    <v>       0.66666896       0.66666896       0.00000000 </v>
    <v>       0.66666896       0.83333104       0.16666893 </v>
    <v>       0.83333104       0.66666896       0.16666893 </v>
    <v>       0.83333104       0.83333104       0.00000000 </v>
    <v>       0.00000000       0.00000000       0.33333106 </v>
    <v>       0.00000000       0.16666894       0.50000000 </v>
    <v>       0.16666894       0.00000000       0.50000000 </v>
    <v>       0.16666893       0.16666893       0.33333107 </v>
    <v>       0.33333107       0.00000000       0.33333107 </v>
    <v>       0.33333107       0.16666893       0.50000000 </v>
    <v>       0.50000000       0.00000000       0.50000000 </v>
    <v>       0.50000000       0.16666893       0.33333107 </v>
    <v>       0.66666896       0.00000000       0.33333107 </v>
    <v>       0.66666896       0.16666893       0.50000000 </v>
    <v>       0.83333103       0.00000000       0.50000000 </v>
    <v>       0.83333104       0.16666893       0.33333107 </v>
    <v>       0.00000000       0.33333107       0.33333107 </v>
    <v>       0.00000000       0.50000000       0.50000000 </v>
    <v>       0.16666893       0.33333107       0.50000000 </v>
    <v>       0.16666893       0.50000000       0.33333107 </v>
    <v>       0.33333107       0.33333107       0.33333107 </v>
    <v>       0.33333106       0.50000000       0.50000000 </v>
    <v>       0.50000000       0.33333106       0.50000000 </v>
    <v>       0.50000000       0.50000000       0.33333106 </v>
    <v>       0.66666896       0.33333107       0.33333107 </v>
    <v>       0.66666897       0.50000000       0.50000000 </v>
    <v>       0.83333104       0.33333107       0.50000000 </v>
    <v>       0.83333104       0.50000000       0.33333107 </v>
    <v>       0.00000000       0.66666896       0.33333107 </v>
    <v>       0.00000000       0.83333103       0.50000000 </v>
    <v>       0.16666893       0.66666896       0.50000000 </v>
    <v>       0.16666893       0.83333104       0.33333107 </v>
    <v>       0.33333107       0.66666896       0.33333107 </v>
    <v>       0.33333107       0.83333104       0.50000000 </v>
    <v>       0.50000000       0.66666897       0.50000000 </v>
    <v>       0.50000000       0.83333104       0.33333107 </v>
    <v>       0.66666896       0.66666896       0.33333107 </v>
    <v>       0.66666896       0.83333104       0.50000000 </v>
    <v>       0.83333104       0.66666896       0.50000000 </v>
    <v>       0.83333104       0.83333104       0.33333107 </v>
    <v>       0.00000000       0.00000000       0.66666897 </v>
    <v>       0.00000000       0.16666893       0.83333104 </v>
    <v>       0.16666893       0.00000000       0.83333104 </v>
    <v>       0.16666893       0.16666893       0.66666896 </v>
    <v>       0.33333107       0.00000000       0.66666896 </v>
    <v>       0.33333107       0.16666893       0.83333104 </v>
    <v>       0.50000000       0.00000000       0.83333103 </v>
    <v>       0.50000000       0.16666893       0.66666896 </v>
    <v>       0.66666896       0.00000000       0.66666896 </v>
    <v>       0.66666896       0.16666893       0.83333104 </v>
    <v>       0.83333104       0.00000000       0.83333104 </v>
    <v>       0.83333104       0.16666893       0.66666896 </v>
    <v>       0.00000000       0.33333107       0.66666896 </v>
    <v>       0.00000000       0.50000000       0.83333103 </v>
    <v>       0.16666893       0.33333107       0.83333104 </v>
    <v>       0.16666893       0.50000000       0.66666896 </v>
    <v>       0.33333107       0.33333107       0.66666896 </v>
    <v>       0.33333107       0.50000000       0.83333104 </v>
    <v>       0.50000000       0.33333107       0.83333104 </v>
    <v>       0.50000000       0.50000000       0.66666897 </v>
    <v>       0.66666896       0.33333107       0.66666896 </v>
    <v>       0.66666896       0.50000000       0.83333104 </v>
    <v>       0.83333104       0.33333107       0.83333104 </v>
    <v>       0.83333104       0.50000000       0.66666896 </v>
    <v>       0.00000000       0.66666896       0.66666896 </v>
    <v>       0.00000000       0.83333104       0.83333104 </v>
    <v>       0.16666893       0.66666896       0.83333104 </v>
    <v>       0.16666893       0.83333104       0.66666896 </v>
    <v>       0.33333107       0.66666896       0.66666896 </v>
    <v>       0.33333107       0.83333104       0.83333104 </v>
    <v>       0.50000000       0.66666896       0.83333104 </v>
    <v>       0.50000000       0.83333104       0.66666896 </v>
    <v>       0.66666896       0.66666896       0.66666896 </v>
    <v>       0.66666896       0.83333104       0.83333104 </v>
    <v>       0.83333104       0.66666896       0.83333104 </v>
    <v>       0.83333104       0.83333104       0.66666896 </v>
   </varray>
  </structure>
  <varray name="forces" >
   <v>       0.00000000      -0.00000000      -0.00000000 </v>
   <v>       0.00000000      -0.00000000      -0.00000000 </v>
   <v>      -0.00000000       0.00000000      -0.00000000 </v>
   <v>      -0.00000000      -0.00000000       0.00000000 </v>
   <v>      -0.00000000      -0.00000000      -0.00000000 </v>
   <v>       0.00000000       0.00000000      -0.00000000 </v>
   <v>      -0.00000000      -0.00000000      -0.00000000 </v>
   <v>      -0.00000000      -0.00000000       0.00000000 </v>
   <v>       0.00000000      -0.00000000      -0.00000000 </v>
   <v>       0.00000000       0.00000000      -0.00000000 </v>
   <v>      -0.00000000       0.00000000      -0.00000000 </v>
   <v>       0.00000000       0.00000000       0.00000000 </v>
   <v>       0.00000000       0.00000000      -0.00000000 </v>
   <v>       0.00000000      -0.00000000       0.00000000 </v>
   <v>      -0.00000000      -0.00000000       0.00000000 </v>
   <v>       0.00000000      -0.00000000       0.00000000 </v>
   <v>       0.00000000       0.00000000       0.00000000 </v>
   <v>      -0.00000000       0.00000000       0.00000000 </v>
   <v>      -0.00000000      -0.00000000      -0.00000000 </v>
   <v>      -0.00000000       0.00000000      -0.00000000 </v>
   <v>       0.00000000       0.00000000      -0.00000000 </v>
   <v>       0.00000000      -0.00000000       0.00000000 </v>
   <v>      -0.00000000      -0.00000000      -0.00000000 </v>
   <v>       0.00000000      -0.00000000      -0.00000000 </v>
   <v>      -0.00000000      -0.00000000       0.00000000 </v>
   <v>       0.00000000      -0.00000000      -0.00000000 </v>
   <v>      -0.00000000       0.00000000       0.00000000 </v>
   <v>      -0.00000000       0.00000000       0.00000000 </v>
   <v>       0.00000000      -0.00000000       0.00000000 </v>
   <v>      -0.00000000       0.00000000       0.00000000 </v>
   <v>       0.00000000       0.00000000       0.00000000 </v>
   <v>      -0.00000000       0.00000000      -0.00000000 </v>
   <v>       0.00000000       0.00000000      -0.00000000 </v>
   <v>       0.00000000       0.00000000       0.00000000 </v>
   <v>       0.00000000      -0.00000000       0.00000000 </v>
   <v>      -0.00000000       0.00000000       0.00000000 </v>
   <v>      -0.00000000      -0.00000000       0.00000000 </v>
   <v>      -0.00000000      -0.00000000      -0.00000000 </v>
   <v>      -0.00000000       0.00000000      -0.00000000 </v>
   <v>      -0.00000000      -0.00000000      -0.00000000 </v>
   <v>       0.00000000      -0.00000000       0.00000000 </v>
   <v>      -0.00000000       0.00000000      -0.00000000 </v>
   <v>       0.00000000      -0.00000000       0.00000000 </v>
   <v>       0.00000000      -0.00000000      -0.00000000 </v>
   <v>      -0.00000000      -0.00000000       0.00000000 </v>
   <v>      -0.00000000       0.00000000      -0.00000000 </v>
   <v>       0.00000000       0.00000000      -0.00000000 </v>
   <v>      -0.00000000       0.00000000      -0.00000000 </v>
   <v>      -0.00000000      -0.00000000       0.00000000 </v>
   <v>      -0.00000000      -0.00000000       0.00000000 </v>
   <v>       0.00000000      -0.00000000      -0.00000000 </v>
   <v>      -0.00000000      -0.00000000       0.00000000 </v>
   <v>      -0.00000000       0.00000000       0.00000000 </v>
   <v>      -0.00000000       0.00000000      -0.00000000 </v>
   <v>       0.00000000       0.00000000      -0.00000000 </v>
   <v>      -0.00000000       0.00000000       0.00000000 </v>
   <v>      -0.00000000      -0.00000000      -0.00000000 </v>
   <v>      -0.00000000       0.00000000       0.00000000 </v>
   <v>       0.00000000      -0.00000000      -0.00000000 </v>
   <v>      -0.00000000      -0.00000000       0.00000000 </v>
   <v>      -0.00000000       0.00000000      -0.00000000 </v>
   <v>      -0.00000000       0.00000000      -0.00000000 </v>
   <v>       0.00000000      -0.00000000       0.00000000 </v>
   <v>       0.00000000       0.00000000      -0.00000000 </v>
   <v>      -0.00000000       0.00000000      -0.00000000 </v>
   <v>      -0.00000000       0.00000000       0.00000000 </v>
   <v>       0.00000000      -0.00000000       0.00000000 </v>
   <v>       0.00000000       0.00000000      -0.00000000 </v>
   <v>       0.00000000       0.00000000      -0.00000000 </v>
   <v>       0.00000000       0.00000000       0.00000000 </v>
   <v>      -0.00000000      -0.00000000       0.00000000 </v>
   <v>       0.00000000       0.00000000      -0.00000000 </v>
   <v>      -0.00000000      -0.00000000      -0.00000000 </v>
   <v>      -0.00000000      -0.00000000       0.00000000 </v>
   <v>      -0.00000000       0.00000000       0.00000000 </v>
   <v>       0.00000000      -0.00000000       0.00000000 </v>
   <v>       0.00000000       0.00000000      -0.00000000 </v>
   <v>       0.00000000       0.00000000       0.00000000 </v>
   <v>      -0.00000000       0.00000000      -0.00000000 </v>
   <v>       0.00000000       0.00000000       0.00000000 </v>
   <v>      -0.00000000       0.00000000      -0.00000000 </v>
   <v>       0.00000000       0.00000000       0.00000000 </v>
   <v>       0.00000000       0.00000000       0.00000000 </v>
   <v>      -0.00000000      -0.00000000       0.00000000 </v>
   <v>      -0.00000000      -0.00000000      -0.00000000 </v>
   <v>      -0.00000000      -0.00000000      -0.00000000 </v>
   <v>      -0.00000000       0.00000000      -0.00000000 </v>
   <v>       0.00000000      -0.00000000      -0.00000000 </v>
   <v>      -0.00000000      -0.00000000       0.00000000 </v>
   <v>      -0.00000000       0.00000000       0.00000000 </v>
   <v>      -0.00000000       0.00000000      -0.00000000 </v>
   <v>       0.00000000       0.00000000      -0.00000000 </v>
   <v>      -0.00000000      -0.00000000       0.00000000 </v>
   <v>       0.00000000       0.00000000       0.00000000 </v>
   <v>       0.00000000      -0.00000000       0.00000000 </v>
   <v>      -0.00000000      -0.00000000      -0.00000000 </v>
   <v>      -0.00000000      -0.00000000       0.00000000 </v>
   <v>       0.00000000      -0.00000000      -0.00000000 </v>
   <v>       0.00000000       0.00000000      -0.00000000 </v>
   <v>       0.00000000       0.00000000       0.00000000 </v>
   <v>       0.00000000       0.00000000       0.00000000 </v>
   <v>      -0.00000000       0.00000000      -0.00000000 </v>
   <v>      -0.00000000       0.00000000      -0.00000000 </v>
   <v>       0.00000000       0.00000000      -0.00000000 </v>
   <v>      -0.00000000       0.00000000       0.00000000 </v>
   <v>       0.00000000       0.00000000       0.00000000 </v>
   <v>      -0.00000000       0.00000000      -0.00000000 </v>
   <v>       0.00000000       0.00000000       0.00000000 </v>
  </varray>
  <varray name="stress" >
   <v>       5.65885557       0.00000000      -0.00000000 </v>
   <v>      -0.00000000       5.65885557      -0.00000000 </v>
   <v>       0.00000000       0.00000000       5.65885557 </v>
  </varray>
  <energy>
   <i name="e_fr_energy">   -879.54997521 </i>
   <i name="e_wo_entrp">   -879.52609010 </i>
   <i name="e_0_energy">     -0.07165531 </i>
  </energy>
  <time name="totalsc"> 1843.00 1843.34</time>
 </calculation>
 <calculation>
  <scstep>
   <time name="dav">   57.28   57.29</time>
   <time name="total">   60.01   60.02</time>
   <energy>
    <i name="alphaZ">   7262.30996565 </i>
    <i name="ewald"> -66117.69225716 </i>
    <i name="hartreedc">  -9333.13234348 </i>
    <i name="XCdc">    355.10623615 </i>
    <i name="pawpsdc">  58041.08761591 </i>
    <i name="pawaedc"> -58976.05771517 </i>
    <i name="eentropy">     -0.08328818 </i>
    <i name="bandstr">   3686.12990376 </i>
    <i name="atom">  64202.56598403 </i>
    <i name="e_fr_energy">   -879.76589849 </i>
    <i name="e_wo_entrp">   -879.68261031 </i>
    <i name="e_0_energy">   -879.73813576 </i>
   </energy>
  </scstep>
  <scstep>
   <time name="diag">    7.43    7.44</time>
   <time name="diis">   20.97   20.98</time>
   <time name="orth">    2.36    2.36</time>
   <time name="total">   33.47   33.47</time>
   <energy>
    <i name="e_fr_energy">   -879.55112596 </i>
    <i name="e_wo_entrp">   -879.48530574 </i>
    <i name="e_0_energy">   -879.52918589 </i>
   </energy>
  </scstep>
  <scstep>
   <time name="diag">    7.44    7.44</time>
   <time name="diis">   23.22   23.22</time>
   <time name="orth">    2.35    2.35</time>
   <time name="total">   35.71   35.71</time>
   <energy>
    <i name="e_fr_energy">   -879.54997464 </i>
    <i name="e_wo_entrp">   -879.48286482 </i>
    <i name="e_0_energy">   -879.52760470 </i>
   </energy>
  </scstep>
  <scstep>
   <time name="diag">    7.20    7.20</time>
   <time name="diis">   21.18   21.18</time>
   <time name="orth">    2.35    2.35</time>
   <time name="total">   33.34   33.34</time>
   <energy>
    <i name="e_fr_energy">   -879.54716119 </i>
    <i name="e_wo_entrp">   -879.47737755 </i>
    <i name="e_0_energy">   -879.52389997 </i>
   </energy>
  </scstep>
  <scstep>
   <time name="diag">    7.00    7.00</time>
   <time name="diis">   21.64   21.64</time>
   <time name="orth">    2.30    2.30</time>
   <time name="total">   33.55   33.56</time>
   <energy>
    <i name="e_fr_energy">   -879.54791088 </i>
    <i name="e_wo_entrp">   -879.47829690 </i>
    <i name="e_0_energy">   -879.52470622 </i>
   </energy>
  </scstep>
  <scstep>
   <time name="diag">    7.40    7.40</time>
   <time name="diis">   20.65   20.65</time>
   <time name="orth">    2.32    2.32</time>
   <time name="total">   32.99   32.99</time>
   <energy>
    <i name="e_fr_energy">   -879.54516101 </i>
    <i name="e_wo_entrp">   -879.47758361 </i>
    <i name="e_0_energy">   -879.52263521 </i>
   </energy>
  </scstep>
  <scstep>
   <time name="diag">    7.17    7.17</time>
   <time name="diis">   24.44   24.44</time>
   <time name="orth">    2.34    2.34</time>
   <time name="total">   36.59   36.59</time>
   <energy>
    <i name="e_fr_energy">   -879.54528689 </i>
    <i name="e_wo_entrp">   -879.47757879 </i>
    <i name="e_0_energy">   -879.52271752 </i>
   </energy>
  </scstep>
  <scstep>
   <time name="diag">    7.22    7.22</time>
   <time name="diis">   21.12   21.12</time>
   <time name="orth">    2.34    2.34</time>
   <time name="total">   33.30   33.30</time>
   <energy>
    <i name="e_fr_energy">   -879.54523985 </i>
    <i name="e_wo_entrp">   -879.47734368 </i>
    <i name="e_0_energy">   -879.52260779 </i>
   </energy>
  </scstep>
  <scstep>
   <time name="diag">    7.23    7.23</time>
   <time name="diis">   21.27   21.28</time>
   <time name="orth">    2.36    2.36</time>
   <time name="total">   33.57   33.57</time>
   <energy>
    <i name="e_fr_energy">   -879.54525571 </i>
    <i name="e_wo_entrp">   -879.47720734 </i>
    <i name="e_0_energy">   -879.52257292 </i>
   </energy>
  </scstep>
  <scstep>
   <time name="diag">    7.30    7.30</time>
   <time name="diis">   22.87   22.87</time>
   <time name="orth">    2.37    2.37</time>
   <time name="total">   35.24   35.24</time>
   <energy>
    <i name="e_fr_energy">   -879.54525648 </i>
    <i name="e_wo_entrp">   -879.47719794 </i>
    <i name="e_0_energy">   -879.52257030 </i>
   </energy>
  </scstep>
  <scstep>
   <time name="diag">    7.22    7.22</time>
   <time name="diis">   12.49   12.49</time>
   <time name="orth">    2.36    2.36</time>
   <time name="total">   22.39   22.40</time>
   <energy>
    <i name="alphaZ">   7262.30996565 </i>
    <i name="ewald"> -66117.69225716 </i>
    <i name="hartreedc">  -9390.08356467 </i>
    <i name="XCdc">    358.46649219 </i>
    <i name="pawpsdc">  57902.16127082 </i>
    <i name="pawaedc"> -58834.52996328 </i>
    <i name="eentropy">     -0.06805972 </i>
    <i name="bandstr">   3737.32487518 </i>
    <i name="atom">  64202.56598403 </i>
    <i name="e_fr_energy">   -879.54525696 </i>
    <i name="e_wo_entrp">   -879.47719724 </i>
    <i name="e_0_energy">   -879.52257039 </i>
   </energy>
  </scstep>
  <structure>
   <crystal>
    <varray name="basis" >
     <v>      10.35284577       0.00000000      -0.00000000 </v>
     <v>      -0.00000000      10.35284577      -0.00000000 </v>
     <v>       0.00000000       0.00000000      10.35284577 </v>
    </varray>
    <i name="volume">   1109.63266440 </i>
    <varray name="rec_basis" >
     <v>       0.09659180       0.00000000      -0.00000000 </v>
     <v>      -0.00000000       0.09659180      -0.00000000 </v>
     <v>       0.00000000       0.00000000       0.09659180 </v>
    </varray>
   </crystal>
   <varray name="positions" >
    <v>       0.00000000      -0.00000000      -0.00000000 </v>
    <v>       0.00000000       0.16666893       0.16666893 </v>
    <v>       0.16666893       0.00000000       0.16666893 </v>
    <v>       0.16666893       0.16666893       0.00000000 </v>
    <v>       0.33333106      -0.00000000      -0.00000000 </v>
    <v>       0.33333107       0.16666893       0.16666893 </v>
    <v>       0.50000000      -0.00000000       0.16666894 </v>
    <v>       0.50000000       0.16666894       0.00000000 </v>
    <v>       0.66666897      -0.00000000      -0.00000000 </v>
    <v>       0.66666896       0.16666893       0.16666893 </v>
    <v>       0.83333104       0.00000000       0.16666893 </v>
    <v>       0.83333104       0.16666893       0.00000000 </v>
    <v>       0.00000000       0.33333106      -0.00000000 </v>
    <v>       0.00000000       0.50000000       0.16666894 </v>
    <v>       0.16666893       0.33333107       0.16666893 </v>
    <v>       0.16666894       0.50000000       0.00000000 </v>
    <v>       0.33333107       0.33333107       0.00000000 </v>
    <v>       0.33333107       0.50000000       0.16666893 </v>
    <v>       0.50000000       0.33333107       0.16666893 </v>
    <v>       0.50000000       0.50000000      -0.00000000 </v>
    <v>       0.66666896       0.33333107      -0.00000000 </v>
    <v>       0.66666896       0.50000000       0.16666893 </v>
    <v>       0.83333104       0.33333107       0.16666893 </v>
    <v>       0.83333103       0.50000000      -0.00000000 </v>
    <v>      -0.00000000       0.66666897       0.00000000 </v>
    <v>       0.00000000       0.83333104       0.16666893 </v>
    <v>       0.16666893       0.66666896       0.16666893 </v>
    <v>       0.16666893       0.83333104       0.00000000 </v>
    <v>       0.33333107       0.66666896       0.00000000 </v>
    <v>       0.33333107       0.83333104       0.16666893 </v>
    <v>       0.50000000       0.66666896       0.16666893 </v>
    <v>       0.50000000       0.83333103      -0.00000000 </v>
    <v>       0.66666896       0.66666896      -0.00000000 </v>
    <v>       0.66666896       0.83333104       0.16666893 </v>
    <v>       0.83333104       0.66666896       0.16666893 </v>
    <v>       0.83333104       0.83333104       0.00000000 </v>
    <v>      -0.00000000      -0.00000000       0.33333106 </v>
    <v>      -0.00000000       0.16666894       0.50000000 </v>
    <v>       0.16666894       0.00000000       0.50000000 </v>
    <v>       0.16666893       0.16666893       0.33333107 </v>
    <v>       0.33333107      -0.00000000       0.33333107 </v>
    <v>       0.33333107       0.16666893       0.50000000 </v>
    <v>       0.50000000      -0.00000000       0.50000000 </v>
    <v>       0.50000000       0.16666893       0.33333107 </v>
    <v>       0.66666896      -0.00000000       0.33333107 </v>
    <v>       0.66666896       0.16666893       0.50000000 </v>
    <v>       0.83333103       0.00000000       0.50000000 </v>
    <v>       0.83333104       0.16666893       0.33333107 </v>
    <v>      -0.00000000       0.33333107       0.33333107 </v>
    <v>      -0.00000000       0.50000000       0.50000000 </v>
    <v>       0.16666893       0.33333107       0.50000000 </v>
    <v>       0.16666893       0.50000000       0.33333107 </v>
    <v>       0.33333107       0.33333107       0.33333107 </v>
    <v>       0.33333106       0.50000000       0.50000000 </v>
    <v>       0.50000000       0.33333106       0.50000000 </v>
    <v>       0.50000000       0.50000000       0.33333106 </v>
    <v>       0.66666896       0.33333107       0.33333107 </v>
    <v>       0.66666897       0.50000000       0.50000000 </v>
    <v>       0.83333104       0.33333107       0.50000000 </v>
    <v>       0.83333104       0.50000000       0.33333107 </v>
    <v>      -0.00000000       0.66666896       0.33333107 </v>
    <v>      -0.00000000       0.83333103       0.50000000 </v>
    <v>       0.16666893       0.66666896       0.50000000 </v>
    <v>       0.16666893       0.83333104       0.33333107 </v>
    <v>       0.33333107       0.66666896       0.33333107 </v>
    <v>       0.33333107       0.83333104       0.50000000 </v>
    <v>       0.50000000       0.66666897       0.50000000 </v>
    <v>       0.50000000       0.83333104       0.33333107 </v>
    <v>       0.66666896       0.66666896       0.33333107 </v>
    <v>       0.66666896       0.83333104       0.50000000 </v>
    <v>       0.83333104       0.66666896       0.50000000 </v>
    <v>       0.83333104       0.83333104       0.33333107 </v>
    <v>      -0.00000000      -0.00000000       0.66666897 </v>
    <v>      -0.00000000       0.16666893       0.83333104 </v>
    <v>       0.16666893       0.00000000       0.83333104 </v>
    <v>       0.16666893       0.16666893       0.66666896 </v>
    <v>       0.33333107       0.00000000       0.66666896 </v>
    <v>       0.33333107       0.16666893       0.83333104 </v>
    <v>       0.50000000       0.00000000       0.83333103 </v>
    <v>       0.50000000       0.16666893       0.66666896 </v>
    <v>       0.66666896       0.00000000       0.66666896 </v>
    <v>       0.66666896       0.16666893       0.83333104 </v>
    <v>       0.83333104       0.00000000       0.83333104 </v>
    <v>       0.83333104       0.16666893       0.66666896 </v>
    <v>      -0.00000000       0.33333107       0.66666896 </v>
    <v>      -0.00000000       0.50000000       0.83333103 </v>
    <v>       0.16666893       0.33333107       0.83333104 </v>
    <v>       0.16666893       0.50000000       0.66666896 </v>
    <v>       0.33333107       0.33333107       0.66666896 </v>
    <v>       0.33333107       0.50000000       0.83333104 </v>
    <v>       0.50000000       0.33333107       0.83333104 </v>
    <v>       0.50000000       0.50000000       0.66666897 </v>
    <v>       0.66666896       0.33333107       0.66666896 </v>
    <v>       0.66666896       0.50000000       0.83333104 </v>
    <v>       0.83333104       0.33333107       0.83333104 </v>
    <v>       0.83333104       0.50000000       0.66666896 </v>
    <v>      -0.00000000       0.66666896       0.66666896 </v>
    <v>       0.00000000       0.83333104       0.83333104 </v>
    <v>       0.16666893       0.66666896       0.83333104 </v>
    <v>       0.16666893       0.83333104       0.66666896 </v>
    <v>       0.33333107       0.66666896       0.66666896 </v>
    <v>       0.33333107       0.83333104       0.83333104 </v>
    <v>       0.50000000       0.66666896       0.83333104 </v>
    <v>       0.50000000       0.83333104       0.66666896 </v>
    <v>       0.66666896       0.66666896       0.66666896 </v>
    <v>       0.66666896       0.83333104       0.83333104 </v>
    <v>       0.83333104       0.66666896       0.83333104 </v>
    <v>       0.83333104       0.83333104       0.66666896 </v>
   </varray>
  </structure>
  <varray name="forces" >
   <v>       0.00000000      -0.00000000       0.00000000 </v>
   <v>       0.00000000       0.00000000      -0.00000000 </v>
   <v>      -0.00000000       0.00000000      -0.00000000 </v>
   <v>       0.00000000       0.00000000      -0.00000000 </v>
   <v>       0.00000000      -0.00000000       0.00000000 </v>
   <v>       0.00000000       0.00000000      -0.00000000 </v>
   <v>      -0.00000000       0.00000000      -0.00000000 </v>
   <v>      -0.00000000       0.00000000      -0.00000000 </v>
   <v>       0.00000000      -0.00000000      -0.00000000 </v>
   <v>      -0.00000000      -0.00000000       0.00000000 </v>
   <v>      -0.00000000      -0.00000000      -0.00000000 </v>
   <v>      -0.00000000       0.00000000       0.00000000 </v>
   <v>      -0.00000000       0.00000000      -0.00000000 </v>
   <v>       0.00000000       0.00000000      -0.00000000 </v>
   <v>      -0.00000000       0.00000000      -0.00000000 </v>
   <v>       0.00000000       0.00000000       0.00000000 </v>
   <v>      -0.00000000      -0.00000000      -0.00000000 </v>
   <v>      -0.00000000       0.00000000       0.00000000 </v>
   <v>      -0.00000000       0.00000000       0.00000000 </v>
   <v>      -0.00000000      -0.00000000       0.00000000 </v>
   <v>       0.00000000       0.00000000       0.00000000 </v>
   <v>      -0.00000000      -0.00000000       0.00000000 </v>
   <v>      -0.00000000      -0.00000000       0.00000000 </v>
   <v>       0.00000000       0.00000000       0.00000000 </v>
   <v>      -0.00000000      -0.00000000       0.00000000 </v>
   <v>      -0.00000000      -0.00000000      -0.00000000 </v>
   <v>       0.00000000       0.00000000       0.00000000 </v>
   <v>       0.00000000       0.00000000       0.00000000 </v>
   <v>       0.00000000      -0.00000000      -0.00000000 </v>
   <v>       0.00000000      -0.00000000       0.00000000 </v>
   <v>       0.00000000       0.00000000       0.00000000 </v>
   <v>      -0.00000000      -0.00000000      -0.00000000 </v>
   <v>      -0.00000000       0.00000000      -0.00000000 </v>
   <v>       0.00000000      -0.00000000       0.00000000 </v>
   <v>       0.00000000       0.00000000       0.00000000 </v>
   <v>       0.00000000       0.00000000      -0.00000000 </v>
   <v>      -0.00000000      -0.00000000      -0.00000000 </v>
   <v>       0.00000000       0.00000000      -0.00000000 </v>
   <v>      -0.00000000       0.00000000      -0.00000000 </v>
   <v>      -0.00000000       0.00000000       0.00000000 </v>
   <v>      -0.00000000      -0.00000000      -0.00000000 </v>
   <v>       0.00000000      -0.00000000       0.00000000 </v>
   <v>      -0.00000000      -0.00000000       0.00000000 </v>
   <v>      -0.00000000      -0.00000000       0.00000000 </v>
   <v>       0.00000000       0.00000000       0.00000000 </v>
   <v>       0.00000000      -0.00000000      -0.00000000 </v>
   <v>      -0.00000000       0.00000000       0.00000000 </v>
   <v>      -0.00000000      -0.00000000      -0.00000000 </v>
   <v>      -0.00000000       0.00000000       0.00000000 </v>
   <v>       0.00000000       0.00000000       0.00000000 </v>
   <v>       0.00000000       0.00000000      -0.00000000 </v>
   <v>       0.00000000       0.00000000      -0.00000000 </v>
   <v>      -0.00000000       0.00000000       0.00000000 </v>
   <v>       0.00000000      -0.00000000       0.00000000 </v>
   <v>      -0.00000000       0.00000000       0.00000000 </v>
   <v>      -0.00000000       0.00000000      -0.00000000 </v>
   <v>       0.00000000       0.00000000       0.00000000 </v>
   <v>      -0.00000000      -0.00000000       0.00000000 </v>
   <v>      -0.00000000       0.00000000       0.00000000 </v>
   <v>       0.00000000      -0.00000000      -0.00000000 </v>
   <v>      -0.00000000      -0.00000000      -0.00000000 </v>
   <v>      -0.00000000      -0.00000000      -0.00000000 </v>
   <v>       0.00000000      -0.00000000       0.00000000 </v>
   <v>       0.00000000      -0.00000000      -0.00000000 </v>
   <v>      -0.00000000      -0.00000000       0.00000000 </v>
   <v>       0.00000000       0.00000000       0.00000000 </v>
   <v>       0.00000000       0.00000000       0.00000000 </v>
   <v>      -0.00000000      -0.00000000       0.00000000 </v>
   <v>       0.00000000       0.00000000       0.00000000 </v>
   <v>       0.00000000      -0.00000000       0.00000000 </v>
   <v>       0.00000000       0.00000000       0.00000000 </v>
   <v>       0.00000000       0.00000000      -0.00000000 </v>
   <v>      -0.00000000      -0.00000000       0.00000000 </v>
   <v>       0.00000000       0.00000000       0.00000000 </v>
   <v>      -0.00000000       0.00000000       0.00000000 </v>
   <v>       0.00000000       0.00000000       0.00000000 </v>
   <v>      -0.00000000      -0.00000000       0.00000000 </v>
   <v>       0.00000000       0.00000000       0.00000000 </v>
   <v>      -0.00000000      -0.00000000      -0.00000000 </v>
   <v>      -0.00000000       0.00000000      -0.00000000 </v>
   <v>       0.00000000      -0.00000000       0.00000000 </v>
   <v>       0.00000000      -0.00000000      -0.00000000 </v>
   <v>      -0.00000000      -0.00000000       0.00000000 </v>
   <v>      -0.00000000       0.00000000       0.00000000 </v>
[...]
       <r>    -1.8050     2.7398     0.3885 </r>
       <r>    -1.7597     3.2670     0.5367 </r>
       <r>    -1.7143     3.6480     0.7021 </r>
       <r>    -1.6689     3.8547     0.8769 </r>
       <r>    -1.6236     3.9309     1.0552 </r>
       <r>    -1.5782     3.9610     1.2349 </r>
       <r>    -1.5329     4.0249     1.4174 </r>
       <r>    -1.4875     4.1763     1.6068 </r>
       <r>    -1.4422     4.4449     1.8084 </r>
       <r>    -1.3968     4.8437     2.0281 </r>
       <r>    -1.3515     5.3697     2.2717 </r>
       <r>    -1.3061     5.9932     2.5435 </r>
       <r>    -1.2608     6.6333     2.8443 </r>
       <r>    -1.2154     7.1403     3.1682 </r>
       <r>    -1.1700     7.3303     3.5006 </r>
       <r>    -1.1247     7.0858     3.8220 </r>
       <r>    -1.0793     6.4614     4.1151 </r>
       <r>    -1.0340     5.7019     4.3737 </r>
       <r>    -0.9886     5.1429     4.6069 </r>
       <r>    -0.9433     5.0583     4.8363 </r>
       <r>    -0.8979     5.5552     5.0883 </r>
       <r>    -0.8526     6.5638     5.3860 </r>
       <r>    -0.8072     7.8979     5.7442 </r>
       <r>    -0.7618     9.3186     6.1668 </r>
       <r>    -0.7165    10.5556     6.6456 </r>
       <r>    -0.6711    11.3112     7.1586 </r>
       <r>    -0.6258    11.3233     7.6722 </r>
       <r>    -0.5804    10.5079     8.1488 </r>
       <r>    -0.5351     9.0871     8.5609 </r>
       <r>    -0.4897     7.5661     8.9041 </r>
       <r>    -0.4444     6.5281     9.2002 </r>
       <r>    -0.3990     6.3670     9.4889 </r>
       <r>    -0.3537     7.1299     9.8123 </r>
       <r>    -0.3083     8.5431    10.1998 </r>
       <r>    -0.2629    10.1673    10.6609 </r>
       <r>    -0.2176    11.5705    11.1857 </r>
       <r>    -0.1722    12.4447    11.7501 </r>
       <r>    -0.1269    12.6706    12.3248 </r>
       <r>    -0.0815    12.3455    12.8847 </r>
       <r>    -0.0362    11.7584    13.4180 </r>
       <r>     0.0092    11.2794    13.9296 </r>
       <r>     0.0545    11.1907    14.4372 </r>
       <r>     0.0999    11.5591    14.9614 </r>
       <r>     0.1453    12.2364    15.5164 </r>
       <r>     0.1906    12.9805    16.1051 </r>
       <r>     0.2360    13.5950    16.7217 </r>
       <r>     0.2813    13.9911    17.3563 </r>
       <r>     0.3267    14.1565    17.9984 </r>
       <r>     0.3720    14.0946    18.6376 </r>
       <r>     0.4174    13.8014    19.2636 </r>
       <r>     0.4627    13.2947    19.8666 </r>
       <r>     0.5081    12.6692    20.4412 </r>
       <r>     0.5534    12.1426    20.9919 </r>
       <r>     0.5988    12.0526    21.5385 </r>
       <r>     0.6442    12.7528    22.1169 </r>
       <r>     0.6895    14.4037    22.7702 </r>
       <r>     0.7349    16.7726    23.5309 </r>
       <r>     0.7802    19.2269    24.4030 </r>
       <r>     0.8256    21.0100    25.3559 </r>
       <r>     0.8709    21.6590    26.3382 </r>
       <r>     0.9163    21.2612    27.3025 </r>
       <r>     0.9616    20.3370    28.2249 </r>
       <r>     1.0070    19.4278    29.1060 </r>
       <r>     1.0523    18.7227    29.9552 </r>
       <r>     1.0977    18.0419    30.7735 </r>
       <r>     1.1431    17.1896    31.5531 </r>
       <r>     1.1884    16.3556    32.2949 </r>
       <r>     1.2338    16.1877    33.0291 </r>
       <r>     1.2791    17.4333    33.8198 </r>
       <r>     1.3245    20.4091    34.7455 </r>
       <r>     1.3698    24.6773    35.8647 </r>
       <r>     1.4152    29.1364    37.1862 </r>
       <r>     1.4605    32.4595    38.6584 </r>
       <r>     1.5059    33.6542    40.1848 </r>
       <r>     1.5513    32.5031    41.6589 </r>
       <r>     1.5966    29.7219    43.0070 </r>
       <r>     1.6420    26.7816    44.2216 </r>
       <r>     1.6873    25.4601    45.3764 </r>
       <r>     1.7327    27.2803    46.6137 </r>
       <r>     1.7780    33.0168    48.1111 </r>
       <r>     1.8234    42.4368    50.0359 </r>
       <r>     1.8687    54.3938    52.5029 </r>
       <r>     1.9141    67.2614    55.5535 </r>
       <r>     1.9594    79.4952    59.1590 </r>
       <r>     2.0048    89.9891    63.2405 </r>
       <r>     2.0502    98.0694    67.6884 </r>
       <r>     2.0955   103.3191    72.3744 </r>
       <r>     2.1409   105.5799    77.1630 </r>
       <r>     2.1862   105.2103    81.9348 </r>
       <r>     2.2316   103.2934    86.6196 </r>
       <r>     2.2769   101.4325    91.2201 </r>
       <r>     2.3223   101.1151    95.8061 </r>
       <r>     2.3676   103.0037   100.4779 </r>
       <r>     2.4130   106.6242   105.3138 </r>
       <r>     2.4583   110.7129   110.3352 </r>
       <r>     2.5037   114.0857   115.5095 </r>
       <r>     2.5491   116.4870   120.7928 </r>
       <r>     2.5944   118.7762   126.1798 </r>
       <r>     2.6398   122.2292   131.7235 </r>
       <r>     2.6851   127.4704   137.5049 </r>
       <r>     2.7305   133.9393   143.5797 </r>
       <r>     2.7758   140.3692   149.9462 </r>
       <r>     2.8212   145.8531   156.5613 </r>
       <r>     2.8665   150.5221   163.3882 </r>
       <r>     2.9119   155.2286   170.4286 </r>
       <r>     2.9573   160.5349   177.7096 </r>
       <r>     3.0026   165.9332   185.2355 </r>
       <r>     3.0480   170.0071   192.9462 </r>
       <r>     3.0933   171.4149   200.7207 </r>
       <r>     3.1387   169.8588   208.4246 </r>
       <r>     3.1840   166.2341   215.9641 </r>
       <r>     3.2294   161.9052   223.3073 </r>
       <r>     3.2747   157.8340   230.4659 </r>
       <r>     3.3201   154.3349   237.4657 </r>
       <r>     3.3654   151.5057   244.3372 </r>
       <r>     3.4108   149.6684   251.1254 </r>
       <r>     3.4562   149.2246   257.8935 </r>
       <r>     3.5015   150.0657   264.6997 </r>
       <r>     3.5469   151.2326   271.5588 </r>
       <r>     3.5922   151.2887   278.4205 </r>
       <r>     3.6376   149.1797   285.1865 </r>
       <r>     3.6829   144.9341   291.7600 </r>
       <r>     3.7283   139.7289   298.0974 </r>
       <r>     3.7736   135.2858   304.2333 </r>
       <r>     3.8190   132.9130   310.2615 </r>
       <r>     3.8644   132.6993   316.2801 </r>
       <r>     3.9097   133.3877   322.3298 </r>
       <r>     3.9551   133.1718   328.3698 </r>
       <r>     4.0004   131.0317   334.3128 </r>
       <r>     4.0458   127.6642   340.1030 </r>
       <r>     4.0911   125.1878   345.7808 </r>
       <r>     4.1365   125.7204   351.4829 </r>
       <r>     4.1818   129.9353   357.3761 </r>
       <r>     4.2272   136.8113   363.5811 </r>
       <r>     4.2725   144.7470   370.1461 </r>
       <r>     4.3179   152.9244   377.0820 </r>
       <r>     4.3633   161.5777   384.4103 </r>
       <r>     4.4086   170.9566   392.1640 </r>
       <r>     4.4540   180.1244   400.3336 </r>
       <r>     4.4993   186.8941   408.8101 </r>
       <r>     4.5447   189.0799   417.3858 </r>
       <r>     4.5900   186.0542   425.8243 </r>
       <r>     4.6354   179.4639   433.9638 </r>
       <r>     4.6807   172.7299   441.7980 </r>
       <r>     4.7261   169.7102   449.4952 </r>
       <r>     4.7714   173.1483   457.3483 </r>
       <r>     4.8168   183.4810   465.6700 </r>
       <r>     4.8622   198.5126   474.6736 </r>
       <r>     4.9075   214.2452   484.3906 </r>
       <r>     4.9529   226.5933   494.6677 </r>
       <r>     4.9982   233.1121   505.2405 </r>
       <r>     5.0436   233.7872   515.8439 </r>
       <r>     5.0889   230.5758   526.3016 </r>
       <r>     5.1343   226.2299   536.5623 </r>
       <r>     5.1796   223.2638   546.6884 </r>
       <r>     5.2250   223.5290   556.8265 </r>
       <r>     5.2704   228.1619   567.1748 </r>
       <r>     5.3157   237.3396   577.9393 </r>
       <r>     5.3611   249.6632   589.2627 </r>
       <r>     5.4064   261.7416   601.1340 </r>
       <r>     5.4518   268.8530   613.3278 </r>
       <r>     5.4971   266.8956   625.4328 </r>
       <r>     5.5425   254.6372   636.9818 </r>
       <r>     5.5878   234.6690   647.6252 </r>
       <r>     5.6332   212.1910   657.2491 </r>
       <r>     5.6785   192.3075   665.9712 </r>
       <r>     5.7239   177.6069   674.0265 </r>
       <r>     5.7693   167.5541   681.6259 </r>
       <r>     5.8146   159.8590   688.8763 </r>
       <r>     5.8600   152.6312   695.7989 </r>
       <r>     5.9053   145.7777   702.4106 </r>
       <r>     5.9507   140.8656   708.7995 </r>
       <r>     5.9960   139.8265   715.1413 </r>
       <r>     6.0414   143.5513   721.6521 </r>
       <r>     6.0867   151.2722   728.5130 </r>
       <r>     6.1321   160.9654   735.8136 </r>
       <r>     6.1774   170.3957   743.5419 </r>
       <r>     6.2228   178.1893   751.6236 </r>
       <r>     6.2682   184.3827   759.9863 </r>
       <r>     6.3135   190.1140   768.6089 </r>
       <r>     6.3589   196.5333   777.5226 </r>
       <r>     6.4042   203.6001   786.7569 </r>
       <r>     6.4496   209.7554   796.2703 </r>
       <r>     6.4949   212.9508   805.9287 </r>
       <r>     6.5403   212.3351   815.5591 </r>
       <r>     6.5856   209.1161   825.0435 </r>
       <r>     6.6310   205.6719   834.3718 </r>
       <r>     6.6764   203.5351   843.6031 </r>
       <r>     6.7217   202.0036   852.7649 </r>
       <r>     6.7671   198.7016   861.7770 </r>
       <r>     6.8124   191.7448   870.4736 </r>
       <r>     6.8578   181.7209   878.7155 </r>
       <r>     6.9031   171.7798   886.5066 </r>
       <r>     6.9485   165.6814   894.0210 </r>
       <r>     6.9938   165.3320   901.5196 </r>
       <r>     7.0392   169.7088   909.2168 </r>
       <r>     7.0845   175.8516   917.1925 </r>
       <r>     7.1299   180.9431   925.3991 </r>
       <r>     7.1753   183.8441   933.7374 </r>
       <r>     7.2206   185.2168   942.1378 </r>
       <r>     7.2660   186.6260   950.6022 </r>
       <r>     7.3113   189.5476   959.1992 </r>
       <r>     7.3567   194.7756   968.0332 </r>
       <r>     7.4020   202.0664   977.1979 </r>
       <r>     7.4474   209.7699   986.7120 </r>
       <r>     7.4927   214.6375   996.4468 </r>
       <r>     7.5381   212.3346  1006.0772 </r>
       <r>     7.5835   198.9201  1015.0992 </r>
       <r>     7.6288   172.8185  1022.9374 </r>
       <r>     7.6742   136.1931  1029.1144 </r>
       <r>     7.7195    94.7091  1033.4099 </r>
       <r>     7.7649    55.5460  1035.9292 </r>
       <r>     7.8102    24.6479  1037.0471 </r>
       <r>     7.8556     4.7232  1037.2613 </r>
       <r>     7.9009    -5.0261  1037.0334 </r>
       <r>     7.9463    -7.6239  1036.6876 </r>
       <r>     7.9916    -6.5246  1036.3917 </r>
       <r>     8.0370    -4.3300  1036.1953 </r>
       <r>     8.0824    -2.4055  1036.0862 </r>
       <r>     8.1277    -1.1532  1036.0339 </r>
       <r>     8.1731    -0.4844  1036.0119 </r>
       <r>     8.2184    -0.1797  1036.0037 </r>
       <r>     8.2638    -0.0593  1036.0011 </r>
       <r>     8.3091    -0.0174  1036.0003 </r>
       <r>     8.3545    -0.0046  1036.0001 </r>
       <r>     8.3998    -0.0011  1036.0000 </r>
       <r>     8.4452    -0.0002  1036.0000 </r>
       <r>     8.4905    -0.0000  1036.0000 </r>
       <r>     8.5359    -0.0000  1036.0000 </r>
       <r>     8.5813    -0.0000  1036.0000 </r>
       <r>     8.6266    -0.0000  1036.0000 </r>
       <r>     8.6720    -0.0000  1036.0000 </r>
       <r>     8.7173    -0.0000  1036.0000 </r>
       <r>     8.7627    -0.0000  1036.0000 </r>
       <r>     8.8080    -0.0000  1036.0000 </r>
       <r>     8.8534    -0.0000  1036.0000 </r>
       <r>     8.8987    -0.0000  1036.0000 </r>
       <r>     8.9441     0.0000  1036.0000 </r>
       <r>     8.9895     0.0000  1036.0000 </r>
       <r>     9.0348     0.0000  1036.0000 </r>
       <r>     9.0802     0.0000  1036.0000 </r>
       <r>     9.1255     0.0000  1036.0000 </r>
       <r>     9.1709     0.0000  1036.0000 </r>
       <r>     9.2162     0.0000  1036.0000 </r>
       <r>     9.2616     0.0000  1036.0000 </r>
       <r>     9.3069     0.0000  1036.0000 </r>
       <r>     9.3523     0.0000  1036.0000 </r>
       <r>     9.3976     0.0000  1036.0000 </r>
       <r>     9.4430     0.0000  1036.0000 </r>
       <r>     9.4884     0.0000  1036.0000 </r>
       <r>     9.5337     0.0000  1036.0000 </r>
       <r>     9.5791     0.0000  1036.0000 </r>
       <r>     9.6244     0.0000  1036.0000 </r>
       <r>     9.6698     0.0000  1036.0000 </r>
      </set>
     </set>
    </array>
   </total>
  </dos>
 </calculation>
 <structure name="finalpos" >
  <crystal>
   <varray name="basis" >
    <v>      10.34207184       0.00000000      -0.00000000 </v>
    <v>      -0.00000000      10.34207184      -0.00000000 </v>
    <v>       0.00000000       0.00000000      10.34207184 </v>
   </varray>
   <i name="volume">   1106.17197165 </i>
   <varray name="rec_basis" >
    <v>       0.09669242       0.00000000      -0.00000000 </v>
    <v>      -0.00000000       0.09669242      -0.00000000 </v>
    <v>       0.00000000       0.00000000       0.09669242 </v>
   </varray>
  </crystal>
  <varray name="positions" >
   <v>       0.00000000      -0.00000000      -0.00000000 </v>
   <v>       0.00000000       0.16666893       0.16666893 </v>
   <v>       0.16666893       0.00000000       0.16666893 </v>
   <v>       0.16666893       0.16666893       0.00000000 </v>
   <v>       0.33333106      -0.00000000      -0.00000000 </v>
   <v>       0.33333107       0.16666893       0.16666893 </v>
   <v>       0.50000000      -0.00000000       0.16666894 </v>
   <v>       0.50000000       0.16666894       0.00000000 </v>
   <v>       0.66666897      -0.00000000      -0.00000000 </v>
   <v>       0.66666896       0.16666893       0.16666893 </v>
   <v>       0.83333104       0.00000000       0.16666893 </v>
   <v>       0.83333104       0.16666893       0.00000000 </v>
   <v>       0.00000000       0.33333106      -0.00000000 </v>
   <v>       0.00000000       0.50000000       0.16666894 </v>
   <v>       0.16666893       0.33333107       0.16666893 </v>
   <v>       0.16666894       0.50000000       0.00000000 </v>
   <v>       0.33333107       0.33333107       0.00000000 </v>
   <v>       0.33333107       0.50000000       0.16666893 </v>
   <v>       0.50000000       0.33333107       0.16666893 </v>
   <v>       0.50000000       0.50000000      -0.00000000 </v>
   <v>       0.66666896       0.33333107      -0.00000000 </v>
   <v>       0.66666896       0.50000000       0.16666893 </v>
   <v>       0.83333104       0.33333107       0.16666893 </v>
   <v>       0.83333103       0.50000000      -0.00000000 </v>
   <v>      -0.00000000       0.66666897       0.00000000 </v>
   <v>       0.00000000       0.83333104       0.16666893 </v>
   <v>       0.16666893       0.66666896       0.16666893 </v>
   <v>       0.16666893       0.83333104       0.00000000 </v>
   <v>       0.33333107       0.66666896       0.00000000 </v>
   <v>       0.33333107       0.83333104       0.16666893 </v>
   <v>       0.50000000       0.66666896       0.16666893 </v>
   <v>       0.50000000       0.83333103      -0.00000000 </v>
   <v>       0.66666896       0.66666896      -0.00000000 </v>
   <v>       0.66666896       0.83333104       0.16666893 </v>
   <v>       0.83333104       0.66666896       0.16666893 </v>
   <v>       0.83333104       0.83333104       0.00000000 </v>
   <v>      -0.00000000      -0.00000000       0.33333106 </v>
   <v>      -0.00000000       0.16666894       0.50000000 </v>
   <v>       0.16666894       0.00000000       0.50000000 </v>
   <v>       0.16666893       0.16666893       0.33333107 </v>
   <v>       0.33333107      -0.00000000       0.33333107 </v>
   <v>       0.33333107       0.16666893       0.50000000 </v>
   <v>       0.50000000      -0.00000000       0.50000000 </v>
   <v>       0.50000000       0.16666893       0.33333107 </v>
   <v>       0.66666896      -0.00000000       0.33333107 </v>
   <v>       0.66666896       0.16666893       0.50000000 </v>
   <v>       0.83333103       0.00000000       0.50000000 </v>
   <v>       0.83333104       0.16666893       0.33333107 </v>
   <v>      -0.00000000       0.33333107       0.33333107 </v>
   <v>      -0.00000000       0.50000000       0.50000000 </v>
   <v>       0.16666893       0.33333107       0.50000000 </v>
   <v>       0.16666893       0.50000000       0.33333107 </v>
   <v>       0.33333107       0.33333107       0.33333107 </v>
   <v>       0.33333106       0.50000000       0.50000000 </v>
   <v>       0.50000000       0.33333106       0.50000000 </v>
   <v>       0.50000000       0.50000000       0.33333106 </v>
   <v>       0.66666896       0.33333107       0.33333107 </v>
   <v>       0.66666897       0.50000000       0.50000000 </v>
   <v>       0.83333104       0.33333107       0.50000000 </v>
   <v>       0.83333104       0.50000000       0.33333107 </v>
   <v>      -0.00000000       0.66666896       0.33333107 </v>
   <v>      -0.00000000       0.83333103       0.50000000 </v>
   <v>       0.16666893       0.66666896       0.50000000 </v>
   <v>       0.16666893       0.83333104       0.33333107 </v>
   <v>       0.33333107       0.66666896       0.33333107 </v>
   <v>       0.33333107       0.83333104       0.50000000 </v>
   <v>       0.50000000       0.66666897       0.50000000 </v>
   <v>       0.50000000       0.83333104       0.33333107 </v>
   <v>       0.66666896       0.66666896       0.33333107 </v>
   <v>       0.66666896       0.83333104       0.50000000 </v>
   <v>       0.83333104       0.66666896       0.50000000 </v>
   <v>       0.83333104       0.83333104       0.33333107 </v>
   <v>      -0.00000000      -0.00000000       0.66666897 </v>
   <v>      -0.00000000       0.16666893       0.83333104 </v>
   <v>       0.16666893       0.00000000       0.83333104 </v>
   <v>       0.16666893       0.16666893       0.66666896 </v>
   <v>       0.33333107       0.00000000       0.66666896 </v>
   <v>       0.33333107       0.16666893       0.83333104 </v>
   <v>       0.50000000       0.00000000       0.83333103 </v>
   <v>       0.50000000       0.16666893       0.66666896 </v>
   <v>       0.66666896       0.00000000       0.66666896 </v>
   <v>       0.66666896       0.16666893       0.83333104 </v>
   <v>       0.83333104       0.00000000       0.83333104 </v>
   <v>       0.83333104       0.16666893       0.66666896 </v>
   <v>      -0.00000000       0.33333107       0.66666896 </v>
   <v>      -0.00000000       0.50000000       0.83333103 </v>
   <v>       0.16666893       0.33333107       0.83333104 </v>
   <v>       0.16666893       0.50000000       0.66666896 </v>
   <v>       0.33333107       0.33333107       0.66666896 </v>
   <v>       0.33333107       0.50000000       0.83333104 </v>
   <v>       0.50000000       0.33333107       0.83333104 </v>
   <v>       0.50000000       0.50000000       0.66666897 </v>
   <v>       0.66666896       0.33333107       0.66666896 </v>
   <v>       0.66666896       0.50000000       0.83333104 </v>
   <v>       0.83333104       0.33333107       0.83333104 </v>
   <v>       0.83333104       0.50000000       0.66666896 </v>
   <v>      -0.00000000       0.66666896       0.66666896 </v>
   <v>       0.00000000       0.83333104       0.83333104 </v>
   <v>       0.16666893       0.66666896       0.83333104 </v>
   <v>       0.16666893       0.83333104       0.66666896 </v>
   <v>       0.33333107       0.66666896       0.66666896 </v>
   <v>       0.33333107       0.83333104       0.83333104 </v>
   <v>       0.50000000       0.66666896       0.83333104 </v>
   <v>       0.50000000       0.83333104       0.66666896 </v>
   <v>       0.66666896       0.66666896       0.66666896 </v>
   <v>       0.66666896       0.83333104       0.83333104 </v>
   <v>       0.83333104       0.66666896       0.83333104 </v>
   <v>       0.83333104       0.83333104       0.66666896 </v>
  </varray>
 </structure>
</modeling>
