  107  107  100    1
  0.1031640E+02  0.1033485E-08  0.1033485E-08  0.1033485E-08  0.5000000E-15
  1.000000000000000E-004
  CAR 
 NEB                                     
    856     32    514
 
  0.1250000E+00  0.1250000E+00  0.1250000E+00  0.3125000E-01
    1       -1.980609   1.000000
    2       -0.877630   1.000000
    3       -0.872298   1.000000
    4       -0.799481   1.000000
    5       -0.192902   1.000000
    6       -0.188822   1.000000
    7       -0.118076   1.000000
    8        0.138277   1.000000
    9        0.146129   1.000000
   10        0.217911   1.000000
   11        0.734698   1.000000
   12        0.740074   1.000000
   13        0.750439   1.000000
   14        0.770444   1.000000
   15        0.783192   1.000000
   16        0.860170   1.000000
   17        0.896531   1.000000
   18        1.260619   1.000000
   19        1.267650   1.000000
   20        1.280153   1.000000
   21        1.296509   1.000000
   22        1.314810   1.000000
   23        1.374923   1.000000
   24        1.532697   1.000000
   25        1.546303   1.000000
   26        1.581057   1.000000
   27        1.683474   1.000000
   28        1.738646   1.000000
   29        1.742906   1.000000
   30        1.752035   1.000000
   31        1.832508   1.000000
   32        1.839634   1.000000
   33        1.855769   1.000000
   34        1.944097   1.000000
   35        1.944428   1.000000
   36        1.968674   1.000000
   37        2.264003   1.000000
   38        2.287616   1.000000
   39        2.289965   1.000000
   40        2.364784   1.000000
   41        2.382059   1.000000
   42        2.388281   1.000000
   43        2.392282   1.000000
   44        2.402287   1.000000
   45        2.414349   1.000000
   46        2.423239   1.000000
   47        2.429788   1.000000
   48        2.434427   1.000000
   49        2.438431   1.000000
   50        2.444945   1.000000
   51        2.453147   1.000000
   52        2.459539   1.000000
   53        2.468045   1.000000
   54        2.469031   1.000000
   55        2.471995   1.000000
   56        2.477073   1.000000
   57        2.495171   1.000000
   58        2.514826   1.000000
   59        2.517291   1.000000
   60        2.548670   1.000000
   61        2.548812   1.000000
   62        2.560797   1.000000
   63        2.565563   1.000000
   64        2.585331   1.000000
   65        2.586334   1.000000
   66        2.629062   1.000000
   67        2.630205   1.000000
   68        2.648617   1.000000
   69        2.651741   1.000000
   70        2.659471   1.000000
   71        2.660905   1.000000
   72        2.677273   1.000000
   73        2.677628   1.000000
   74        2.684251   1.000000
   75        2.696528   1.000000
   76        2.697750   1.000000
   77        2.715076   1.000000
   78        2.717493   1.000000
   79        2.727689   1.000000
   80        2.736936   1.000000
   81        2.747501   1.000000
   82        2.757148   1.000000
   83        2.766936   1.000000
   84        2.780519   1.000000
   85        2.792376   1.000000
   86        2.830355   1.000000
   87        2.835932   1.000000
   88        2.855597   1.000000
   89        2.860676   1.000000
   90        2.866922   1.000000
   91        2.901149   1.000000
   92        2.933403   1.000000
   93        2.942007   1.000000
   94        2.966382   1.000000
   95        2.968875   1.000000
   96        2.995133   1.000000
   97        3.000850   1.000000
   98        3.002572   1.000000
   99        3.010080   1.000000
  100        3.020655   1.000000
  101        3.029321   1.000000
  102        3.030089   1.000000
  103        3.068877   1.000000
  104        3.080156   1.000000
  105        3.081062   1.000000
  106        3.098732   1.000000
  107        3.107933   1.000000
  108        3.113479   1.000000
  109        3.125226   1.000000
  110        3.163989   1.000000
  111        3.169969   1.000000
  112        3.227113   1.000000
  113        3.229779   1.000000
  114        3.237781   1.000000
  115        3.258617   1.000000
  116        3.262446   1.000000
  117        3.277076   1.000000
  118        3.310842   1.000000
  119        3.314268   1.000000
  120        3.334421   1.000000
  121        3.349655   1.000000
  122        3.354933   1.000000
  123        3.362666   1.000000
  124        3.378908   1.000000
  125        3.391477   1.000000
  126        3.394179   1.000000
  127        3.401996   1.000000
  128        3.406031   1.000000
  129        3.408007   1.000000
  130        3.411929   1.000000
  131        3.416945   1.000000
  132        3.431279   1.000000
  133        3.438473   1.000000
  134        3.444609   1.000000
  135        3.454720   1.000000
  136        3.462227   1.000000
  137        3.467571   1.000000
  138        3.490870   1.000000
  139        3.492644   1.000000
  140        3.512937   1.000000
  141        3.514978   1.000000
  142        3.530966   1.000000
  143        3.536513   1.000000
  144        3.562850   1.000000
  145        3.595892   1.000000
  146        3.602321   1.000000
  147        3.608626   1.000000
  148        3.618722   1.000000
  149        3.645728   1.000000
  150        3.648494   1.000000
  151        3.659136   1.000000
  152        3.662933   1.000000
  153        3.664561   1.000000
  154        3.678608   1.000000
  155        3.692330   1.000000
  156        3.724948   1.000000
  157        3.737281   1.000000
  158        3.770596   1.000000
  159        3.804732   1.000000
  160        3.805336   1.000000
  161        3.830245   1.000000
  162        3.832588   1.000000
  163        3.845217   1.000000
  164        3.872118   1.000000
  165        3.910815   1.000000
  166        3.919330   1.000000
  167        3.932604   1.000000
  168        3.933197   1.000000
  169        3.991107   1.000000
  170        3.999619   1.000000
  171        4.016330   1.000000
  172        4.043379   1.000000
  173        4.073106   1.000000
  174        4.117056   1.000000
  175        4.125341   1.000000
  176        4.126050   1.000000
  177        4.176742   1.000000
  178        4.182221   1.000000
  179        4.186005   1.000000
  180        4.196919   1.000000
  181        4.204014   1.000000
  182        4.214199   1.000000
  183        4.223569   1.000000
  184        4.227793   1.000000
  185        4.230116   1.000000
  186        4.239155   1.000000
  187        4.239647   1.000000
  188        4.257740   1.000000
  189        4.263298   1.000000
  190        4.285639   1.000000
  191        4.295293   1.000000
  192        4.303029   1.000000
  193        4.330739   1.000000
  194        4.360143   1.000000
  195        4.365017   1.000000
  196        4.365213   1.000000
  197        4.378537   1.000000
  198        4.379992   1.000000
  199        4.381144   1.000000
  200        4.385772   1.000000
  201        4.394513   1.000000
  202        4.396886   1.000000
  203        4.399344   1.000000
  204        4.413035   1.000000
  205        4.413735   1.000000
  206        4.426319   1.000000
  207        4.438708   1.000000
  208        4.457185   1.000000
  209        4.469086   1.000000
  210        4.481286   1.000000
  211        4.484283   1.000000
  212        4.495937   1.000000
  213        4.501200   1.000000
  214        4.508528   1.000000
  215        4.547001   1.000000
  216        4.553091   1.000000
  217        4.574227   1.000000
  218        4.575199   1.000000
  219        4.588580   1.000000
  220        4.617966   1.000000
  221        4.636362   1.000000
  222        4.645781   1.000000
  223        4.646900   1.000000
  224        4.685665   1.000000
  225        4.688806   1.000000
  226        4.705909   1.000000
  227        4.720411   1.000000
  228        4.733188   1.000000
  229        4.741560   1.000000
  230        4.747143   1.000000
  231        4.752585   1.000000
  232        4.765196   1.000000
  233        4.769816   1.000000
  234        4.783826   1.000000
  235        4.784017   1.000000
  236        4.793536   1.000000
  237        4.836169   1.000000
  238        4.843936   1.000000
  239        4.847677   1.000000
  240        4.871504   1.000000
  241        4.891876   1.000000
  242        4.898674   1.000000
  243        4.908166   1.000000
  244        4.930503   1.000000
  245        4.935346   1.000000
  246        4.940026   1.000000
  247        4.953137   1.000000
  248        4.974281   1.000000
  249        4.980876   1.000000
  250        4.986253   1.000000
  251        4.998073   1.000000
  252        4.998367   1.000000
  253        5.001625   1.000000
  254        5.004114   1.000000
  255        5.006195   1.000000
  256        5.011816   1.000000
  257        5.023290   1.000000
  258        5.029667   1.000000
  259        5.040747   1.000000
  260        5.040985   1.000000
  261        5.047517   1.000000
  262        5.051538   1.000000
  263        5.063860   1.000000
  264        5.068889   1.000000
  265        5.073764   1.000000
  266        5.082408   1.000000
  267        5.082745   1.000000
  268        5.088940   1.000000
  269        5.095943   1.000000
  270        5.101440   1.000000
  271        5.108384   1.000000
  272        5.125122   1.000000
  273        5.131907   1.000000
  274        5.134233   1.000000
  275        5.140326   1.000000
  276        5.153032   1.000000
  277        5.154727   1.000000
  278        5.167712   1.000000
  279        5.169803   1.000000
  280        5.185016   1.000000
  281        5.186754   1.000000
  282        5.190536   1.000000
  283        5.202543   1.000000
  284        5.209218   1.000000
  285        5.214179   1.000000
  286        5.214652   1.000000
  287        5.219986   1.000000
  288        5.221401   1.000000
  289        5.228943   1.000000
  290        5.232480   1.000000
  291        5.236216   1.000000
  292        5.237100   1.000000
  293        5.239087   1.000000
  294        5.257115   1.000000
  295        5.265704   1.000000
  296        5.278652   1.000000
  297        5.283381   1.000000
  298        5.286809   1.000000
  299        5.288507   1.000000
  300        5.318524   1.000000
  301        5.319775   1.000000
  302        5.321531   1.000000
  303        5.329625   1.000000
  304        5.354370   1.000000
  305        5.357268   1.000000
  306        5.369571   1.000000
  307        5.386851   1.000000
  308        5.404180   1.000000
  309        5.413934   1.000000
  310        5.427038   1.000000
  311        5.474135   1.000000
  312        5.482033   1.000000
  313        5.490413   1.000000
  314        5.496597   1.000000
  315        5.510125   1.000000
  316        5.516541   1.000000
  317        5.516603   1.000000
  318        5.524379   1.000000
  319        5.527446   1.000000
  320        5.527831   1.000000
  321        5.530742   1.000000
  322        5.545649   1.000000
  323        5.551027   1.000000
  324        5.567798   1.000000
  325        5.571123   1.000000
  326        5.575049   1.000000
  327        5.586279   1.000000
  328        5.596797   1.000000
  329        5.604120   1.000000
  330        5.610635   1.000000
  331        5.628624   1.000000
  332        5.636514   1.000000
  333        5.656753   1.000000
  334        5.660459   1.000000
  335        5.666620   1.000000
  336        5.675026   1.000000
  337        5.675077   1.000000
  338        5.685777   1.000000
  339        5.695737   1.000000
  340        5.701028   1.000000
  341        5.713428   1.000000
  342        5.734044   1.000000
  343        5.737599   1.000000
  344        5.752800   1.000000
  345        5.754046   1.000000
  346        5.766321   1.000000
  347        5.773800   1.000000
  348        5.785658   1.000000
  349        5.787145   1.000000
  350        5.794638   1.000000
  351        5.818758   1.000000
  352        5.821083   1.000000
  353        5.824426   1.000000
  354        5.833297   1.000000
  355        5.835129   1.000000
  356        5.845477   1.000000
  357        5.847101   1.000000
  358        5.867327   1.000000
  359        5.911722   1.000000
  360        5.930628   1.000000
  361        5.940026   1.000000
  362        5.963739   1.000001
  363        5.979974   1.000001
  364        6.000375   1.000002
  365        6.019016   1.000004
  366        6.040727   1.000009
  367        6.047364   1.000011
  368        6.081385   1.000031
  369        6.098316   1.000052
  370        6.133318   1.000139
  371        6.136618   1.000152
  372        6.152974   1.000234
  373        6.153229   1.000235
  374        6.164451   1.000314
  375        6.165887   1.000326
  376        6.172155   1.000382
  377        6.173668   1.000397
  378        6.179448   1.000458
  379        6.181521   1.000481
  380        6.208369   1.000910
  381        6.214868   1.001055
  382        6.232153   1.001546
  383        6.246089   1.002076
  384        6.268041   1.003226
  385        6.277518   1.003867
  386        6.289078   1.004787
  387        6.323743   1.008625
  388        6.325310   1.008841
  389        6.341593   1.011318
  390        6.352426   1.013201
  391        6.368399   1.016302
  392        6.381178   1.019026
  393        6.390523   1.021120
  394        6.397036   1.022613
  395        6.412625   1.026212
  396        6.415411   1.026846
  397        6.422121   1.028343
  398        6.445601   1.032909
  399        6.454632   1.034190
  400        6.459525   1.034723
  401        6.482908   1.035137
  402        6.503136   1.031520
  403        6.515720   1.026744
  404        6.533196   1.016103
  405        6.541087   1.009543
  406        6.553987   0.996179
  407        6.557320   0.992160
  408        6.566606   0.979661
  409        6.578652   0.960471
  410        6.581481   0.955460
  411        6.584631   0.949649
  412        6.592521   0.934012
  413        6.607060   0.901098
  414        6.618092   0.872568
  415        6.626656   0.848340
  416        6.633104   0.828930
  417        6.643944   0.794137
  418        6.656350   0.751208
  419        6.678961   0.665694
  420        6.682084   0.653275
  421        6.708643   0.543739
  422        6.711561   0.531433
  423        6.716676   0.509811
  424        6.723228   0.482092
  425        6.746077   0.386565
  426        6.752852   0.358989
  427        6.762231   0.321709
  428        6.762285   0.321497
  429        6.784273   0.239421
  430        6.793109   0.208996
  431        6.806330   0.166639
  432        6.807354   0.163524
  433        6.816983   0.135477
  434        6.834138   0.091182
  435        6.849728   0.057356
  436        6.850102   0.056620
  437        6.860622   0.037319
  438        6.874272   0.016243
  439        6.894838  -0.007630
  440        6.917584  -0.024379
  441        6.922128  -0.026678
  442        6.925807  -0.028310
  443        6.933043  -0.030965
  444        6.948680  -0.034464
  445        6.961971  -0.035443
  446        6.970365  -0.035306
  447        6.976022  -0.034941
  448        6.979073  -0.034664
  449        6.987085  -0.033704
  450        6.991769  -0.033008
  451        6.996998  -0.032131
  452        7.004180  -0.030787
  453        7.005085  -0.030607
  454        7.009679  -0.029669
  455        7.013008  -0.028964
  456        7.017902  -0.027894
  457        7.019440  -0.027552
  458        7.036923  -0.023545
  459        7.050297  -0.020479
  460        7.051938  -0.020109
  461        7.056107  -0.019181
  462        7.068191  -0.016591
  463        7.069205  -0.016382
  464        7.079462  -0.014342
  465        7.098779  -0.010929
  466        7.124000  -0.007367
  467        7.128960  -0.006783
  468        7.132802  -0.006356
  469        7.138104  -0.005800
  470        7.147829  -0.004882
  471        7.153780  -0.004380
  472        7.169538  -0.003252
  473        7.177705  -0.002770
  474        7.179322  -0.002682
  475        7.180572  -0.002616
  476        7.187674  -0.002265
  477        7.213971  -0.001295
  478        7.226787  -0.000971
  479        7.234322  -0.000817
  480        7.240411  -0.000708
  481        7.245340  -0.000630
  482        7.264922  -0.000391
  483        7.282824  -0.000248
  484        7.290828  -0.000201
  485        7.296736  -0.000172
  486        7.304782  -0.000138
  487        7.310412  -0.000118
  488        7.311757  -0.000114
  489        7.320741  -0.000089
  490        7.328148  -0.000072
  491        7.339390  -0.000052
  492        7.346596  -0.000042
  493        7.351344  -0.000037
  494        7.352682  -0.000035
  495        7.356741  -0.000031
  496        7.370288  -0.000021
  497        7.370719  -0.000020
  498        7.381059  -0.000015
  499        7.383837  -0.000014
  500        7.394255  -0.000010
  501        7.397255  -0.000009
  502        7.407964  -0.000006
  503        7.437515  -0.000002
  504        7.441844  -0.000002
  505        7.451786  -0.000001
  506        7.453358  -0.000001
  507        7.471240  -0.000001
  508        7.471987  -0.000001
  509        7.474340  -0.000001
  510        7.489724  -0.000000
  511        7.493439  -0.000000
  512        7.499483  -0.000000
  513        7.502093  -0.000000
  514        7.506431  -0.000000
 
  0.3750000E+00  0.1250000E+00  0.1250000E+00  0.3125000E-01
    1       -1.785619   1.000000
    2       -1.401313   1.000000
    3       -0.696397   1.000000
    4       -0.650992   1.000000
    5       -0.351461   1.000000
    6       -0.302772   1.000000
    7       -0.023385   1.000000
    8        0.020272   1.000000
    9        0.287106   1.000000
   10        0.297304   1.000000
   11        0.364747   1.000000
   12        0.545413   1.000000
   13        0.582933   1.000000
   14        0.866381   1.000000
   15        0.874409   1.000000
   16        1.041358   1.000000
   17        1.055491   1.000000
   18        1.273316   1.000000
   19        1.360357   1.000000
   20        1.409539   1.000000
   21        1.433105   1.000000
   22        1.471745   1.000000
   23        1.688385   1.000000
   24        1.813296   1.000000
   25        1.823087   1.000000
   26        1.829949   1.000000
   27        1.871421   1.000000
   28        1.878609   1.000000
   29        1.883012   1.000000
   30        1.895632   1.000000
   31        1.913527   1.000000
   32        1.946719   1.000000
   33        1.964581   1.000000
   34        1.968327   1.000000
   35        2.023079   1.000000
   36        2.038400   1.000000
   37        2.050711   1.000000
   38        2.058711   1.000000
   39        2.088081   1.000000
   40        2.089048   1.000000
   41        2.103172   1.000000
   42        2.120699   1.000000
   43        2.138133   1.000000
   44        2.170338   1.000000
   45        2.180496   1.000000
   46        2.196135   1.000000
   47        2.246291   1.000000
   48        2.258454   1.000000
   49        2.331807   1.000000
   50        2.337785   1.000000
   51        2.405424   1.000000
   52        2.414744   1.000000
   53        2.430944   1.000000
   54        2.445883   1.000000
   55        2.447480   1.000000
   56        2.455392   1.000000
   57        2.465068   1.000000
   58        2.469536   1.000000
   59        2.506072   1.000000
   60        2.531320   1.000000
   61        2.535113   1.000000
   62        2.542782   1.000000
   63        2.560630   1.000000
   64        2.564939   1.000000
   65        2.584725   1.000000
   66        2.602163   1.000000
   67        2.610018   1.000000
   68        2.644539   1.000000
   69        2.649621   1.000000
   70        2.656233   1.000000
   71        2.665184   1.000000
   72        2.671282   1.000000
   73        2.685055   1.000000
   74        2.689263   1.000000
   75        2.690228   1.000000
   76        2.713106   1.000000
   77        2.723139   1.000000
   78        2.732776   1.000000
   79        2.751782   1.000000
   80        2.759102   1.000000
   81        2.790251   1.000000
   82        2.809989   1.000000
   83        2.815869   1.000000
   84        2.819395   1.000000
   85        2.840137   1.000000
   86        2.842866   1.000000
   87        2.854334   1.000000
   88        2.867707   1.000000
   89        2.883522   1.000000
   90        2.885756   1.000000
   91        2.899552   1.000000
   92        2.916353   1.000000
   93        2.941136   1.000000
   94        2.948434   1.000000
   95        2.957633   1.000000
   96        2.960709   1.000000
   97        2.978145   1.000000
   98        2.990546   1.000000
   99        2.997240   1.000000
  100        3.035581   1.000000
  101        3.056791   1.000000
  102        3.065468   1.000000
  103        3.082502   1.000000
  104        3.091019   1.000000
  105        3.122760   1.000000
  106        3.128057   1.000000
  107        3.139686   1.000000
  108        3.148608   1.000000
  109        3.157100   1.000000
  110        3.163980   1.000000
  111        3.179463   1.000000
  112        3.189595   1.000000
  113        3.204830   1.000000
  114        3.209538   1.000000
  115        3.223067   1.000000
  116        3.232977   1.000000
  117        3.250401   1.000000
  118        3.256877   1.000000
  119        3.274991   1.000000
  120        3.315313   1.000000
  121        3.321007   1.000000
  122        3.344788   1.000000
  123        3.345541   1.000000
  124        3.370110   1.000000
  125        3.371055   1.000000
  126        3.396639   1.000000
  127        3.407190   1.000000
  128        3.408273   1.000000
  129        3.434041   1.000000
  130        3.436745   1.000000
  131        3.451114   1.000000
  132        3.461356   1.000000
  133        3.471062   1.000000
  134        3.482331   1.000000
  135        3.496160   1.000000
  136        3.504758   1.000000
  137        3.516366   1.000000
  138        3.520940   1.000000
  139        3.530545   1.000000
  140        3.551401   1.000000
  141        3.558759   1.000000
  142        3.572655   1.000000
  143        3.578110   1.000000
  144        3.590870   1.000000
  145        3.608845   1.000000
  146        3.616344   1.000000
  147        3.646793   1.000000
  148        3.660453   1.000000
  149        3.693149   1.000000
  150        3.700449   1.000000
  151        3.710035   1.000000
  152        3.721977   1.000000
  153        3.751594   1.000000
  154        3.768388   1.000000
  155        3.784273   1.000000
  156        3.790503   1.000000
  157        3.795197   1.000000
  158        3.818970   1.000000
  159        3.837372   1.000000
  160        3.847112   1.000000
  161        3.854371   1.000000
  162        3.863274   1.000000
  163        3.881803   1.000000
  164        3.888347   1.000000
  165        3.890396   1.000000
  166        3.916828   1.000000
  167        3.925821   1.000000
  168        3.948891   1.000000
  169        3.954294   1.000000
  170        3.963569   1.000000
  171        3.981470   1.000000
  172        3.994177   1.000000
  173        4.008704   1.000000
  174        4.034202   1.000000
  175        4.037104   1.000000
  176        4.041694   1.000000
  177        4.051240   1.000000
  178        4.076155   1.000000
  179        4.103694   1.000000
  180        4.107718   1.000000
  181        4.130809   1.000000
  182        4.151559   1.000000
  183        4.161675   1.000000
  184        4.172973   1.000000
  185        4.195943   1.000000
  186        4.199228   1.000000
  187        4.204616   1.000000
  188        4.225403   1.000000
  189        4.247130   1.000000
  190        4.253796   1.000000
  191        4.257296   1.000000
  192        4.281959   1.000000
  193        4.305502   1.000000
  194        4.329347   1.000000
  195        4.346370   1.000000
  196        4.356220   1.000000
  197        4.363450   1.000000
  198        4.383218   1.000000
  199        4.385592   1.000000
  200        4.393803   1.000000
  201        4.401263   1.000000
  202        4.421266   1.000000
  203        4.433614   1.000000
  204        4.443918   1.000000
  205        4.457680   1.000000
  206        4.472162   1.000000
  207        4.488106   1.000000
  208        4.495926   1.000000
  209        4.498624   1.000000
  210        4.510221   1.000000
  211        4.517333   1.000000
  212        4.523552   1.000000
  213        4.534323   1.000000
  214        4.546791   1.000000
  215        4.556946   1.000000
  216        4.574483   1.000000
  217        4.589052   1.000000
  218        4.605954   1.000000
  219        4.613966   1.000000
  220        4.621545   1.000000
  221        4.630551   1.000000
  222        4.650619   1.000000
  223        4.666129   1.000000
  224        4.680870   1.000000
  225        4.693313   1.000000
  226        4.709278   1.000000
  227        4.734479   1.000000
  228        4.739240   1.000000
  229        4.748503   1.000000
  230        4.757000   1.000000
  231        4.767146   1.000000
  232        4.781167   1.000000
  233        4.790069   1.000000
  234        4.797986   1.000000
  235        4.805710   1.000000
  236        4.816016   1.000000
  237        4.820372   1.000000
  238        4.827107   1.000000
  239        4.833306   1.000000
  240        4.839119   1.000000
  241        4.849947   1.000000
  242        4.859711   1.000000
  243        4.866255   1.000000
  244        4.870925   1.000000
  245        4.882705   1.000000
  246        4.885247   1.000000
  247        4.897128   1.000000
  248        4.915854   1.000000
  249        4.918835   1.000000
  250        4.926471   1.000000
  251        4.929631   1.000000
  252        4.939948   1.000000
  253        4.946256   1.000000
  254        4.952644   1.000000
  255        4.975637   1.000000
  256        4.983707   1.000000
  257        4.988796   1.000000
  258        4.995524   1.000000
  259        5.000562   1.000000
  260        5.013014   1.000000
  261        5.022984   1.000000
  262        5.032076   1.000000
  263        5.040468   1.000000
  264        5.053178   1.000000
  265        5.064483   1.000000
  266        5.068018   1.000000
  267        5.089553   1.000000
  268        5.095242   1.000000
  269        5.111445   1.000000
  270        5.116326   1.000000
  271        5.128982   1.000000
  272        5.141931   1.000000
  273        5.150628   1.000000
  274        5.160760   1.000000
  275        5.165404   1.000000
  276        5.178676   1.000000
  277        5.185996   1.000000
  278        5.197288   1.000000
  279        5.201016   1.000000
  280        5.212762   1.000000
  281        5.221190   1.000000
  282        5.227646   1.000000
  283        5.230770   1.000000
  284        5.235039   1.000000
  285        5.242758   1.000000
  286        5.246365   1.000000
  287        5.262046   1.000000
  288        5.265552   1.000000
  289        5.271961   1.000000
  290        5.280704   1.000000
  291        5.291728   1.000000
  292        5.293794   1.000000
  293        5.314380   1.000000
  294        5.322276   1.000000
  295        5.325552   1.000000
  296        5.335989   1.000000
  297        5.344031   1.000000
  298        5.348785   1.000000
  299        5.351812   1.000000
  300        5.358434   1.000000
  301        5.367075   1.000000
  302        5.370598   1.000000
  303        5.380030   1.000000
  304        5.384289   1.000000
  305        5.387604   1.000000
  306        5.396916   1.000000
  307        5.403364   1.000000
  308        5.406107   1.000000
  309        5.414159   1.000000
  310        5.422371   1.000000
  311        5.439102   1.000000
  312        5.442373   1.000000
  313        5.445906   1.000000
  314        5.452457   1.000000
  315        5.457116   1.000000
  316        5.465452   1.000000
  317        5.470147   1.000000
  318        5.476418   1.000000
  319        5.487708   1.000000
  320        5.494398   1.000000
  321        5.505732   1.000000
  322        5.511642   1.000000
  323        5.522306   1.000000
  324        5.532894   1.000000
  325        5.538136   1.000000
  326        5.551491   1.000000
  327        5.555511   1.000000
  328        5.567019   1.000000
  329        5.582868   1.000000
  330        5.584853   1.000000
  331        5.598153   1.000000
  332        5.607529   1.000000
  333        5.623910   1.000000
  334        5.634224   1.000000
  335        5.653374   1.000000
  336        5.669249   1.000000
  337        5.675974   1.000000
  338        5.687402   1.000000
  339        5.703562   1.000000
  340        5.712172   1.000000
  341        5.727131   1.000000
  342        5.752362   1.000000
  343        5.764270   1.000000
  344        5.770161   1.000000
  345        5.778758   1.000000
  346        5.789504   1.000000
  347        5.806688   1.000000
  348        5.815337   1.000000
  349        5.833980   1.000000
  350        5.860471   1.000000
  351        5.876367   1.000000
  352        5.891601   1.000000
  353        5.919810   1.000000
  354        5.940972   1.000000
  355        5.966166   1.000001
  356        5.990245   1.000002
  357        6.004124   1.000003
  358        6.015298   1.000004
  359        6.020128   1.000005
  360        6.027365   1.000006
  361        6.038614   1.000008
  362        6.060095   1.000016
  363        6.064400   1.000019
  364        6.071626   1.000023
  365        6.086445   1.000037
  366        6.096088   1.000049
  367        6.110994   1.000075
  368        6.126896   1.000116
  369        6.141946   1.000175
  370        6.146629   1.000198
  371        6.155311   1.000249
  372        6.162601   1.000300
  373        6.165918   1.000326
  374        6.171696   1.000378
  375        6.179384   1.000457
  376        6.186376   1.000542
  377        6.195568   1.000675
  378        6.204919   1.000841
  379        6.222638   1.001256
  380        6.224070   1.001296
  381        6.229603   1.001463
  382        6.235850   1.001673
  383        6.243599   1.001971
  384        6.244851   1.002023
  385        6.248430   1.002179