NEB                                     
           1
    10.334847    0.000000    0.000000
     0.000000   10.334847    0.000000
     0.000000    0.000000   10.334847
   Fe
 107
Direct configuration=     1
   0.99991674  0.00000049  0.00008306
   0.99987318  0.16645833  0.16654232
   0.00009637  0.33376700  0.99990339
   0.00099711  0.49999951  0.16766530
   0.00009631  0.66623254  0.99990336
   0.99987315  0.83354218  0.16654238
   0.00009629  0.00000047  0.33346838
   0.00099708  0.16776111  0.50021629
   0.99994386  0.33347938  0.33336053
   0.00091828  0.49999946  0.50022832
   0.99994382  0.66652020  0.33336056
   0.00099716  0.83223934  0.50021623
   0.00009633  0.00000046  0.66644836
   0.99987322  0.16663814  0.83324142
   0.99994392  0.33349096  0.66673598
   0.00099722  0.49999949  0.83210635
   0.99994392  0.66650861  0.66673593
   0.99987320  0.83336240  0.83324138
   0.16680146  0.00000050  0.16676533
   0.16675819  0.16663811  0.00012652
   0.16675818  0.83336249  0.00012649
   0.16709973  0.33374827  0.49992842
   0.16815269  0.50000004  0.33481849
   0.16709968  0.66625136  0.49992837
   0.16698130  0.00000046  0.83301836
   0.16807420  0.49999945  0.66617850
   0.16669380  0.33347896  0.16661277
   0.16669378  0.66652057  0.16661281
   0.16647088  0.16648565  0.33313696
   0.16647088  0.83351488  0.33313703
   0.16759322  0.16760787  0.66673593
   0.16654131  0.33319087  0.83345825
   0.16654124  0.66680873  0.83345822
   0.16759321  0.83239269  0.66673583
   0.16789389  0.49999948  0.99900246
   0.16699339  0.00000041  0.50021631
   0.33355176  0.00000049  0.99990335
   0.33355207  0.16776040  0.16766468
   0.33355205  0.83224016  0.16766463
   0.33326223  0.33374827  0.33376516
   0.33326213  0.66625129  0.33376507
   0.33326403  0.16760793  0.83240637
   0.33381972  0.33430506  0.66618047
   0.33381920  0.66569453  0.66618013
   0.33326397  0.83239272  0.83240631
   0.33326389  0.33349080  0.00005584
   0.33356353  0.49999946  0.16758732
   0.33326388  0.66650875  0.00005588
   0.33355182  0.00000049  0.33365999
   0.33326391  0.16753069  0.49992895
   0.33326374  0.83246991  0.49992891
   0.33356340  0.00000044  0.66643655
   0.33382144  0.49999942  0.83192500
   0.49978406  0.00000050  0.16676524
   0.49978398  0.16776172  0.99900245
   0.50007137  0.33349087  0.16661276
   0.49977199  0.49999942  0.99908158
   0.50007140  0.66650868  0.16661272
   0.49978404  0.83223888  0.99900237
   0.49977195  0.00000040  0.50022837
   0.50007133  0.16760917  0.33426137
   0.49951339  0.33430554  0.50048697
   0.49951257  0.49999974  0.33474098
   0.49951361  0.66569325  0.50048685
   0.50007134  0.83239141  0.33426129
   0.49978402  0.00000044  0.83300630
   0.50007134  0.16753048  0.66673606
   0.50007184  0.33374827  0.83289967
   0.50007186  0.66625133  0.83289981
   0.50007132  0.83247026  0.66673608
   0.66663986  0.33347928  0.00005588
   0.66543940  0.49999947  0.16766548
   0.66663993  0.66652037  0.00005594
   0.66635202  0.00000040  0.33364833
   0.66573917  0.16760843  0.49992891
   0.66573902  0.83239131  0.49992880
   0.66634041  0.00000038  0.66644815
   0.66518121  0.49999937  0.83184623
   0.66657540  0.16663802  0.16654230
   0.66657542  0.83336246  0.16654223
   0.66679214  0.33319154  0.33320833
   0.66679227  0.66680805  0.33320814
   0.66686338  0.16648554  0.83352865
   0.66623525  0.33374821  0.66673752
   0.66623545  0.66625137  0.66673762
   0.66686344  0.83351506  0.83352878
   0.66653170  0.00000041  0.99990338
   0.66526063  0.49999881  0.50048730
   0.83233418  0.49999953  0.99900248
   0.83323474  0.00000040  0.50021625
   0.83323493  0.33376697  0.16676525
   0.83323492  0.66623259  0.16676523
   0.83345787  0.16663804  0.33342496
   0.83345784  0.83336243  0.33342501
   0.83233554  0.16776025  0.66644784
   0.83338742  0.33347885  0.83330578
   0.83338749  0.66652075  0.83330582
   0.83233553  0.83224026  0.66644775
   0.83341454  0.00000047  0.16658567
   0.83345785  0.16645838  0.00012655
   0.83345781  0.83354214  0.00012656
   0.83338747  0.33349069  0.49992887
   0.83233450  0.49999952  0.33456079
   0.83338763  0.66650891  0.49992880
   0.83323473  0.00000045  0.83319804
   0.83241321  0.49999943  0.66643645
   0.41666778  0.49999940  0.58333222
Direct configuration=     2
   0.99983242  0.00000028  0.00016743
   0.99981710  0.16639789  0.16648519
   0.00006896  0.33380432  0.99993090
   0.00182146  0.49999976  0.16848884
   0.00006895  0.66619543  0.99993089
   0.99981710  0.83360240  0.16648523
   0.00021549  0.00000026  0.33349135
   0.00162991  0.16838412  0.50015116
   0.99995017  0.33342301  0.33336094
   0.00124043  0.49999968  0.50009151
   0.99995012  0.66657678  0.33336089
   0.00162991  0.83161612  0.50015108
   0.00053087  0.00000029  0.66640848
   0.99987202  0.16670038  0.83321977
   1.00027761  0.33350207  0.66678281
   0.00152911  0.49999972  0.83162368
   1.00027759  0.66649764  0.66678277
   0.99987199  0.83329993  0.83321975
   0.16682452  0.00000027  0.16688346
   0.16678003  0.16670035  0.00012784
   0.16678001  0.83329999  0.00012784
   0.16697142  0.33385527  0.49975354
   0.16750674  0.50000004  0.33417325
   0.16697134  0.66614457  0.49975345
   0.16703714  0.00000028  0.83296270
   0.16754892  0.49999968  0.66579117
   0.16669420  0.33342276  0.16661795
   0.16669418  0.66657702  0.16661793
   0.16643527  0.16645430  0.33310151
   0.16643526  0.83354603  0.33310151
   0.16711209  0.16739765  0.66687951
   0.16643743  0.33289155  0.83356232
   0.16643740  0.66710821  0.83356234
   0.16711204  0.83260273  0.66687944
   0.16837651  0.49999973  0.99847076
   0.16693034  0.00000024  0.50025046
   0.33359162  0.00000031  0.99946899
   0.33348604  0.16838377  0.16829690
   0.33348602  0.83161656  0.16829682
   0.33308733  0.33385505  0.33363743
   0.33308727  0.66614479  0.33363731
   0.33312044  0.16739765  0.83288770
   0.33063302  0.32601648  0.66936707
   0.33063281  0.67398311  0.66936671
   0.33312040  0.83260268  0.83288763
   0.33321710  0.33350205 -0.00027773
   0.33342609  0.49999973  0.16790824
   0.33321707  0.66649769 -0.00027770
   0.33358522  0.00000027  0.33359702
   0.33307834  0.16788025  0.49974409
   0.33307829  0.83212005  0.49974402
   0.33343176  0.00000028  0.66656814
   0.33420885  0.49999972  0.83245066
   0.49974333  0.00000028  0.16719880
   0.49984906  0.16838447  0.99836991
   0.50011742  0.33350212  0.16694549
   0.49990860  0.49999969  0.99875945
   0.50011741  0.66649761  0.16694546
   0.49984906  0.83161588  0.99836985
   0.49990274  0.00000022  0.50009736
   0.50021399  0.16739847  0.33377966
   0.50270004  0.32601691  0.49730031
   0.49912498  0.49999982  0.33421571
   0.50270009  0.67398228  0.49730031
   0.50021399  0.83260185  0.33377956
   0.49974971  0.00000027  0.83306954
   0.50025608  0.16788015  0.66692165
   0.50024662  0.33385533  0.83302817
   0.50024662  0.66614447  0.83302823
   0.50025606  0.83212024  0.66692162
   0.66663930  0.33342291  0.00004973
   0.66495664  0.49999968  0.16819658
   0.66663932  0.66657684  0.00004974
   0.66629601  0.00000023  0.33370414
   0.66622066  0.16739805  0.49978611
   0.66622055  0.83260176  0.49978602
   0.66640324  0.00000022  0.66641476
   0.66582644  0.49999964  0.83249240
   0.66655338  0.16670042  0.16654007
   0.66655338  0.83329984  0.16654003
   0.66689560  0.33289213  0.33310469
   0.66689569  0.66710760  0.33310458
   0.66689872  0.16645422  0.83356448
   0.66636290  0.33385490  0.66691249
   0.66636304  0.66614487  0.66691256
   0.66689876  0.83354608  0.83356455
   0.66650867  0.00000028  0.99978436
   0.66578529  0.49999933  0.50087488
   0.83151079  0.49999975  0.99817826
   0.83280119  0.00000023  0.50025682
   0.83326315  0.33380441  0.16673693
   0.83326320  0.66619535  0.16673689
   0.83345999  0.16670045  0.33344682
   0.83346000  0.83329983  0.33344683
   0.83170327  0.16838369  0.66651390
   0.83338216  0.33342266  0.83330557
   0.83338222  0.66657709  0.83330559
   0.83170330  0.83161658  0.66651381
   0.83349966  0.00000029  0.16650040
   0.83351490  0.16639786  0.00018274
   0.83351491  0.83360243  0.00018277
   0.83305469  0.33350196  0.49988272
   0.83180346  0.49999971  0.33504342
   0.83305474  0.66649772  0.49988267
   0.83311659  0.00000029  0.83317525
   0.83209210  0.49999968  0.66657392
   0.41666713  0.49999974  0.58333289
Direct configuration=     3
   0.99980980  0.00000033  0.00019056
   0.99973319  0.16634805  0.16640096
  -0.00022121  0.33400881  1.00022159
   0.00238913  0.49999969  0.16905637
  -0.00022119  0.66599084  1.00022150
   0.99973316  0.83365229  0.16640100
   0.00032652  0.00000035  0.33359852
   0.00189938  0.16861329  0.50010001
   0.99979516  0.33331698  0.33328996
   0.00141872  0.49999959  0.50000280
   0.99979502  0.66668268  0.33328991
   0.00189933  0.83138700  0.50009991
   0.00001157  0.00000034  0.66629771
   0.99969054  0.16665551  0.83324552
   1.00048608  0.33370320  0.66678513
   0.00201818  0.49999969  0.83154496
   1.00048606  0.66629642  0.66678515
   0.99969054  0.83334480  0.83324552
   0.16693182  0.00000040  0.16699425
   0.16675436  0.16665551  0.00030990
   0.16675432  0.83334487  0.00030974
   0.16736618  0.33419405  0.49987418
   0.16685094  0.49999973  0.33351751
   0.16736610  0.66580573  0.49987416
   0.16693979  0.00000028  0.83306013
   0.16833380  0.49999963  0.66530115
   0.16662339  0.33331689  0.16646261
   0.16662328  0.66668272  0.16646252
   0.16633142  0.16639999  0.33299770
   0.16633141  0.83360048  0.33299778
   0.16602213  0.16647686  0.66689360
   0.16630139  0.33287258  0.83369850
   0.16630139  0.66712716  0.83369846
   0.16602221  0.83352353  0.66689359
   0.16845520  0.49999965  0.99798224
   0.16649862  0.00000024  0.50023917
   0.33370189  0.00000034  0.99998886
   0.33343571  0.16861307  0.16856583
   0.33343569  0.83138735  0.16856567
   0.33320822  0.33419383  0.33403247
   0.33320824  0.66580592  0.33403239
   0.33310589  0.16647682  0.83397771
   0.33014120  0.32264773  0.66985832
   0.33014100  0.67735200  0.66985823
   0.33310580  0.83352345  0.83397758
   0.33321431  0.33370326 -0.00048560
   0.33333705  0.49999958  0.16808632
   0.33321429  0.66629642 -0.00048567
   0.33357361  0.00000031  0.33316531
   0.33279947  0.16776551  0.49946530
   0.33279947  0.83223486  0.49946529
   0.33338846  0.00000027  0.66661096
   0.33469836  0.49999967  0.83166594
   0.49963229  0.00000036  0.16667921
   0.49989974  0.16861346  0.99810112
   0.50011935  0.33370331  0.16715376
   0.49999676  0.49999962  0.99858176
   0.50011949  0.66629630  0.16715369
   0.49989977  0.83138690  0.99810098
   0.49994529  0.00000021  0.50005429
   0.50022775  0.16647741  0.33268934
   0.50319177  0.32264838  0.49680801
   0.49863503  0.49999965  0.33500079
   0.50319183  0.67735117  0.49680794
   0.50022787  0.83352295  0.33268941
   0.49976046  0.00000030  0.83350134
   0.50053433  0.16776541  0.66720008
   0.50012539  0.33419406  0.83263349
   0.50012533  0.66580564  0.83263354
   0.50053422  0.83223493  0.66719996
   0.66671019  0.33331692  0.00020541
   0.66487799  0.49999965  0.16868557
   0.66671018  0.66668274  0.00020541
   0.66639142  0.00000106  0.33360860
   0.66731072  0.16647715  0.49977179
   0.66731071  0.83352294  0.49977164
   0.66683482  0.00000027  0.66642586
   0.66648230  0.49999960  0.83314854
   0.66657897  0.16665555  0.16635832
   0.66657901  0.83334470  0.16635829
   0.66703139  0.33287300  0.33296872
   0.66703145  0.66712670  0.33296867
   0.66700238  0.16639986  0.83366847
   0.66596770  0.33419360  0.66679118
   0.66596786  0.66580607  0.66679117
   0.66700247  0.83360048  0.83366858
   0.66640146  0.00000030  0.99967391
   0.66499970  0.49999946  0.50136437
   0.83094382  0.49999969  0.99761118
   0.83332122  0.00000024  0.50036734
   0.83355391  0.33400890  0.16644651
   0.83355390  0.66599078  0.16644647
   0.83364216  0.16665556  0.33342105
   0.83364204  0.83334474  0.33342109
   0.83143482  0.16861297  0.66656380
   0.83353799  0.33331684  0.83337658
   0.83353806  0.66668283  0.83337663
   0.83143483  0.83138735  0.66656366
   0.83352283  0.00000032  0.16647758
   0.83359951  0.16634798  0.00026722
   0.83359946  0.83365232  0.00026721
   0.83284689  0.33370322  0.49988019
   0.83131485  0.49999963  0.33512200
   0.83284687  0.66629641  0.49988012
   0.83300621  0.00000031  0.83306808
   0.83191445  0.49999959  0.66666242
   0.41666702  0.49999961  0.58333298
Direct configuration=     4
   0.99983935  0.00000012  0.00015952
   0.99965216  0.16630930  0.16631804
  -0.00039018  0.33418094  1.00038890
   0.00265373  0.49999992  0.16931943
  -0.00039021  0.66581895  1.00038882
   0.99965207  0.83369084  0.16631800
   0.00044517  0.00000018  0.33361437
   0.00208654  0.16891110  0.50003704
   0.99968664  0.33317415  0.33330600
   0.00148899  0.49999983  0.49998684
   0.99968640  0.66682573  0.33330592
   0.00208634  0.83108903  0.50003695
  -0.00067377  0.00000020  0.66632498
   0.99956500  0.16668768  0.83335852
   1.00066510  0.33397924  0.66679222
   0.00244640  0.49999997  0.83151473
   1.00066499  0.66602055  0.66679226
   0.99956492  0.83331239  0.83335855
   0.16694832  0.00000020  0.16711106
   0.16664211  0.16668765  0.00043375
   0.16664211  0.83331248  0.00043367
   0.16782490  0.33449982  0.50001396
   0.16642573  0.49999980  0.33309214
   0.16782476  0.66550008  0.50001392
   0.16675063  0.00000015  0.83325009
   0.16938164  0.49999983  0.66486227
   0.16663994  0.33317400  0.16635245
   0.16663986  0.66682584  0.16635228
   0.16619143  0.16648604  0.33285706
   0.16619139  0.83351428  0.33285703
   0.16516365  0.16570586  0.66693652
   0.16625591  0.33273926  0.83374478
   0.16625588  0.66726062  0.83374487
   0.16516365  0.83429437  0.66693657
   0.16848601  0.49999992  0.99755212
   0.16602763  0.00000017  0.50016578
   0.33367686  0.00000011  1.00067246
   0.33337053  0.16891097  0.16875177
   0.33337057  0.83108923  0.16875150
   0.33334763  0.33449862  0.33449204
   0.33334678  0.66550034  0.33449088
   0.33306551  0.16570595  0.83483682
   0.33028921  0.32124373  0.66971308
   0.33028921  0.67875610  0.66971305
   0.33306551  0.83429413  0.83483686
   0.33320995  0.33397936 -0.00066665
   0.33331980  0.49999983  0.16815445
   0.33320994  0.66602055 -0.00066673
   0.33349893  0.00000018  0.33269373
   0.33249251  0.16729221  0.49915968
   0.33249265  0.83270799  0.49915970
   0.33338814  0.00000014  0.66661399
   0.33514003  0.49999991  0.83061933
   0.49965779  0.00000015  0.16599211
   0.49996442  0.16891135  0.99791205
   0.50012490  0.33397938  0.16733060
   0.50001490  0.49999992  0.99850905
   0.50012500  0.66602051  0.16733045
   0.49996444  0.83108873  0.99791192
   0.49994618  0.00000010  0.50005548
   0.50026888  0.16570583  0.33182994
   0.50304473  0.32124372  0.49695703
   0.49819435  0.49999982  0.33604750
   0.50304485  0.67875619  0.49695702
   0.50026907  0.83429437  0.33183000
   0.49983573  0.00000010  0.83397280
   0.50084196  0.16729225  0.66750975
   0.49998676  0.33449905  0.83217466
   0.49998683  0.66550090  0.83217466
   0.50084195  0.83270775  0.66750962
   0.66669351  0.33317450  0.00031169
   0.66484755  0.49999989  0.16911189
   0.66669355  0.66682545  0.00031169
   0.66658214  0.00000032  0.33341755
   0.66816969  0.16570571  0.49973262
   0.66816972  0.83429432  0.49973253
   0.66730583  0.00000007  0.66650307
   0.66690701  0.49999995  0.83357451
   0.66669138  0.16668781  0.16623104
   0.66669143  0.83331230  0.16623104
   0.66707763  0.33273941  0.33292208
   0.66707768  0.66726052  0.33292208
   0.66714223  0.16648637  0.83380883
   0.66550777  0.33449846  0.66665460
   0.66550791  0.66550153  0.66665454
   0.66714232  0.83351367  0.83380889
   0.66638524  0.00000008  0.99955350
   0.66395265  0.49999985  0.50180717
   0.83067835  0.49999997  0.99734461
   0.83400602  0.00000006  0.50034358
   0.83372227  0.33418111  0.16627593
   0.83372228  0.66581882  0.16627580
   0.83376722  0.16668781  0.33330828
   0.83376706  0.83331237  0.33330830
   0.83124641  0.16891099  0.66663129
   0.83364545  0.33317424  0.83336059
   0.83364541  0.66682564  0.83336061
   0.83124634  0.83108901  0.66663113
   0.83349273  0.00000009  0.16650564
   0.83368019  0.16630936  0.00034656
   0.83368013  0.83369067  0.00034656
   0.83266757  0.33397923  0.49987665
   0.83088607  0.49999987  0.33515192
   0.83266750  0.66602065  0.49987665
   0.83288705  0.00000012  0.83305223
   0.83184339  0.49999994  0.66668247
   0.41666603  0.49999990  0.58333417
Direct configuration=     5
   0.99988915  0.00000055  0.00011107
   0.99956205  0.16628596  0.16622687
  -0.00047222  0.33437909  1.00047242
   0.00279359  0.49999943  0.16945844
  -0.00047226  0.66562035  1.00047231
   0.99956196  0.83371460  0.16622689
   0.00057201  0.00000058  0.33357111
   0.00224313  0.16936060  0.50000372
   0.99961245  0.33309140  0.33335771
   0.00152418  0.49999926  0.49998836
   0.99961225  0.66690798  0.33335759
   0.00224305  0.83064002  0.50000362
  -0.00134809  0.00000061  0.66641689
   0.99948118  0.16678175  0.83348346
   1.00086223  0.33429637  0.66679543
   0.00285578  0.49999939  0.83143133
   1.00086222  0.66570308  0.66679545
   0.99948129  0.83321880  0.83348346
   0.16690477  0.00000058  0.16723673
   0.16651667  0.16678172  0.00051906
   0.16651665  0.83321883  0.00051900
   0.16832155  0.33481136  0.50011884
   0.16613854  0.49999919  0.33280535
   0.16832140  0.66518809  0.50011881
   0.16653322  0.00000052  0.83346690
   0.17048707  0.49999933  0.66439116
   0.16669131  0.33309132  0.16627731
   0.16669116  0.66690814  0.16627701
   0.16602686  0.16663402  0.33269312
   0.16602681  0.83336681  0.33269300
   0.16454036  0.16514175  0.66699467
   0.16629204  0.33250604  0.83370797
   0.16629200  0.66749345  0.83370810
   0.16454035  0.83485893  0.66699480
   0.16856898  0.49999942  0.99714461
   0.16550889  0.00000057  0.50006935
   0.33358303  0.00000050  1.00134842
   0.33333537  0.16936039  0.16890769
   0.33333545  0.83064024  0.16890743
   0.33345063  0.33481053  0.33498843
   0.33345026  0.66518856  0.33498772
   0.33300606  0.16514255  0.83546102
   0.33045664  0.31996127  0.66954283
   0.33045648  0.68003831  0.66954287
   0.33300597  0.83485810  0.83546114
   0.33320454  0.33429636 -0.00086197
   0.33331984  0.49999919  0.16818837
   0.33320448  0.66570310 -0.00086196
   0.33340115  0.00000054  0.33217528
   0.33220107  0.16669237  0.49886988
   0.33220115  0.83330829  0.49886981
   0.33336542  0.00000044  0.66663435
   0.33560892  0.49999937  0.82951264
   0.49974853  0.00000050  0.16531679
   0.49999610  0.16936043  0.99775745
   0.50012705  0.33429618  0.16752652
   0.50001136  0.49999931  0.99847592
   0.50012719  0.66570334  0.16752635
   0.49999605  0.83064010  0.99775742
   0.49996540  0.00000054  0.50003406
   0.50032630  0.16514123  0.33120676
   0.50287401  0.31996057  0.49712558
   0.49772246  0.49999933  0.33715300
   0.50287390  0.68003896  0.49712523
   0.50032636  0.83485939  0.33120667
   0.49993024  0.00000052  0.83449130
   0.50112974  0.16669204  0.66779862
   0.49988041  0.33481114  0.83167807
   0.49988030  0.66518832  0.83167818
   0.50112962  0.83330867  0.66779854
   0.66664206  0.33309159  0.00038771
   0.66476458  0.49999944  0.16952027
   0.66664210  0.66690795  0.00038793
   0.66679996  0.00000038  0.33319969
   0.66879436  0.16514228  0.49967439
   0.66879440  0.83485852  0.49967421
   0.66782455  0.00000060  0.66659876
   0.66719379  0.49999927  0.83386098
   0.66681651  0.16678183  0.16614621
   0.66681650  0.83321873  0.16614632
   0.66704147  0.33250584  0.33295840
   0.66704153  0.66749362  0.33295826
   0.66730688  0.16663382  0.83397352
   0.66501139  0.33481078  0.66654918
   0.66501148  0.66518866  0.66654897
   0.66730692  0.83336692  0.83397363
   0.66642871  0.00000056  0.99942836
   0.66284658  0.49999931  0.50227726
   0.83054151  0.49999941  0.99720642
   0.83468327  0.00000059  0.50025113
   0.83380714  0.33437918  0.16619281
   0.83380712  0.66562028  0.16619275
   0.83385382  0.16678189  0.33318327
   0.83385370  0.83321875  0.33318311
   0.83109261  0.16936036  0.66666457
   0.83372283  0.33309140  0.83330890
   0.83372296  0.66690801  0.83330899
   0.83109269  0.83064025  0.66666443
   0.83344563  0.00000052  0.16655440
   0.83377317  0.16628589  0.00043818
   0.83377317  0.83371463  0.00043832
   0.83247350  0.33429611  0.49987262
   0.83047982  0.49999940  0.33523520
   0.83247362  0.66570330  0.49987240
   0.83276335  0.00000064  0.83309547
   0.83181162  0.49999922  0.66668004
   0.41666530  0.49999952  0.58333521
Direct configuration=     6
   0.99993764 -0.00000004  0.00006272
   0.99952775  0.16631009  0.16619366
  -0.00042839  0.33450514  1.00042853
   0.00272018  0.49999949  0.16938428
  -0.00042843  0.66549496  1.00042845
   0.99952777  0.83368988  0.16619367
   0.00062476  0.00000001  0.33350503
   0.00224155  0.16967936  0.50003136
   0.99959246  0.33315975  0.33339821
   0.00151777  0.49999998  0.49999410
   0.99959256  0.66684018  0.33339811
   0.00224156  0.83032067  0.50003118
  -0.00165019  0.00000012  0.66649036
   0.99947163  0.16687793  0.83351347
   1.00096861  0.33447431  0.66680225
   0.00302585  0.50000003  0.83134563
   1.00096866  0.66552564  0.66680223
   0.99947165  0.83312207  0.83351353
   0.16683996 -0.00000004  0.16729049
   0.16648830  0.16687791  0.00052868
   0.16648826  0.83312205  0.00052876
   0.16858670  0.33494775  0.50013335
   0.16617123  0.50000004  0.33283550
   0.16858660  0.66505232  0.50013308
   0.16643878  0.00000007  0.83356314
   0.17101471  0.49999898  0.66414251
   0.16673326  0.33315995  0.16625818
   0.16673322  0.66684010  0.16625808
   0.16593403  0.16671592  0.33259904
   0.16593402  0.83328410  0.33259883
   0.16449008  0.16506899  0.66699051
   0.16637874  0.33235679  0.83362306
   0.16637867  0.66764319  0.83362324
   0.16448917  0.83493268  0.66699163
   0.16865630  0.50000010  0.99697423
   0.16518671  0.00000008  0.50000929
   0.33351121  0.00000000  1.00165043
   0.33336567  0.16967910  0.16890722
   0.33336563  0.83032085  0.16890697
   0.33346767  0.33494756  0.33525107
   0.33346640  0.66505255  0.33524875
   0.33301140  0.16506929  0.83551164
   0.33059152  0.31961275  0.66941040
   0.33059140  0.68038736  0.66941050
   0.33301134  0.83493068  0.83551182
   0.33319973  0.33447457 -0.00096859
   0.33332826  0.50000003  0.16818362
   0.33319970  0.66552540 -0.00096854
   0.33334367  0.00000001  0.33185171
   0.33206004  0.16626960  0.49872593
   0.33206000  0.83373036  0.49872583
   0.33330910  0.00000004  0.66669285
   0.33585968  0.49999901  0.82898709
   0.49982313 -0.00000002  0.16501553
   0.49996890  0.16967931  0.99775886
   0.50013454  0.33447427  0.16763434
   0.50000592  0.50000009  0.99848194
   0.50013451  0.66552577  0.16763420
   0.49996890  0.83032060  0.99775892
   0.50002518  0.00000012  0.49997487
   0.50032309  0.16506905  0.33115534
   0.50274277  0.31961287  0.49725727
   0.49747303  0.50000003  0.33767908
   0.50274269  0.68038717  0.49725701
   0.50032302  0.83493093  0.33115513
   0.49999060  0.00000003  0.83481488
   0.50127407  0.16626984  0.66794192
   0.49986504  0.33494824  0.83141400
   0.49986506  0.66505182  0.83141405
   0.50127400  0.83373017  0.66794190
   0.66660001  0.33316011  0.00040726
   0.66467709  0.50000007  0.16969136
   0.66660002  0.66683994  0.00040730
   0.66689479 -0.00000000  0.33310370
   0.66884337  0.16506928  0.49967717
   0.66884333  0.83493084  0.49967715
   0.66814659  0.00000010  0.66665813
   0.66716216  0.50000005  0.83383056
   0.66684502  0.16687770  0.16613758
   0.66684499  0.83312229  0.16613750
   0.66695451  0.33235665  0.33304386
   0.66695455  0.66764328  0.33304370
   0.66739917  0.16671625  0.83406759
   0.66474731  0.33494735  0.66653435
   0.66474729  0.66505265  0.66653430
   0.66739921  0.83328381  0.83406766
   0.66649341 -0.00000001  0.99937554
   0.66231913  0.49999994  0.50252683
   0.83061382  0.49999947  0.99727960
   0.83498300  0.00000013  0.50017685
   0.83376106  0.33450502  0.16623733
   0.83376108  0.66549507  0.16623720
   0.83386116  0.16687782  0.33315345
   0.83386122  0.83312225  0.33315323
   0.83109146  0.16967927  0.66663629
   0.83374010  0.33316010  0.83326842
   0.83374009  0.66683990  0.83326850
   0.83109156  0.83032078  0.66663624
   0.83339511 -0.00000003  0.16660353
   0.83380485  0.16631025  0.00047235
   0.83380483  0.83368973  0.00047248
   0.83236423  0.33447417  0.49986552
   0.83030689  0.50000000  0.33532109
   0.83236436  0.66552573  0.49986534
   0.83270794  0.00000006  0.83316172
   0.83181487  0.49999995  0.66667364
   0.41666582  0.50000005  0.58333369
Direct configuration=     7
   0.99996060  0.00000015  0.00003969
   0.99951008  0.16634742  0.16617628
  -0.00037856  0.33457768  1.00037876
   0.00265829  0.49999966  0.16932361
  -0.00037865  0.66542217  1.00037863
   0.99951011  0.83365260  0.16617630
   0.00062643  0.00000014  0.33345269
   0.00220659  0.16986903  0.50006472
   0.99957031  0.33324567  0.33341743
   0.00152334  0.49999996  0.49999305
   0.99957039  0.66675413  0.33341739
   0.00220672  0.83013095  0.50006455
  -0.00177527  0.00000032  0.66651374
   0.99947803  0.16693918  0.83349986
   1.00103719  0.33459521  0.66680594
   0.00314038  0.49999995  0.83128009
   1.00103746  0.66540456  0.66680580
   0.99947802  0.83306077  0.83349998
   0.16678664  0.00000017  0.16729241
   0.16650106  0.16693921  0.00052248
   0.16650104  0.83306076  0.00052233
   0.16876400  0.33502272  0.50012718
   0.16623280  0.50000001  0.33289870
   0.16876409  0.66497733  0.50012724
   0.16639570  0.00000030  0.83360546
   0.17133151  0.49999953  0.66397331
   0.16675150  0.33324554  0.16623640
   0.16675129  0.66675428  0.16623620
   0.16588261  0.16673528  0.33254858
   0.16588263  0.83326474  0.33254864
   0.16449051  0.16504651  0.66696810
   0.16643954  0.33230863  0.83356110
   0.16643968  0.66769118  0.83356104
   0.16449023  0.83495426  0.66696872
   0.16872077  0.49999999  0.99685983
   0.16494810  0.00000010  0.49997358
   0.33348687  0.00000021  1.00177529
   0.33339835  0.16986868  0.16887243
   0.33339821  0.83013139  0.16887202
   0.33346066  0.33502198  0.33542932
   0.33346006  0.66497851  0.33542792
   0.33303230  0.16504621  0.83551015
   0.33070937  0.31942032  0.66929111
   0.33070880  0.68057962  0.66929111
   0.33303224  0.83495373  0.83551023
   0.33319731  0.33459644 -0.00103695
   0.33332667  0.49999983  0.16818918
   0.33319727  0.66540330 -0.00103716
   0.33330732  0.00000008  0.33161420
   0.33198607  0.16600511  0.49865242
   0.33198593  0.83399475  0.49865250
   0.33325036  0.00000001  0.66675050
   0.33602744  0.49999946  0.82866870
   0.49984663  0.00000014  0.16489083
   0.49993544  0.16986899  0.99779388
   0.50013792  0.33459678  0.16770294
   0.50000702  0.49999993  0.99847689
   0.50013794  0.66540311  0.16770289
   0.49993543  0.83013098  0.99779380
   0.50008349  0.00000003  0.49991666
   0.50030103  0.16504647  0.33115671
   0.50262400  0.31942110  0.49737593
   0.49730529  0.49999998  0.33799801
   0.50262376  0.68057891  0.49737569
   0.50030094  0.83495353  0.33115674
   0.50002627  0.00000010  0.83505255
   0.50134769  0.16600521  0.66801469
   0.49987226  0.33502269  0.83123643
   0.49987210  0.66497721  0.83123632
   0.50134752  0.83399477  0.66801463
   0.66658172  0.33324574  0.00042956
   0.66461236  0.49999993  0.16980629
   0.66658184  0.66675409  0.00042954
   0.66693771  0.00000003  0.33306178
   0.66884261  0.16504628  0.49969887
   0.66884256  0.83495375  0.49969889
   0.66838521  0.00000012  0.66669346
   0.66710029  0.49999995  0.83376773
   0.66683241  0.16693931  0.16614415
   0.66683246  0.83306072  0.16614415
   0.66689353  0.33230910  0.33310585
   0.66689358  0.66769090  0.33310590
   0.66745061  0.16673551  0.83411822
   0.66456988  0.33502227  0.66654012
   0.66456979  0.66497763  0.66653985
   0.66745056  0.83326455  0.83411816
   0.66654682  0.00000014  0.99937383
   0.66200145  0.49999999  0.50269457
   0.83067562  0.49999960  0.99734167
   0.83510697  0.00000064  0.50015271
   0.83371178  0.33457778  0.16628746
   0.83371183  0.66542207  0.16628735
   0.83385543  0.16693934  0.33316706
   0.83385541  0.83306069  0.33316697
   0.83112681  0.16986884  0.66660260
   0.83376284  0.33324564  0.83324931
   0.83376289  0.66675418  0.83324936
   0.83112691  0.83013116  0.66660245
   0.83337282  0.00000013  0.16662669
   0.83382308  0.16634753  0.00049002
   0.83382299  0.83365256  0.00049018
   0.83229627  0.33459532  0.49986130
   0.83019302  0.49999991  0.33538690
   0.83229631  0.66540461  0.49986116
   0.83270670  0.00000019  0.83321421
   0.83181018  0.49999998  0.66667396
   0.41666603  0.50000019  0.58333359
Direct configuration=     8
   0.99996032  0.00000006  0.00003988
   0.99951163  0.16637446  0.16617785
  -0.00035030  0.33458973  1.00035038
   0.00263857  0.49999981  0.16930446
  -0.00035046  0.66541014  1.00035022
   0.99951162  0.83362559  0.16617789
   0.00060545  0.00000007  0.33343285
   0.00218254  0.16991331  0.50006403
   0.99956083  0.33328464  0.33341760
   0.00153806  0.49999988  0.49998713
   0.99956084  0.66671528  0.33341754
   0.00218259  0.83008674  0.50006394
  -0.00177299  0.00000015  0.66649844
   0.99948960  0.16696218  0.83347462
   1.00106435  0.33463678  0.66680270
   0.00318036  0.49999990  0.83125749
   1.00106453  0.66536311  0.66680257
   0.99948952  0.83303781  0.83347465
   0.16676677  0.00000009  0.16727178
   0.16652636  0.16696246  0.00051044
   0.16652632  0.83303757  0.00051026
   0.16881723  0.33502876  0.50010161
   0.16626907  0.49999998  0.33293467
   0.16881729  0.66497127  0.50010161
   0.16640249  0.00000019  0.83359816
   0.17142227  0.49999977  0.66390123
   0.16675180  0.33328448  0.16622690
   0.16675163  0.66671541  0.16622670
   0.16586542  0.16672246  0.33253130