 108 108   0   0
  0.1022088E+02  0.1033485E-08  0.1033485E-08  0.1033485E-08  0.5000000E-15
  1.000000000000000E-004
  CAR 
 Opt                                     
      9.47821172     -4.02357799  301      6.81602136      1.00000000
     -4.024  0.0000E+00  0.0000E+00
     -3.979  0.0000E+00  0.0000E+00
     -3.934  0.0000E+00  0.0000E+00
     -3.889  0.0000E+00  0.0000E+00
     -3.844  0.0000E+00  0.0000E+00
     -3.799  0.0000E+00  0.0000E+00
     -3.754  0.0000E+00  0.0000E+00
     -3.709  0.0000E+00  0.0000E+00
     -3.664 -0.6482E-29 -0.2917E-30
     -3.619 -0.2336E-27 -0.1080E-28
     -3.574 -0.7788E-26 -0.3613E-27
     -3.529 -0.2344E-24 -0.1091E-25
     -3.484 -0.6367E-23 -0.2975E-24
     -3.439 -0.1561E-21 -0.7322E-23
     -3.393 -0.3452E-20 -0.1627E-21
     -3.348 -0.6890E-19 -0.3264E-20
     -3.303 -0.1240E-17 -0.5909E-19
     -3.258 -0.2014E-16 -0.9657E-18
     -3.213 -0.2950E-15 -0.1424E-16
     -3.168 -0.3772E-14 -0.1840E-15
     -3.123 -0.4483E-13 -0.2202E-14
     -3.078 -0.4796E-12 -0.2379E-13
     -3.033 -0.4619E-11 -0.2317E-12
     -2.988 -0.4005E-10 -0.2034E-11
     -2.943 -0.3125E-09 -0.1610E-10
     -2.898 -0.2192E-08 -0.1148E-09
     -2.853 -0.1382E-07 -0.7367E-09
     -2.808 -0.7821E-07 -0.4257E-08
     -2.763 -0.3970E-06 -0.2213E-07
     -2.718 -0.1805E-05 -0.1034E-06
     -2.673 -0.7339E-05 -0.4337E-06
     -2.628 -0.2662E-04 -0.1632E-05
     -2.583 -0.8586E-04 -0.5496E-05
     -2.538 -0.2452E-03 -0.1653E-04
     -2.493 -0.6163E-03 -0.4427E-04
     -2.448 -0.1349E-02 -0.1050E-03
     -2.403 -0.2524E-02 -0.2186E-03
     -2.358 -0.3897E-02 -0.3940E-03
     -2.313 -0.4515E-02 -0.5972E-03
     -2.268 -0.2488E-02 -0.7092E-03
     -2.223  0.4646E-02 -0.5001E-03
     -2.178  0.1865E-01  0.3394E-03
     -2.133  0.3881E-01  0.2086E-02
     -2.088  0.6088E-01  0.4826E-02
     -2.043  0.7804E-01  0.8339E-02
     -1.998  0.8401E-01  0.1212E-01
     -1.953  0.7644E-01  0.1556E-01
     -1.908  0.5829E-01  0.1818E-01
     -1.863  0.3611E-01  0.1981E-01
     -1.818  0.1655E-01  0.2055E-01
     -1.773  0.3418E-02  0.2071E-01
     -1.728 -0.2963E-02  0.2057E-01
     -1.683 -0.4535E-02  0.2037E-01
     -1.638 -0.3741E-02  0.2020E-01
     -1.593 -0.2359E-02  0.2010E-01
     -1.548 -0.1235E-02  0.2004E-01
     -1.503 -0.5543E-03  0.2001E-01
     -1.458 -0.2170E-03  0.2000E-01
     -1.413 -0.7484E-04  0.2000E-01
     -1.368 -0.2294E-04  0.2000E-01
     -1.323 -0.6653E-05  0.2000E-01
     -1.278 -0.3740E-05  0.2000E-01
     -1.233 -0.1052E-04  0.2000E-01
     -1.188 -0.4171E-04  0.2000E-01
     -1.143 -0.1518E-03  0.1999E-01
     -1.098 -0.4920E-03  0.1997E-01
     -1.053 -0.1413E-02  0.1990E-01
     -1.008 -0.3569E-02  0.1974E-01
     -0.963 -0.7857E-02  0.1939E-01
     -0.918 -0.1481E-01  0.1872E-01
     -0.873 -0.2307E-01  0.1769E-01
     -0.828 -0.2715E-01  0.1646E-01
     -0.783 -0.1594E-01  0.1575E-01
     -0.738  0.2533E-01  0.1689E-01
     -0.693  0.1076E+00  0.2173E-01
     -0.648  0.2274E+00  0.3196E-01
     -0.603  0.3601E+00  0.4817E-01
     -0.558  0.4651E+00  0.6910E-01
     -0.513  0.5042E+00  0.9180E-01
     -0.468  0.4620E+00  0.1126E+00
     -0.423  0.3550E+00  0.1286E+00
     -0.378  0.2221E+00  0.1386E+00
     -0.333  0.1035E+00  0.1432E+00
     -0.288  0.2292E-01  0.1442E+00
     -0.243 -0.1687E-01  0.1435E+00
     -0.198 -0.2719E-01  0.1423E+00
     -0.153 -0.2277E-01  0.1412E+00
     -0.108 -0.1449E-01  0.1406E+00
     -0.063 -0.7634E-02  0.1402E+00
     -0.018 -0.3449E-02  0.1401E+00
      0.027 -0.1366E-02  0.1400E+00
      0.072 -0.5093E-03  0.1400E+00
      0.117 -0.2956E-03  0.1400E+00
      0.162 -0.5623E-03  0.1400E+00
      0.207 -0.1615E-02  0.1399E+00
      0.252 -0.4359E-02  0.1397E+00
      0.297 -0.1036E-01  0.1392E+00
      0.342 -0.2134E-01  0.1383E+00
      0.387 -0.3714E-01  0.1366E+00
      0.432 -0.5192E-01  0.1343E+00
      0.477 -0.4971E-01  0.1320E+00
      0.522 -0.3910E-02  0.1319E+00
      0.567  0.1140E+00  0.1370E+00
      0.612  0.3156E+00  0.1512E+00
      0.657  0.5754E+00  0.1771E+00
      0.702  0.8267E+00  0.2143E+00
      0.747  0.9849E+00  0.2586E+00
      0.792  0.9896E+00  0.3032E+00
      0.837  0.8385E+00  0.3409E+00
      0.882  0.5885E+00  0.3674E+00
      0.927  0.3228E+00  0.3819E+00
      0.972  0.1089E+00  0.3868E+00
      1.017 -0.2478E-01  0.3857E+00
      1.062 -0.8361E-01  0.3819E+00
      1.107 -0.8449E-01  0.3781E+00
      1.152 -0.3634E-01  0.3765E+00
      1.197  0.6280E-01  0.3793E+00
      1.242  0.2126E+00  0.3889E+00
      1.287  0.3930E+00  0.4066E+00
      1.332  0.5591E+00  0.4317E+00
      1.377  0.6552E+00  0.4612E+00
      1.422  0.6435E+00  0.4902E+00
      1.467  0.5260E+00  0.5139E+00
      1.512  0.3459E+00  0.5294E+00
      1.557  0.1676E+00  0.5370E+00
      1.602  0.5106E-01  0.5393E+00
      1.647  0.3409E-01  0.5408E+00
      1.692  0.1245E+00  0.5464E+00
      1.737  0.2987E+00  0.5598E+00
      1.782  0.5041E+00  0.5825E+00
      1.827  0.6717E+00  0.6128E+00
      1.872  0.7414E+00  0.6461E+00
      1.917  0.6887E+00  0.6771E+00
      1.962  0.5357E+00  0.7012E+00
      2.007  0.3371E+00  0.7164E+00
      2.052  0.1494E+00  0.7231E+00
      2.097  0.5234E-02  0.7234E+00
      2.142 -0.9288E-01  0.7192E+00
      2.187 -0.1562E+00  0.7122E+00
      2.232 -0.1834E+00  0.7039E+00
      2.277 -0.1407E+00  0.6976E+00
      2.322  0.3697E-01  0.6992E+00
      2.367  0.4145E+00  0.7179E+00
      2.412  0.1004E+01  0.7631E+00
      2.457  0.1720E+01  0.8404E+00
      2.502  0.2389E+01  0.9480E+00
      2.547  0.2823E+01  0.1075E+01
      2.592  0.2918E+01  0.1206E+01
      2.637  0.2723E+01  0.1329E+01
      2.682  0.2409E+01  0.1437E+01
      2.727  0.2156E+01  0.1534E+01
      2.772  0.2041E+01  0.1626E+01
      2.817  0.1998E+01  0.1716E+01
      2.862  0.1895E+01  0.1801E+01
      2.907  0.1646E+01  0.1875E+01
      2.952  0.1287E+01  0.1933E+01
      2.997  0.9590E+00  0.1977E+01
      3.042  0.8214E+00  0.2014E+01
      3.087  0.9516E+00  0.2056E+01
      3.132  0.1301E+01  0.2115E+01
      3.177  0.1714E+01  0.2192E+01
      3.222  0.2003E+01  0.2282E+01
      3.267  0.2046E+01  0.2374E+01
      3.312  0.1855E+01  0.2458E+01
      3.357  0.1580E+01  0.2529E+01
      3.402  0.1426E+01  0.2593E+01
      3.447  0.1534E+01  0.2662E+01
      3.492  0.1893E+01  0.2747E+01
      3.537  0.2336E+01  0.2852E+01
      3.582  0.2629E+01  0.2971E+01
      3.627  0.2599E+01  0.3088E+01
      3.672  0.2214E+01  0.3187E+01
      3.717  0.1591E+01  0.3259E+01
      3.762  0.9166E+00  0.3300E+01
      3.807  0.3510E+00  0.3316E+01
      3.852 -0.3147E-01  0.3315E+01
      3.897 -0.2380E+00  0.3304E+01
      3.942 -0.3056E+00  0.3290E+01
      3.987 -0.2437E+00  0.3279E+01
      4.032 -0.1260E-01  0.3279E+01
      4.077  0.4453E+00  0.3299E+01
      4.123  0.1136E+01  0.3350E+01
      4.168  0.1957E+01  0.3438E+01
      4.213  0.2697E+01  0.3559E+01
      4.258  0.3130E+01  0.3700E+01
      4.303  0.3144E+01  0.3842E+01
      4.348  0.2810E+01  0.3968E+01
      4.393  0.2350E+01  0.4074E+01
      4.438  0.2000E+01  0.4164E+01
      4.483  0.1871E+01  0.4248E+01
      4.528  0.1909E+01  0.4334E+01
      4.573  0.1967E+01  0.4422E+01
      4.618  0.1922E+01  0.4509E+01
      4.663  0.1748E+01  0.4588E+01
      4.708  0.1507E+01  0.4655E+01
      4.753  0.1272E+01  0.4713E+01
      4.798  0.1085E+01  0.4761E+01
      4.843  0.9577E+00  0.4805E+01
      4.888  0.9080E+00  0.4845E+01
      4.933  0.9917E+00  0.4890E+01
      4.978  0.1286E+01  0.4948E+01
      5.023  0.1840E+01  0.5031E+01
      5.068  0.2614E+01  0.5148E+01
      5.113  0.3460E+01  0.5304E+01
      5.158  0.4148E+01  0.5491E+01
      5.203  0.4459E+01  0.5692E+01
      5.248  0.4283E+01  0.5884E+01
      5.293  0.3677E+01  0.6050E+01
      5.338  0.2853E+01  0.6178E+01
      5.383  0.2093E+01  0.6272E+01
      5.428  0.1648E+01  0.6347E+01
      5.473  0.1631E+01  0.6420E+01
      5.518  0.1973E+01  0.6509E+01
      5.563  0.2450E+01  0.6619E+01
      5.608  0.2791E+01  0.6745E+01
      5.653  0.2818E+01  0.6871E+01
      5.698  0.2527E+01  0.6985E+01
      5.743  0.2068E+01  0.7078E+01
      5.788  0.1634E+01  0.7152E+01
      5.833  0.1366E+01  0.7213E+01
      5.878  0.1300E+01  0.7272E+01
      5.923  0.1386E+01  0.7334E+01
      5.968  0.1526E+01  0.7403E+01
      6.013  0.1608E+01  0.7475E+01
      6.058  0.1541E+01  0.7544E+01
      6.103  0.1295E+01  0.7603E+01
      6.148  0.9181E+00  0.7644E+01
      6.193  0.5221E+00  0.7668E+01
      6.238  0.2327E+00  0.7678E+01
      6.283  0.1383E+00  0.7684E+01
      6.328  0.2627E+00  0.7696E+01
      6.373  0.5720E+00  0.7722E+01
      6.418  0.1002E+01  0.7767E+01
      6.463  0.1483E+01  0.7834E+01
      6.508  0.1955E+01  0.7922E+01
      6.553  0.2350E+01  0.8027E+01
      6.598  0.2597E+01  0.8144E+01
      6.643  0.2639E+01  0.8263E+01
      6.688  0.2478E+01  0.8375E+01
      6.733  0.2210E+01  0.8474E+01
      6.778  0.1999E+01  0.8564E+01
      6.823  0.2004E+01  0.8654E+01
      6.868  0.2293E+01  0.8757E+01
      6.913  0.2807E+01  0.8884E+01
      6.958  0.3387E+01  0.9036E+01
      7.003  0.3841E+01  0.9209E+01
      7.048  0.4028E+01  0.9390E+01
      7.093  0.3910E+01  0.9566E+01
      7.138  0.3551E+01  0.9726E+01
      7.183  0.3074E+01  0.9864E+01
      7.228  0.2586E+01  0.9981E+01
      7.273  0.2152E+01  0.1008E+02
      7.318  0.1779E+01  0.1016E+02
      7.363  0.1452E+01  0.1022E+02
      7.408  0.1150E+01  0.1027E+02
      7.453  0.8638E+00  0.1031E+02
      7.498  0.5982E+00  0.1034E+02
      7.543  0.3660E+00  0.1036E+02
      7.588  0.1820E+00  0.1037E+02
      7.633  0.5537E-01  0.1037E+02
      7.678 -0.1569E-01  0.1037E+02
      7.723 -0.4310E-01  0.1037E+02
      7.768 -0.4364E-01  0.1036E+02
      7.813 -0.3264E-01  0.1036E+02
      7.858 -0.2018E-01  0.1036E+02
      7.903 -0.1072E-01  0.1036E+02
      7.948 -0.4987E-02  0.1036E+02
      7.993 -0.2052E-02  0.1036E+02
      8.038 -0.7517E-03  0.1036E+02
      8.083 -0.2460E-03  0.1036E+02
      8.128 -0.7211E-04  0.1036E+02
      8.173 -0.1898E-04  0.1036E+02
      8.218 -0.4488E-05  0.1036E+02
      8.263 -0.9547E-06  0.1036E+02
      8.308 -0.1829E-06  0.1036E+02
      8.353 -0.3154E-07  0.1036E+02
      8.398 -0.4903E-08  0.1036E+02
      8.443 -0.6870E-09  0.1036E+02
      8.488 -0.8678E-10  0.1036E+02
      8.533 -0.9884E-11  0.1036E+02
      8.578 -0.1016E-11  0.1036E+02
      8.623 -0.9374E-13  0.1036E+02
      8.668 -0.8289E-14  0.1036E+02
      8.713 -0.5920E-15  0.1036E+02
      8.758  0.0000E+00  0.1036E+02
      8.803  0.0000E+00  0.1036E+02
      8.848  0.0000E+00  0.1036E+02
      8.893  0.0000E+00  0.1036E+02
      8.938  0.0000E+00  0.1036E+02
      8.983  0.0000E+00  0.1036E+02
      9.028  0.0000E+00  0.1036E+02
      9.073  0.0000E+00  0.1036E+02
      9.118  0.0000E+00  0.1036E+02
      9.163  0.0000E+00  0.1036E+02
      9.208  0.0000E+00  0.1036E+02
      9.253  0.0000E+00  0.1036E+02
      9.298  0.0000E+00  0.1036E+02
      9.343  0.0000E+00  0.1036E+02
      9.388  0.0000E+00  0.1036E+02
      9.433  0.0000E+00  0.1036E+02
      9.478  0.0000E+00  0.1036E+02
