  108  108  100    1
  0.1022088E+02  0.1033485E-08  0.1033485E-08  0.1033485E-08  0.5000000E-15
  1.000000000000000E-004
  CAR 
 Opt                                     
    864      1    518
 
  0.0000000E+00  0.0000000E+00  0.0000000E+00  0.1000000E+01
    1       -2.023578   1.000000
    2       -0.537058   1.000000
    3       -0.537058   1.000000
    4       -0.537058   1.000000
    5       -0.535980   1.000000
    6       -0.535980   1.000000
    7       -0.535980   1.000000
    8        0.747414   1.000000
    9        0.747414   1.000000
   10        0.747414   1.000000
   11        0.748412   1.000000
   12        0.748412   1.000000
   13        0.748412   1.000000
   14        0.748412   1.000000
   15        0.748412   1.000000
   16        0.748412   1.000000
   17        0.749411   1.000000
   18        0.749411   1.000000
   19        0.749411   1.000000
   20        1.373794   1.000000
   21        1.374452   1.000000
   22        1.374452   1.000000
   23        1.374452   1.000000
   24        1.375111   1.000000
   25        1.375111   1.000000
   26        1.375111   1.000000
   27        1.375770   1.000000
   28        1.828314   1.000000
   29        1.828314   1.000000
   30        1.828314   1.000000
   31        1.861835   1.000000
   32        1.861835   1.000000
   33        1.861835   1.000000
   34        1.862465   1.000000
   35        1.862465   1.000000
   36        1.862465   1.000000
   37        2.524051   1.000000
   38        2.524051   1.000000
   39        2.524051   1.000000
   40        2.524058   1.000000
   41        2.524058   1.000000
   42        2.524058   1.000000
   43        2.524061   1.000000
   44        2.524061   1.000000
   45        2.524061   1.000000
   46        2.524074   1.000000
   47        2.524074   1.000000
   48        2.524074   1.000000
   49        2.524224   1.000000
   50        2.524224   1.000000
   51        2.524224   1.000000
   52        2.524237   1.000000
   53        2.524237   1.000000
   54        2.524238   1.000000
   55        2.524240   1.000000
   56        2.524240   1.000000
   57        2.524240   1.000000
   58        2.524247   1.000000
   59        2.524247   1.000000
   60        2.524247   1.000000
   61        2.529010   1.000000
   62        2.529010   1.000000
   63        2.529010   1.000000
   64        2.623421   1.000000
   65        2.623421   1.000000
   66        2.623421   1.000000
   67        2.623421   1.000000
   68        2.623421   1.000000
   69        2.623421   1.000000
   70        2.624386   1.000000
   71        2.624386   1.000000
   72        2.624386   1.000000
   73        2.624386   1.000000
   74        2.624386   1.000000
   75        2.624386   1.000000
   76        2.835741   1.000000
   77        2.835741   1.000000
   78        2.835741   1.000000
   79        2.835741   1.000000
   80        2.835741   1.000000
   81        2.835741   1.000000
   82        2.836214   1.000000
   83        2.836214   1.000000
   84        2.836214   1.000000
   85        2.836215   1.000000
   86        2.836215   1.000000
   87        2.836215   1.000000
   88        2.836679   1.000000
   89        2.836679   1.000000
   90        2.836679   1.000000
   91        2.836679   1.000000
   92        2.836679   1.000000
   93        2.836679   1.000000
   94        2.837152   1.000000
   95        2.837152   1.000000
   96        2.837152   1.000000
   97        2.837153   1.000000
   98        2.837153   1.000000
   99        2.837153   1.000000
  100        3.101689   1.000000
  101        3.101690   1.000000
  102        3.101690   1.000000
  103        3.102723   1.000000
  104        3.102723   1.000000
  105        3.102723   1.000000
  106        3.239832   1.000000
  107        3.239832   1.000000
  108        3.239832   1.000000
  109        3.239833   1.000000
  110        3.239833   1.000000
  111        3.239833   1.000000
  112        3.240797   1.000000
  113        3.240797   1.000000
  114        3.240797   1.000000
  115        3.240797   1.000000
  116        3.240797   1.000000
  117        3.240797   1.000000
  118        3.244846   1.000000
  119        3.244846   1.000000
  120        3.244846   1.000000
  121        3.244863   1.000000
  122        3.244863   1.000000
  123        3.244863   1.000000
  124        3.244863   1.000000
  125        3.244863   1.000000
  126        3.244863   1.000000
  127        3.244874   1.000000
  128        3.244874   1.000000
  129        3.244875   1.000000
  130        3.507962   1.000000
  131        3.507962   1.000000
  132        3.507962   1.000000
  133        3.508046   1.000000
  134        3.508046   1.000000
  135        3.508046   1.000000
  136        3.508046   1.000000
  137        3.508046   1.000000
  138        3.508046   1.000000
  139        3.508136   1.000000
  140        3.508136   1.000000
  141        3.508137   1.000000
  142        3.605589   1.000000
  143        3.605589   1.000000
  144        3.605589   1.000000
  145        3.605589   1.000000
  146        3.605589   1.000000
  147        3.605589   1.000000
  148        3.606442   1.000000
  149        3.606442   1.000000
  150        3.606442   1.000000
  151        3.606443   1.000000
  152        3.606443   1.000000
  153        3.606443   1.000000
  154        3.606526   1.000000
  155        3.606526   1.000000
  156        3.606526   1.000000
  157        3.606526   1.000000
  158        3.606526   1.000000
  159        3.606526   1.000000
  160        3.607380   1.000000
  161        3.607380   1.000000
  162        3.607380   1.000000
  163        3.607380   1.000000
  164        3.607380   1.000000
  165        3.607380   1.000000
  166        4.236876   1.000000
  167        4.236877   1.000000
  168        4.236877   1.000000
  169        4.237670   1.000000
  170        4.237670   1.000000
  171        4.237670   1.000000
  172        4.237670   1.000000
  173        4.237670   1.000000
  174        4.237670   1.000000
  175        4.237733   1.000000
  176        4.237733   1.000000
  177        4.237733   1.000000
  178        4.238465   1.000000
  179        4.238465   1.000000
  180        4.238465   1.000000
  181        4.238527   1.000000
  182        4.238527   1.000000
  183        4.238527   1.000000
  184        4.238527   1.000000
  185        4.238527   1.000000
  186        4.238527   1.000000
  187        4.239322   1.000000
  188        4.239322   1.000000
  189        4.239322   1.000000
  190        4.255850   1.000000
  191        4.255850   1.000000
  192        4.255850   1.000000
  193        4.256024   1.000000
  194        4.256024   1.000000
  195        4.256024   1.000000
  196        4.256024   1.000000
  197        4.256024   1.000000
  198        4.256024   1.000000
  199        4.256198   1.000000
  200        4.256198   1.000000
  201        4.256198   1.000000
  202        4.365888   1.000000
  203        4.365888   1.000000
  204        4.365888   1.000000
  205        4.366530   1.000000
  206        4.366530   1.000000
  207        4.366530   1.000000
  208        4.556447   1.000000
  209        4.556447   1.000000
  210        4.556447   1.000000
  211        4.556448   1.000000
  212        4.556448   1.000000
  213        4.556448   1.000000
  214        4.556547   1.000000
  215        4.556547   1.000000
  216        4.556547   1.000000
  217        4.556548   1.000000
  218        4.556548   1.000000
  219        4.556548   1.000000
  220        4.556592   1.000000
  221        4.556592   1.000000
  222        4.556592   1.000000
  223        4.556593   1.000000
  224        4.556593   1.000000
  225        4.556593   1.000000
  226        4.556693   1.000000
  227        4.556693   1.000000
  228        4.556693   1.000000
  229        4.556693   1.000000
  230        4.556693   1.000000
  231        4.556693   1.000000
  232        4.779815   1.000000
  233        4.779815   1.000000
  234        4.779816   1.000000
  235        4.780252   1.000000
  236        4.780252   1.000000
  237        4.780252   1.000000
  238        4.780252   1.000000
  239        4.780252   1.000000
  240        4.780252   1.000000
  241        4.780689   1.000000
  242        4.780689   1.000000
  243        4.780689   1.000000
  244        4.964532   1.000000
  245        4.964557   1.000000
  246        4.964557   1.000000
  247        4.964557   1.000000
  248        4.964583   1.000000
  249        4.964583   1.000000
  250        4.964583   1.000000
  251        4.964611   1.000000
  252        5.070536   1.000000
  253        5.070536   1.000000
  254        5.070536   1.000000
  255        5.137684   1.000000
  256        5.137684   1.000000
  257        5.137684   1.000000
  258        5.137895   1.000000
  259        5.137895   1.000000
  260        5.137896   1.000000
  261        5.137896   1.000000
  262        5.137896   1.000000
  263        5.137896   1.000000
  264        5.137925   1.000000
  265        5.137925   1.000000
  266        5.137925   1.000000
  267        5.138108   1.000000
  268        5.138108   1.000000
  269        5.138108   1.000000
  270        5.138137   1.000000
  271        5.138137   1.000000
  272        5.138137   1.000000
  273        5.138138   1.000000
  274        5.138138   1.000000
  275        5.138138   1.000000
  276        5.138350   1.000000
  277        5.138350   1.000000
  278        5.138350   1.000000
  279        5.208433   1.000000
  280        5.208433   1.000000
  281        5.208433   1.000000
  282        5.208434   1.000000
  283        5.208434   1.000000
  284        5.208652   1.000000
  285        5.208652   1.000000
  286        5.208652   1.000000
  287        5.208872   1.000000
  288        5.208872   1.000000
  289        5.208872   1.000000
  290        5.209088   1.000000
  291        5.209088   1.000000
  292        5.209090   1.000000
  293        5.209090   1.000000
  294        5.209090   1.000000
  295        5.233710   1.000000
  296        5.233710   1.000000
  297        5.233710   1.000000
  298        5.233868   1.000000
  299        5.233868   1.000000
  300        5.233868   1.000000
  301        5.233868   1.000000
  302        5.233868   1.000000
  303        5.233868   1.000000
  304        5.234025   1.000000
  305        5.234025   1.000000
  306        5.234025   1.000000
  307        5.342761   1.000000
  308        5.342761   1.000000
  309        5.342761   1.000000
  310        5.342761   1.000000
  311        5.342761   1.000000
  312        5.342761   1.000000
  313        5.342892   1.000000
  314        5.342892   1.000000
  315        5.342892   1.000000
  316        5.342895   1.000000
  317        5.342895   1.000000
  318        5.342895   1.000000
  319        5.586481   1.000000
  320        5.586482   1.000000
  321        5.586482   1.000000
  322        5.586730   1.000000
  323        5.586730   1.000000
  324        5.586730   1.000000
  325        5.586938   1.000000
  326        5.586938   1.000000
  327        5.586938   1.000000
  328        5.586938   1.000000
  329        5.586938   1.000000
  330        5.586938   1.000000
  331        5.587187   1.000000
  332        5.587187   1.000000
  333        5.587187   1.000000
  334        5.587187   1.000000
  335        5.587187   1.000000
  336        5.587188   1.000000
  337        5.587396   1.000000
  338        5.587396   1.000000
  339        5.587396   1.000000
  340        5.587643   1.000000
  341        5.587644   1.000000
  342        5.587644   1.000000
  343        5.628804   1.000000
  344        5.628804   1.000000
  345        5.628804   1.000000
  346        5.628804   1.000000
  347        5.628804   1.000000
  348        5.628804   1.000000
  349        5.629738   1.000000
  350        5.629738   1.000000
  351        5.629738   1.000000
  352        5.629738   1.000000
  353        5.629738   1.000000
  354        5.629738   1.000000
  355        5.834158   1.000000
  356        5.834158   1.000000
  357        5.834158   1.000000
  358        5.834259   1.000000
  359        5.834259   1.000000
  360        5.834259   1.000000
  361        5.834259   1.000000
  362        5.834259   1.000000
  363        5.834259   1.000000
  364        5.834359   1.000000
  365        5.834359   1.000000
  366        5.834359   1.000000
  367        6.023018   1.000000
  368        6.023018   1.000000
  369        6.023018   1.000000
  370        6.023561   1.000000
  371        6.023561   1.000000
  372        6.023561   1.000000
  373        6.037539   1.000000
  374        6.037539   1.000000
  375        6.037539   1.000000
  376        6.038264   1.000000
  377        6.038264   1.000000
  378        6.038264   1.000000
  379        6.038264   1.000000
  380        6.038264   1.000000
  381        6.038264   1.000000
  382        6.038990   1.000000
  383        6.038990   1.000000
  384        6.038990   1.000000
  385        6.442702   1.012006
  386        6.442702   1.012006
  387        6.442702   1.012006
  388        6.443416   1.012129
  389        6.443416   1.012129
  390        6.443416   1.012129
  391        6.443418   1.012129
  392        6.443418   1.012129
  393        6.443418   1.012129
  394        6.444130   1.012253
  395        6.444130   1.012253
  396        6.444135   1.012254
  397        6.544192   1.033155
  398        6.544192   1.033155
  399        6.544192   1.033155
  400        6.544209   1.033158
  401        6.544212   1.033158
  402        6.544212   1.033158
  403        6.642169   1.005707
  404        6.642169   1.005707
  405        6.645313   1.002505
  406        6.645313   1.002505
  407        6.645313   1.002505
  408        6.645314   1.002505
  409        6.645314   1.002505
  410        6.645314   1.002505
  411        6.645992   1.001787
  412        6.645992   1.001787
  413        6.645992   1.001787
  414        6.645992   1.001787
  415        6.645992   1.001787
  416        6.645992   1.001787
  417        6.646005   1.001774
  418        6.646005   1.001774
  419        6.646005   1.001774
  420        6.646007   1.001772
  421        6.646007   1.001772
  422        6.646007   1.001772
  423        6.646685   1.001046
  424        6.646685   1.001046
  425        6.646685   1.001045
  426        6.646685   1.001045
  427        6.646685   1.001045
  428        6.646685   1.001045
  429        6.863527   0.305139
  430        6.863527   0.305139
  431        6.863527   0.305139
  432        6.863527   0.305137
  433        6.863527   0.305137
  434        6.863527   0.305137
  435        6.864152   0.302735
  436        6.864152   0.302735
  437        6.864152   0.302735
  438        6.864152   0.302733
  439        6.864152   0.302733
  440        6.864152   0.302733
  441        6.889996   0.209461
  442        6.889996   0.209461
  443        6.889996   0.209461
  444        6.890937   0.206315
  445        6.890937   0.206315
  446        6.890937   0.206315
  447        7.018914  -0.026564
  448        7.018914  -0.026564
  449        7.018914  -0.026564
  450        7.018916  -0.026565
  451        7.018916  -0.026565
  452        7.018916  -0.026565
  453        7.019512  -0.026845
  454        7.019512  -0.026845
  455        7.019512  -0.026845
  456        7.019513  -0.026845
  457        7.019513  -0.026845
  458        7.019513  -0.026845
  459        7.020255  -0.027187
  460        7.020255  -0.027187
  461        7.020255  -0.027187
  462        7.020255  -0.027187
  463        7.020255  -0.027187
  464        7.020255  -0.027187
  465        7.020723  -0.027398
  466        7.020724  -0.027398
  467        7.020724  -0.027398
  468        7.020725  -0.027399
  469        7.020725  -0.027399
  470        7.020725  -0.027399
  471        7.020905  -0.027479
  472        7.020905  -0.027479
  473        7.020905  -0.027479
  474        7.020906  -0.027479
  475        7.020906  -0.027479
  476        7.020906  -0.027479
  477        7.021375  -0.027687
  478        7.021375  -0.027687
  479        7.021375  -0.027687
  480        7.021375  -0.027687
  481        7.021375  -0.027687
  482        7.021375  -0.027687
  483        7.159898  -0.017711
  484        7.159898  -0.017711
  485        7.159925  -0.017705
  486        7.159925  -0.017705
  487        7.159925  -0.017705
  488        7.160169  -0.017653
  489        7.160169  -0.017653
  490        7.160169  -0.017653
  491        7.160356  -0.017613
  492        7.160356  -0.017613
  493        7.160356  -0.017613
  494        7.160599  -0.017561
  495        7.160599  -0.017561
  496        7.160599  -0.017561
  497        7.160627  -0.017555
  498        7.160627  -0.017555
  499        7.277692  -0.002611
  500        7.277694  -0.002611
  501        7.277694  -0.002611
  502        7.277825  -0.002604
  503        7.277825  -0.002604
  504        7.277825  -0.002604
  505        7.277826  -0.002604
  506        7.277826  -0.002604
  507        7.277826  -0.002604
  508        7.277957  -0.002597
  509        7.277957  -0.002597
  510        7.277957  -0.002597
  511        7.403768  -0.000131
  512        7.404073  -0.000130
  513        7.404407  -0.000129
  514        7.404561  -0.000128
  515        7.405833  -0.000124
  516        7.406801  -0.000121
  517        7.478155  -0.000015
  518        7.478212  -0.000015
