 running on    8 total cores
 distrk:  each k-point on    8 cores,    1 groups
 distr:  one band on    4 cores,    2 groups
 using from now: INCAR     
 vasp.5.4.4.18Apr17-6-g9f103f2a35 (build Aug 17 2017 06:00:38) complex          
  
 POSCAR found type information on POSCAR  Fe
 POSCAR found :  1 types and     108 ions
 scaLAPACK will be used
 LDA part: xc-table for Pade appr. of Perdew
 POSCAR, INCAR and KPOINTS ok, starting setup
 FFT: planning ...
 WAVECAR not read
 entering main loop
       N       E                     dE             d eps       ncg     rms          rms(c)
DAV:   1     0.761260634755E+04    0.76126E+04   -0.28850E+05  1036   0.184E+03
DAV:   2    -0.213082758284E+02   -0.76339E+04   -0.74627E+04  1036   0.457E+02
DAV:   3    -0.847062574541E+03   -0.82575E+03   -0.70964E+03  1036   0.192E+02
DAV:   4    -0.102664762346E+04   -0.17959E+03   -0.16913E+03  1864   0.567E+01
DAV:   5    -0.104312854472E+04   -0.16481E+02   -0.15749E+02  1664   0.215E+01    0.924E+01
RMM:   6    -0.871703219698E+03    0.17143E+03   -0.13333E+03  1036   0.109E+02    0.877E+00
RMM:   7    -0.877750287385E+03   -0.60471E+01   -0.12293E+02  1215   0.194E+01    0.594E+00
RMM:   8    -0.877003458862E+03    0.74683E+00   -0.18329E+01  1073   0.134E+01    0.146E+01
RMM:   9    -0.875891488477E+03    0.11120E+01   -0.32130E+00  1212   0.398E+00    0.417E+00
RMM:  10    -0.875573380658E+03    0.31811E+00   -0.29105E+00  1219   0.368E+00    0.144E+00
RMM:  11    -0.875648793128E+03   -0.75412E-01   -0.83196E-01  1490   0.727E-01    0.119E+00
RMM:  12    -0.875637909994E+03    0.10883E-01   -0.11380E-01  1272   0.676E-01    0.533E-01
RMM:  13    -0.875635296686E+03    0.26133E-02   -0.36266E-02  1303   0.334E-01    0.122E-01
RMM:  14    -0.875635658922E+03   -0.36224E-03   -0.11154E-02  1419   0.159E-01    0.703E-02
RMM:  15    -0.875635336705E+03    0.32222E-03    0.19139E-03  1377   0.599E-02    0.332E-02
RMM:  16    -0.875635062498E+03    0.27421E-03    0.23202E-03  1361   0.295E-02    0.152E-02
RMM:  17    -0.875634890037E+03    0.17246E-03    0.16714E-03  1532   0.674E-03    0.333E-03
RMM:  18    -0.875634769313E+03    0.12072E-03    0.11721E-03   871   0.181E-03    0.371E-03
RMM:  19    -0.875634683322E+03    0.85991E-04    0.82559E-04   767   0.262E-03    0.104E-03
RMM:  20    -0.875634621906E+03    0.61417E-04    0.58840E-04   761   0.251E-03    0.245E-03
RMM:  21    -0.875634575363E+03    0.46543E-04    0.45611E-04   739   0.214E-03    0.653E-04
RMM:  22    -0.875634538183E+03    0.37180E-04    0.36401E-04   698   0.935E-04    0.977E-04
RMM:  23    -0.875634505586E+03    0.32597E-04    0.31238E-04   696   0.124E-03    0.413E-04
RMM:  24    -0.875634408858E+03    0.96728E-04    0.76816E-04   542   0.618E-04    0.985E-04
RMM:  25    -0.875634361286E+03    0.47572E-04    0.42018E-04   574   0.876E-04    0.823E-04
RMM:  26    -0.875634324294E+03    0.36992E-04    0.35541E-04   485   0.542E-04    0.100E-03
RMM:  27    -0.875634298508E+03    0.25786E-04    0.24835E-04   492   0.564E-04    0.105E-03
RMM:  28    -0.875634274762E+03    0.23747E-04    0.22802E-04   411   0.489E-04    0.124E-03
RMM:  29    -0.875634252173E+03    0.22588E-04    0.21771E-04   372   0.473E-04    0.127E-03
RMM:  30    -0.875634146400E+03    0.10577E-03    0.78414E-04   307   0.423E-04    0.189E-03
RMM:  31    -0.875634035073E+03    0.11133E-03    0.82757E-04   342   0.437E-04    0.243E-03
RMM:  32    -0.875633993704E+03    0.41369E-04    0.37046E-04   344   0.434E-04    0.262E-03
RMM:  33    -0.875633961977E+03    0.31727E-04    0.31076E-04   325   0.424E-04    0.277E-03
RMM:  34    -0.875633942594E+03    0.19384E-04    0.19299E-04   293   0.409E-04    0.284E-03
RMM:  35    -0.875633929146E+03    0.13448E-04    0.13261E-04   290   0.373E-04    0.288E-03
RMM:  36    -0.875633918074E+03    0.11072E-04    0.10783E-04   277   0.381E-04    0.294E-03
RMM:  37    -0.875633907206E+03    0.10868E-04    0.10542E-04   247   0.353E-04    0.299E-03
RMM:  38    -0.875633896449E+03    0.10757E-04    0.10473E-04   263   0.358E-04    0.301E-03
RMM:  39    -0.875633885664E+03    0.10785E-04    0.10469E-04   217   0.317E-04    0.306E-03
RMM:  40    -0.875633874726E+03    0.10938E-04    0.10618E-04   211   0.326E-04    0.312E-03
RMM:  41    -0.875633863680E+03    0.11046E-04    0.10739E-04   206   0.305E-04    0.315E-03
RMM:  42    -0.875633773058E+03    0.90623E-04    0.66772E-04   200   0.313E-04    0.370E-03
RMM:  43    -0.875633748666E+03    0.24391E-04    0.21675E-04   253   0.323E-04    0.378E-03
RMM:  44    -0.875633723659E+03    0.25008E-04    0.24291E-04   268   0.334E-04    0.395E-03
RMM:  45    -0.875633636247E+03    0.87411E-04    0.67484E-04   219   0.317E-04    0.444E-03
RMM:  46    -0.875633610570E+03    0.25678E-04    0.22935E-04   258   0.327E-04    0.455E-03
RMM:  47    -0.875633583128E+03    0.27441E-04    0.26341E-04   256   0.322E-04    0.474E-03
RMM:  48    -0.875633568030E+03    0.15099E-04    0.15003E-04   227   0.309E-04    0.480E-03
RMM:  49    -0.875633560029E+03    0.80005E-05    0.79487E-05   265   0.319E-04    0.487E-03
RMM:  50    -0.875633554316E+03    0.57127E-05    0.55824E-05   192   0.295E-04    0.491E-03
RMM:  51    -0.875633548579E+03    0.57372E-05    0.56168E-05   179   0.285E-04    0.494E-03
RMM:  52    -0.875633543736E+03    0.48427E-05    0.48137E-05   198   0.288E-04    0.490E-03
RMM:  53    -0.875633538907E+03    0.48296E-05    0.48393E-05   393   0.386E-04    0.481E-03
RMM:  54    -0.875633427754E+03    0.11115E-03    0.73172E-04   275   0.308E-04    0.534E-03
RMM:  55    -0.875633419851E+03    0.79027E-05    0.70688E-05   205   0.261E-04    0.528E-03
RMM:  56    -0.875633409558E+03    0.10293E-04    0.10182E-04   184   0.259E-04    0.533E-03
RMM:  57    -0.875633404805E+03    0.47540E-05    0.48839E-05   150   0.242E-04    0.539E-03
RMM:  58    -0.875633402955E+03    0.18492E-05    0.19563E-05   152   0.249E-04    0.536E-03
RMM:  59    -0.875633402174E+03    0.78094E-06    0.83732E-06   218   0.281E-04
   1 F= -.87563340E+03 E0= -.87591997E+03  d E =-.875633E+03
 curvature:   0.00 expect dE= 0.000E+00 dE for cont linesearch  0.000E+00
 trial: gam= 0.00000 g(F)=  0.244E-37 g(S)=  0.910E-01 ort = 0.000E+00 (trialstep = 0.100E+01)
 search vector abs. value=  0.910E-01
 bond charge predicted
       N       E                     dE             d eps       ncg     rms          rms(c)
DAV:   1    -0.876536135338E+03   -0.90273E+00   -0.24884E+01  1080   0.157E+01    0.724E+00
RMM:   2    -0.875623218424E+03    0.91292E+00   -0.75736E+00  1036   0.749E+00    0.946E-01
RMM:   3    -0.875625800311E+03   -0.25819E-02   -0.62151E-01  1144   0.114E+00    0.783E-01
RMM:   4    -0.875615377486E+03    0.10423E-01   -0.41827E-01  1036   0.207E+00    0.795E-01
RMM:   5    -0.875618820068E+03   -0.34426E-02   -0.67543E-02  1044   0.740E-01    0.169E+00
RMM:   6    -0.875604735212E+03    0.14085E-01   -0.39811E-02  1036   0.521E-01    0.193E-01
RMM:   7    -0.875604193361E+03    0.54185E-03   -0.45917E-03  1086   0.153E-01    0.112E-01
RMM:   8    -0.875604123727E+03    0.69633E-04   -0.85404E-04  1121   0.539E-02    0.837E-02
RMM:   9    -0.875604082670E+03    0.41057E-04   -0.16810E-04  1071   0.305E-02    0.452E-02
RMM:  10    -0.875604094087E+03   -0.11416E-04   -0.33970E-04  1043   0.479E-02    0.530E-03
RMM:  11    -0.875604100409E+03   -0.63224E-05   -0.43860E-05  1053   0.614E-03    0.101E-02
RMM:  12    -0.875604094011E+03    0.63977E-05    0.86557E-07   649   0.389E-03    0.797E-03
RMM:  13    -0.875604091941E+03    0.20702E-05    0.84474E-07   805   0.622E-03    0.339E-03
RMM:  14    -0.875604090660E+03    0.12813E-05    0.19202E-06   552   0.213E-03    0.792E-04
RMM:  15    -0.875604089878E+03    0.78172E-06    0.43712E-06   550   0.160E-03
   2 F= -.87560409E+03 E0= -.87588089E+03  d E =0.293123E-01
 trial-energy change:    0.029312  1 .order    0.029901   -0.091025    0.150826
 step:   0.3798(harm=  0.3764)  dis= 0.00000  next Energy=  -875.650720 (dE=-0.173E-01)
 bond charge predicted
       N       E                     dE             d eps       ncg     rms          rms(c)
DAV:   1    -0.875998217110E+03   -0.39413E+00   -0.95097E+00  1080   0.965E+00    0.431E+00
RMM:   2    -0.875654361328E+03    0.34386E+00   -0.26607E+00  1036   0.447E+00    0.653E-01
RMM:   3    -0.875658445975E+03   -0.40846E-02   -0.24621E-01  1071   0.605E-01    0.496E-01
RMM:   4    -0.875656533171E+03    0.19128E-02   -0.20045E-01  1036   0.144E+00    0.545E-01
RMM:   5    -0.875651475886E+03    0.50573E-02   -0.59046E-02  1036   0.756E-01    0.179E-01
RMM:   6    -0.875651716460E+03   -0.24057E-03   -0.43532E-03  1116   0.706E-02    0.226E-01
RMM:   7    -0.875650766541E+03    0.94992E-03   -0.31210E-03  1036   0.169E-01    0.952E-02
RMM:   8    -0.875650605826E+03    0.16071E-03   -0.12470E-03  1076   0.704E-02    0.186E-02
RMM:   9    -0.875650613756E+03   -0.79301E-05   -0.34181E-04  1113   0.318E-02    0.164E-02
RMM:  10    -0.875650620883E+03   -0.71272E-05   -0.43441E-05  1134   0.791E-03    0.263E-02
RMM:  11    -0.875650621404E+03   -0.52022E-06   -0.37592E-05  1028   0.180E-02    0.104E-02
RMM:  12    -0.875650623940E+03   -0.25360E-05   -0.18983E-05  1036   0.864E-03    0.147E-03
RMM:  13    -0.875650622186E+03    0.17538E-05   -0.15914E-06   623   0.134E-03    0.447E-04
RMM:  14    -0.875650622162E+03    0.23356E-07    0.29054E-07   420   0.909E-04
   3 F= -.87565062E+03 E0= -.87593365E+03  d E =-.172200E-01
 curvature:  -0.19 expect dE=-0.247E-05 dE for cont linesearch -0.247E-05
 trial: gam=-0.01186 g(F)=  0.185E-37 g(S)=  0.131E-04 ort = 0.109E-02 (trialstep = 0.876E+00)
 search vector abs. value=  0.199E-08
 reached required accuracy - stopping structural energy minimisation
