 vasp.5.4.4.18Apr17-6-g9f103f2a35 (build Aug 17 2017 06:00:38) complex          
  
 executed on             LinuxIFC date 2019.07.13  00:29:15
 running on    8 total cores
 distrk:  each k-point on    8 cores,    1 groups
 distr:  one band on NCORES_PER_BAND=   4 cores,    2 groups


--------------------------------------------------------------------------------------------------------


 INCAR:
 POTCAR:   PAW_PBE Fe 06Sep2000                   
 POTCAR:   PAW_PBE Fe 06Sep2000                   
   VRHFIN =Fe:  d7 s1                                                           
   LEXCH  = PE                                                                  
   EATOM  =   594.4687 eV,   43.6922 Ry                                         
                                                                                
   TITEL  = PAW_PBE Fe 06Sep2000                                                
   LULTRA =        F    use ultrasoft PP ?                                      
   IUNSCR =        1    unscreen: 0-lin 1-nonlin 2-no                           
   RPACOR =    2.000    partial core radius                                     
   POMASS =   55.847; ZVAL   =    8.000    mass and valenz                      
   RCORE  =    2.300    outmost cutoff radius                                   
   RWIGS  =    2.460; RWIGS  =    1.302    wigner-seitz radius (au A)           
   ENMAX  =  267.883; ENMIN  =  200.912 eV                                      
   RCLOC  =    1.701    cutoff for local pot                                    
   LCOR   =        T    correct aug charges                                     
   LPAW   =        T    paw PP                                                  
   EAUG   =  511.368                                                            
   DEXC   =    -.022                                                            
   RMAX   =    2.817    core radius for proj-oper                               
   RAUG   =    1.300    factor for augmentation sphere                          
   RDEP   =    2.442    radius for radial grids                                 
   QCUT   =   -4.437; QGAM   =    8.874    optimization parameters              
                                                                                
   Description                                                                  
     l     E      TYP  RCUT    TYP  RCUT                                        
     2   .000     23  2.300                                                     
     2   .000     23  2.300                                                     
     0   .000     23  2.300                                                     
     0   .000     23  2.300                                                     
     1  -.200     23  2.300                                                     
     1   .000     23  2.300                                                     
     3   .000      7   .000                                                     
  local pseudopotential read in
  partial core-charges read in
  atomic valenz-charges read in
  non local Contribution for L=           2  read in
    real space projection operators read in
  non local Contribution for L=           2  read in
    real space projection operators read in
  non local Contribution for L=           0  read in
    real space projection operators read in
  non local Contribution for L=           0  read in
    real space projection operators read in
  non local Contribution for L=           1  read in
    real space projection operators read in
  non local Contribution for L=           1  read in
    real space projection operators read in
    PAW grid and wavefunctions read in
 
   number of l-projection  operators is LMAX  =           6
   number of lm-projection operators is LMMAX =          18
 
 Optimization of the real space projectors (new method)

 maximal supplied QI-value         = 16.25
 optimisation between [QCUT,QGAM] = [ 10.24, 20.48] = [ 29.35,117.42] Ry 
 Optimized for a Real-space Cutoff    1.51 Angstroem

   l    n(q)    QCUT    max X(q) W(low)/X(q) W(high)/X(q)  e(spline) 
   2      8    10.239     4.378    0.29E-04    0.57E-04    0.52E-07
   2      8    10.239    23.237    0.44E-03    0.68E-03    0.20E-06
   0      9    10.239    17.641    0.18E-04    0.41E-06    0.72E-08
   0      9    10.239    50.908    0.75E-04    0.38E-04    0.65E-07
   1      9    10.239     6.148    0.18E-04    0.27E-04    0.19E-07
   1      9    10.239     8.345    0.39E-04    0.13E-03    0.98E-07
 PAW_PBE Fe 06Sep2000                   :
 energy of atom  1       EATOM= -594.4687
 kinetic energy error for atom=    0.0088 (will be added to EATOM!!)
 
 
 POSCAR: fcc_Fe_CON_333                          
  positions in direct lattice
  velocities in cartesian coordinates
 exchange correlation table for  LEXCH =        8
   RHO(1)=    0.500       N(1)  =     2000
   RHO(2)=  100.500       N(2)  =     4000
 


--------------------------------------------------------------------------------------------------------


 ion  position               nearest neighbor table
   1  0.000  0.000  0.000-   2 2.44   3 2.44   4 2.44  11 2.44  12 2.44  26 2.44  28 2.44  74 2.44
                            75 2.44  36 2.44  83 2.44  98 2.44
   2  0.000  0.167  0.167-  49 2.44  37 2.44  13 2.44  40 2.44  15 2.44  48 2.44  23 2.44   3 2.44
                             4 2.44   1 2.44  12 2.44  11 2.44
   3  0.167  0.000  0.167-  41 2.44  37 2.44   5 2.44  40 2.44   6 2.44  30 2.44  64 2.44   2 2.44
                             4 2.44   1 2.44  28 2.44  26 2.44
   4  0.167  0.167  0.000-  17 2.44  13 2.44   5 2.44  15 2.44   6 2.44  78 2.44  87 2.44   2 2.44
                             3 2.44   1 2.44  74 2.44  75 2.44
   5  0.333  0.000  0.000-   3 2.44   4 2.44  28 2.44  75 2.44   6 2.44   7 2.44   8 2.44  30 2.44
                            78 2.44  32 2.44  79 2.44 102 2.44
   6  0.333  0.167  0.167-  15 2.44  40 2.44  53 2.44  17 2.44  19 2.44   4 2.44  41 2.44  44 2.44
                             3 2.44   7 2.44   8 2.44   5 2.44
   7  0.500  0.000  0.167-  41 2.44  44 2.44  45 2.44  68 2.44   6 2.44   5 2.44   8 2.44  10 2.44
                            30 2.44   9 2.44  32 2.44  34 2.44
   8  0.500  0.167  0.000-  17 2.44  19 2.44  21 2.44  91 2.44   6 2.44   5 2.44   7 2.44  78 2.44
                            10 2.44  79 2.44   9 2.44  82 2.44
   9  0.667  0.000  0.000-  11 2.44  12 2.44  36 2.44  83 2.44  10 2.44  82 2.44  34 2.44   8 2.44
                             7 2.44 106 2.44  79 2.44  32 2.44
  10  0.667  0.167  0.167-  23 2.44  48 2.44  57 2.44  12 2.44  11 2.44  21 2.44  45 2.44  44 2.44
                            19 2.44   9 2.44   7 2.44   8 2.44
  11  0.833  0.000  0.167-  45 2.44   9 2.44  10 2.44  34 2.44  48 2.44  37 2.44  72 2.44  12 2.44
                             2 2.44  36 2.44   1 2.44  26 2.44
  12  0.833  0.167  0.000-  21 2.44   9 2.44  10 2.44  82 2.44  23 2.44  13 2.44  95 2.44  11 2.44
                             1 2.44  83 2.44   2 2.44  74 2.44
  13  0.000  0.333  0.000-   2 2.44   4 2.44  12 2.44  74 2.44  15 2.44  16 2.44  14 2.44  23 2.44
                            87 2.44  86 2.44  24 2.44  95 2.44
  14  0.000  0.500  0.167-  49 2.44  52 2.44  60 2.44  61 2.44  15 2.44  13 2.44  16 2.44  23 2.44
                            27 2.44  25 2.44  24 2.44  35 2.44
  15  0.167  0.333  0.167-   6 2.44  40 2.44  53 2.44  17 2.44  18 2.44   4 2.44  49 2.44  52 2.44
                             2 2.44  13 2.44  14 2.44  16 2.44
  16  0.167  0.500  0.000-  17 2.44  18 2.44  29 2.44  90 2.44  15 2.44  14 2.44  13 2.44  87 2.44
                            27 2.44  25 2.44  86 2.44  99 2.44
  17  0.333  0.333  0.000-   4 2.44   8 2.44  16 2.44  15 2.44   6 2.44  78 2.44  87 2.44  20 2.44
                            18 2.44  19 2.44  90 2.44  91 2.44
  18  0.333  0.500  0.167-  52 2.44  16 2.44  56 2.44  53 2.44  15 2.44  27 2.44  65 2.44  20 2.44
                            17 2.44  19 2.44  29 2.44  31 2.44
  19  0.500  0.333  0.167-  44 2.44   8 2.44  56 2.44  53 2.44   6 2.44  10 2.44  57 2.44  18 2.44
                            20 2.44  17 2.44  21 2.44  22 2.44
  20  0.500  0.500  0.000-  17 2.44  18 2.44  19 2.44  21 2.44  22 2.44  29 2.44  31 2.44  90 2.44
                            91 2.44  33 2.44  94 2.44 103 2.44
  21  0.667  0.333  0.000-  12 2.44  24 2.44  23 2.44  95 2.44  10 2.44   8 2.44  82 2.44  22 2.44
                            20 2.44  94 2.44  19 2.44  91 2.44
  22  0.667  0.500  0.167-  60 2.44  24 2.44  23 2.44  35 2.44  57 2.44  56 2.44  69 2.44  21 2.44
                            33 2.44  20 2.44  19 2.44  31 2.44
  23  0.833  0.333  0.167-  10 2.44  57 2.44  48 2.44  21 2.44  22 2.44  12 2.44  60 2.44   2 2.44
                            49 2.44  24 2.44  14 2.44  13 2.44
  24  0.833  0.500  0.000-  21 2.44  22 2.44  33 2.44  94 2.44  23 2.44  35 2.44  95 2.44  14 2.44
                            13 2.44 107 2.44  86 2.44  25 2.44
  25  0.000  0.667  0.000-  26 2.44  28 2.44  36 2.44  98 2.44  27 2.44  35 2.44  99 2.44  16 2.44
                            14 2.44 107 2.44  86 2.44  24 2.44
  26  0.000  0.833  0.167-  61 2.44  25 2.44  27 2.44  35 2.44  64 2.44  37 2.44  72 2.44  28 2.44
                             3 2.44  36 2.44   1 2.44  11 2.44
  27  0.167  0.667  0.167-  30 2.44  64 2.44  65 2.44  28 2.44  26 2.44  29 2.44  61 2.44  52 2.44
                            18 2.44  25 2.44  14 2.44  16 2.44
  28  0.167  0.833  0.000-  29 2.44  25 2.44  27 2.44  99 2.44  30 2.44   5 2.44 102 2.44  26 2.44
                            98 2.44   1 2.44   3 2.44  75 2.44
  29  0.333  0.667  0.000-  28 2.44  32 2.44  30 2.44 102 2.44  27 2.44  16 2.44  99 2.44  31 2.44
                            20 2.44  18 2.44 103 2.44  90 2.44
  30  0.333  0.833  0.167-  27 2.44  65 2.44  64 2.44  29 2.44  31 2.44  28 2.44  68 2.44  41 2.44
                             3 2.44  32 2.44   7 2.44   5 2.44
  31  0.500  0.667  0.167-  68 2.44  32 2.44  30 2.44  34 2.44  65 2.44  56 2.44  69 2.44  29 2.44
                            33 2.44  20 2.44  18 2.44  22 2.44
  32  0.500  0.833  0.000-  29 2.44  31 2.44  33 2.44 103 2.44  30 2.44 102 2.44  34 2.44   7 2.44
                             5 2.44 106 2.44  79 2.44   9 2.44
  33  0.667  0.667  0.000-  36 2.44  35 2.44  34 2.44  32 2.44  24 2.44 106 2.44 107 2.44  22 2.44
                            31 2.44 103 2.44  20 2.44  94 2.44
  34  0.667  0.833  0.167-  35 2.44  69 2.44  72 2.44  33 2.44  36 2.44  31 2.44  11 2.44  45 2.44
                            68 2.44  32 2.44   9 2.44   7 2.44
  35  0.833  0.667  0.167-  34 2.44  69 2.44  72 2.44  33 2.44  36 2.44  26 2.44  22 2.44  60 2.44
                            61 2.44  24 2.44  25 2.44  14 2.44
  36  0.833  0.833  0.000-  33 2.44  34 2.44  35 2.44  25 2.44   9 2.44 106 2.44 107 2.44  26 2.44
                            11 2.44  98 2.44   1 2.44  83 2.44
  37  0.000  0.000  0.333-   2 2.44   3 2.44  11 2.44  26 2.44  40 2.44  39 2.44  38 2.44  48 2.44
                            64 2.44  62 2.44  47 2.44  72 2.44
  38  0.000  0.167  0.500-  49 2.44  51 2.44  59 2.44  85 2.44  40 2.44  39 2.44  37 2.44  76 2.44
                            48 2.44  47 2.44  73 2.44  84 2.44
  39  0.167  0.000  0.500-  41 2.44  42 2.44  66 2.44  77 2.44  40 2.44  38 2.44  37 2.44  76 2.44
                            64 2.44  62 2.44  73 2.44 100 2.44
  40  0.167  0.167  0.333-   6 2.44  15 2.44  53 2.44   3 2.44  41 2.44  42 2.44  49 2.44  51 2.44
                             2 2.44  39 2.44  37 2.44  38 2.44
  41  0.333  0.000  0.333-   3 2.44   7 2.44  39 2.44   6 2.44  40 2.44  30 2.44  64 2.44  43 2.44
                            44 2.44  42 2.44  66 2.44  68 2.44
  42  0.333  0.167  0.500-  51 2.44  39 2.44  55 2.44  53 2.44  40 2.44  76 2.44  89 2.44  44 2.44
                            41 2.44  43 2.44  80 2.44  77 2.44
  43  0.500  0.000  0.500-  41 2.44  42 2.44  44 2.44  45 2.44  46 2.44  66 2.44  68 2.44  77 2.44
                            80 2.44  70 2.44  81 2.44 104 2.44
  44  0.500  0.167  0.333-  19 2.44   7 2.44  55 2.44  53 2.44   6 2.44  10 2.44  57 2.44  41 2.44
                            42 2.44  43 2.44  46 2.44  45 2.44
  45  0.667  0.000  0.333-  11 2.44  47 2.44  48 2.44  72 2.44  10 2.44   7 2.44  34 2.44  46 2.44
                            43 2.44  70 2.44  44 2.44  68 2.44
  46  0.667  0.167  0.500-  59 2.44  47 2.44  48 2.44  84 2.44  57 2.44  55 2.44  93 2.44  45 2.44
                            81 2.44  43 2.44  44 2.44  80 2.44
  47  0.833  0.000  0.500-  45 2.44  46 2.44  70 2.44  81 2.44  48 2.44  72 2.44  84 2.44  38 2.44
                            37 2.44 108 2.44  73 2.44  62 2.44
  48  0.833  0.167  0.333-  10 2.44  57 2.44  23 2.44  46 2.44  45 2.44  11 2.44  59 2.44   2 2.44
                            49 2.44  47 2.44  37 2.44  38 2.44
  49  0.000  0.333  0.333-   2 2.44  14 2.44  38 2.44  15 2.44  40 2.44  23 2.44  48 2.44  50 2.44
                            51 2.44  52 2.44  59 2.44  60 2.44
  50  0.000  0.500  0.500-  49 2.44  51 2.44  52 2.44  59 2.44  60 2.44  61 2.44  63 2.44  85 2.44
                            88 2.44  71 2.44  96 2.44  97 2.44
  51  0.167  0.333  0.500-  42 2.44  38 2.44  54 2.44  53 2.44  40 2.44  76 2.44  89 2.44  50 2.44
                            52 2.44  49 2.44  88 2.44  85 2.44
  52  0.167  0.500  0.333-  18 2.44  14 2.44  54 2.44  53 2.44  15 2.44  27 2.44  65 2.44  49 2.44
                            50 2.44  51 2.44  63 2.44  61 2.44
  53  0.333  0.333  0.333-   6 2.44  15 2.44  40 2.44  19 2.44  18 2.44  42 2.44  44 2.44  51 2.44
                            52 2.44  54 2.44  55 2.44  56 2.44
  54  0.333  0.500  0.500-  51 2.44  52 2.44  63 2.44  88 2.44  53 2.44  55 2.44  56 2.44  65 2.44
                            89 2.44  67 2.44  92 2.44 101 2.44
  55  0.500  0.333  0.500-  42 2.44  44 2.44  46 2.44  80 2.44  53 2.44  56 2.44  54 2.44  57 2.44
                            89 2.44  58 2.44  92 2.44  93 2.44
  56  0.500  0.500  0.333-  18 2.44  19 2.44  22 2.44  31 2.44  53 2.44  54 2.44  55 2.44  57 2.44
                            65 2.44  58 2.44  67 2.44  69 2.44
  57  0.667  0.333  0.333-  23 2.44  48 2.44  10 2.44  59 2.44  60 2.44  46 2.44  22 2.44  19 2.44
                            44 2.44  58 2.44  56 2.44  55 2.44
  58  0.667  0.500  0.500-  59 2.44  60 2.44  71 2.44  96 2.44  57 2.44  93 2.44  69 2.44  56 2.44
                            55 2.44 105 2.44  92 2.44  67 2.44
  59  0.833  0.333  0.500-  46 2.44  58 2.44  57 2.44  93 2.44  48 2.44  38 2.44  84 2.44  60 2.44
                            50 2.44  49 2.44  96 2.44  85 2.44
  60  0.833  0.500  0.333-  22 2.44  58 2.44  57 2.44  69 2.44  23 2.44  14 2.44  35 2.44  59 2.44
                            49 2.44  50 2.44  71 2.44  61 2.44
  61  0.000  0.667  0.333-  26 2.44  62 2.44  64 2.44  72 2.44  27 2.44  14 2.44  35 2.44  63 2.44
                            50 2.44  71 2.44  52 2.44  60 2.44
  62  0.000  0.833  0.500-  61 2.44  63 2.44  71 2.44  97 2.44  64 2.44  72 2.44 100 2.44  39 2.44
                            37 2.44 108 2.44  73 2.44  47 2.44
  63  0.167  0.667  0.500-  66 2.44  62 2.44  64 2.44 100 2.44  65 2.44  54 2.44 101 2.44  61 2.44
                            97 2.44  50 2.44  52 2.44  88 2.44
  64  0.167  0.833  0.333-  27 2.44  65 2.44  30 2.44  63 2.44  61 2.44  26 2.44  66 2.44   3 2.44
                            41 2.44  62 2.44  37 2.44  39 2.44
  65  0.333  0.667  0.333-  30 2.44  64 2.44  27 2.44  66 2.44  68 2.44  63 2.44  31 2.44  18 2.44
                            52 2.44  67 2.44  56 2.44  54 2.44
  66  0.333  0.833  0.500-  63 2.44  67 2.44  65 2.44 101 2.44  64 2.44  39 2.44 100 2.44  68 2.44
                            43 2.44  41 2.44 104 2.44  77 2.44
  67  0.500  0.667  0.500-  66 2.44  68 2.44  70 2.44 104 2.44  65 2.44 101 2.44  69 2.44  56 2.44
                            54 2.44 105 2.44  92 2.44  58 2.44
  68  0.500  0.833  0.333-  31 2.44  67 2.44  65 2.44  69 2.44  30 2.44   7 2.44  34 2.44  66 2.44
                            41 2.44  43 2.44  70 2.44  45 2.44
  69  0.667  0.667  0.333-  72 2.44  35 2.44  34 2.44  71 2.44  70 2.44  68 2.44  60 2.44  31 2.44
                            22 2.44  58 2.44  67 2.44  56 2.44
  70  0.667  0.833  0.500-  71 2.44  69 2.44  72 2.44  67 2.44  47 2.44 105 2.44 108 2.44  68 2.44
                            45 2.44 104 2.44  43 2.44  81 2.44
  71  0.833  0.667  0.500-  70 2.44  69 2.44  72 2.44  62 2.44  58 2.44 105 2.44 108 2.44  60 2.44
                            61 2.44  97 2.44  50 2.44  96 2.44
  72  0.833  0.833  0.333-  69 2.44  35 2.44  34 2.44  70 2.44  71 2.44  61 2.44  45 2.44  26 2.44
                            11 2.44  62 2.44  47 2.44  37 2.44
  73  0.000  0.000  0.667-  74 2.44  75 2.44  83 2.44  98 2.44  76 2.44  84 2.44 100 2.44  39 2.44
                            38 2.44 108 2.44  47 2.44  62 2.44
  74  0.000  0.167  0.833-  85 2.44  73 2.44  76 2.44  84 2.44  87 2.44  13 2.44  95 2.44  75 2.44
                             4 2.44  83 2.44   1 2.44  12 2.44
  75  0.167  0.000  0.833-  77 2.44  73 2.44  76 2.44 100 2.44  78 2.44   5 2.44 102 2.44  74 2.44
                            98 2.44   1 2.44   4 2.44  28 2.44
  76  0.167  0.167  0.667-  78 2.44  87 2.44  89 2.44  75 2.44  74 2.44  77 2.44  85 2.44  51 2.44
                            42 2.44  73 2.44  38 2.44  39 2.44
  77  0.333  0.000  0.667-  75 2.44  79 2.44  78 2.44 102 2.44  76 2.44  39 2.44 100 2.44  80 2.44
                            43 2.44  42 2.44 104 2.44  66 2.44
  78  0.333  0.167  0.833-  76 2.44  89 2.44  87 2.44  77 2.44  80 2.44  75 2.44  91 2.44  17 2.44
                             4 2.44  79 2.44   8 2.44   5 2.44
  79  0.500  0.000  0.833-  77 2.44  80 2.44  81 2.44 104 2.44  78 2.44 102 2.44  82 2.44   8 2.44
                             5 2.44 106 2.44   9 2.44  32 2.44
  80  0.500  0.167  0.667-  91 2.44  79 2.44  78 2.44  82 2.44  89 2.44  55 2.44  93 2.44  77 2.44
                            43 2.44  81 2.44  42 2.44  46 2.44
  81  0.667  0.000  0.667-  83 2.44  82 2.44  84 2.44  79 2.44  47 2.44 106 2.44 108 2.44  80 2.44
                            46 2.44 104 2.44  70 2.44  43 2.44
  82  0.667  0.167  0.833-  84 2.44  93 2.44  95 2.44  83 2.44  81 2.44  80 2.44  12 2.44  21 2.44
                            91 2.44  79 2.44   9 2.44   8 2.44
  83  0.833  0.000  0.833-  81 2.44  82 2.44  84 2.44  73 2.44   9 2.44 106 2.44 108 2.44  74 2.44
                            12 2.44  98 2.44  36 2.44   1 2.44
  84  0.833  0.167  0.667-  82 2.44  93 2.44  95 2.44  81 2.44  83 2.44  74 2.44  46 2.44  59 2.44
                            85 2.44  73 2.44  47 2.44  38 2.44
  85  0.000  0.333  0.667-  74 2.44  86 2.44  87 2.44  95 2.44  76 2.44  38 2.44  84 2.44  88 2.44
                            51 2.44  50 2.44  96 2.44  59 2.44
  86  0.000  0.500  0.833-  85 2.44  88 2.44  96 2.44  97 2.44  87 2.44  95 2.44  99 2.44  16 2.44
                            13 2.44 107 2.44  24 2.44  25 2.44
  87  0.167  0.333  0.833-  76 2.44  89 2.44  78 2.44  88 2.44  85 2.44  74 2.44  90 2.44  17 2.44
                             4 2.44  86 2.44  16 2.44  13 2.44
  88  0.167  0.500  0.667-  90 2.44  86 2.44  87 2.44  99 2.44  89 2.44  54 2.44 101 2.44  85 2.44
                            97 2.44  50 2.44  51 2.44  63 2.44
  89  0.333  0.333  0.667-  78 2.44  87 2.44  76 2.44  90 2.44  91 2.44  80 2.44  88 2.44  51 2.44
                            42 2.44  92 2.44  54 2.44  55 2.44
  90  0.333  0.500  0.833-  88 2.44  92 2.44  89 2.44 101 2.44  87 2.44  16 2.44  99 2.44  91 2.44
                            20 2.44  17 2.44 103 2.44  29 2.44
  91  0.500  0.333  0.833-  80 2.44  92 2.44  89 2.44  93 2.44  78 2.44   8 2.44  82 2.44  90 2.44
                            20 2.44  17 2.44  94 2.44  21 2.44
  92  0.500  0.500  0.667-  90 2.44  91 2.44  94 2.44 103 2.44  89 2.44 101 2.44  93 2.44  55 2.44
                            54 2.44 105 2.44  58 2.44  67 2.44
  93  0.667  0.333  0.667-  95 2.44  84 2.44  82 2.44  94 2.44  96 2.44  91 2.44  59 2.44  46 2.44
                            80 2.44  92 2.44  58 2.44  55 2.44
  94  0.667  0.500  0.833-  96 2.44  95 2.44  93 2.44  92 2.44  24 2.44 105 2.44 107 2.44  21 2.44
                            91 2.44 103 2.44  33 2.44  20 2.44
  95  0.833  0.333  0.833-  93 2.44  84 2.44  82 2.44  94 2.44  96 2.44  85 2.44  21 2.44  12 2.44
                            74 2.44  86 2.44  24 2.44  13 2.44
  96  0.833  0.500  0.667-  94 2.44  93 2.44  95 2.44  86 2.44  58 2.44 105 2.44 107 2.44  59 2.44
                            85 2.44  97 2.44  71 2.44  50 2.44
  97  0.000  0.667  0.667-  98 2.44  99 2.44 100 2.44  86 2.44  62 2.44 107 2.44 108 2.44  88 2.44
                            63 2.44  96 2.44  50 2.44  71 2.44
  98  0.000  0.833  0.833-  97 2.44  99 2.44 100 2.44  73 2.44  25 2.44 107 2.44 108 2.44  75 2.44
                            28 2.44  83 2.44   1 2.44  36 2.44
  99  0.167  0.667  0.833- 100 2.44 101 2.44 102 2.44  98 2.44  97 2.44  88 2.44  28 2.44  90 2.44
                            29 2.44  86 2.44  25 2.44  16 2.44
 100  0.167  0.833  0.667-  99 2.44 101 2.44 102 2.44  98 2.44  97 2.44  75 2.44  63 2.44  77 2.44
                            66 2.44  73 2.44  62 2.44  39 2.44
 101  0.333  0.667  0.667- 102 2.44 100 2.44  99 2.44 103 2.44 104 2.44  90 2.44  66 2.44  63 2.44
                            88 2.44  92 2.44  67 2.44  54 2.44
 102  0.333  0.833  0.833- 101 2.44 100 2.44  99 2.44 103 2.44 104 2.44  77 2.44  29 2.44  28 2.44
                            75 2.44  79 2.44  32 2.44   5 2.44
 103  0.500  0.667  0.833- 104 2.44 102 2.44 101 2.44  92 2.44  32 2.44 105 2.44 106 2.44  29 2.44
                            90 2.44  94 2.44  20 2.44  33 2.44
 104  0.500  0.833  0.667- 103 2.44 102 2.44 101 2.44  79 2.44  67 2.44 105 2.44 106 2.44  66 2.44
                            77 2.44  81 2.44  43 2.44  70 2.44
 105  0.667  0.667  0.667- 106 2.44 107 2.44 108 2.44  96 2.44 103 2.44 104 2.44  70 2.44  71 2.44
                            94 2.44  67 2.44  92 2.44  58 2.44
 106  0.667  0.833  0.833- 105 2.44 107 2.44 108 2.44  83 2.44 103 2.44 104 2.44  33 2.44  36 2.44
                            81 2.44  32 2.44  79 2.44   9 2.44
 107  0.833  0.667  0.833- 105 2.44 106 2.44 108 2.44  96 2.44  97 2.44  98 2.44  33 2.44  36 2.44
                            94 2.44  25 2.44  86 2.44  24 2.44
 108  0.833  0.833  0.667- 105 2.44 106 2.44 107 2.44  83 2.44  97 2.44  98 2.44  70 2.44  71 2.44
                            81 2.44  62 2.44  73 2.44  47 2.44
 
  LATTYP: Found a simple cubic cell.
 ALAT       =    10.3348470474
  
  Lattice vectors:
  
 A1 = (  10.3348470474,   0.0000000000,   0.0000000000)
 A2 = (   0.0000000000,  10.3348470474,   0.0000000000)
 A3 = (   0.0000000000,   0.0000000000,  10.3348470474)


Analysis of symmetry for initial positions (statically):
=====================================================================
 Subroutine PRICEL returns following result:
 
  LATTYP: Found a simple cubic cell.
 ALAT       =     3.4449252899
  
  Lattice vectors:
  
 A1 = (   3.4449252899,   0.0000000000,   0.0000000000)
 A2 = (   0.0000000000,   3.4449252899,   0.0000000000)
 A3 = (   0.0000000000,   0.0000000000,   3.4449252443)
 
  27 primitive cells build up your supercell.
 

 Routine SETGRP: Setting up the symmetry group for a 
 simple cubic supercell.


 Subroutine GETGRP returns: Found 48 space group operations
 (whereof 48 operations were pure point group operations)
 out of a pool of 48 trial point group operations.


The static configuration has the point symmetry O_h .


Analysis of symmetry for dynamics (positions and initial velocities):
=====================================================================
 Subroutine PRICEL returns following result:
 
  LATTYP: Found a simple cubic cell.
 ALAT       =     3.4449252899
  
  Lattice vectors:
  
 A1 = (   3.4449252899,   0.0000000000,   0.0000000000)
 A2 = (   0.0000000000,   3.4449252899,   0.0000000000)
 A3 = (   0.0000000000,   0.0000000000,   3.4449252443)
 
  27 primitive cells build up your supercell.
 

 Routine SETGRP: Setting up the symmetry group for a 
 simple cubic supercell.


 Subroutine GETGRP returns: Found 48 space group operations
 (whereof 48 operations were pure point group operations)
 out of a pool of 48 trial point group operations.


The dynamic configuration has the point symmetry O_h .


 Subroutine INISYM returns: Found 48 space group operations
 (whereof 48 operations are pure point group operations),
 and found    27 'primitive' translations

 
 
 KPOINTS: pymatgen generated KPOINTS with grid den

Automatic generation of k-mesh.
Space group operators:
 irot       det(A)        alpha          n_x          n_y          n_z        tau_x        tau_y        tau_z
    1     1.000000     0.000000     1.000000     0.000000     0.000000     0.000000     0.000000     0.000000
    2    -1.000000     0.000000     1.000000     0.000000     0.000000     0.000000     0.000000     0.000000
    3     1.000000   120.000000    -0.577350    -0.577350    -0.577350     0.000000     0.000000     0.000000
    4    -1.000000   120.000000    -0.577350    -0.577350    -0.577350     0.000000     0.000000     0.000000
    5     1.000000   120.000000     0.577350     0.577350     0.577350     0.000000     0.000000     0.000000
    6    -1.000000   120.000000     0.577350     0.577350     0.577350     0.000000     0.000000     0.000000
    7     1.000000    90.000000     0.000000     0.000000    -1.000000     0.000000     0.000000     0.000000
    8    -1.000000    90.000000     0.000000     0.000000    -1.000000     0.000000     0.000000     0.000000
    9     1.000000   180.000000     0.000000     0.707107     0.707107     0.000000     0.000000     0.000000
   10    -1.000000   180.000000     0.000000     0.707107     0.707107     0.000000     0.000000     0.000000
   11     1.000000    90.000000     0.000000     1.000000     0.000000     0.000000     0.000000     0.000000
   12    -1.000000    90.000000     0.000000     1.000000     0.000000     0.000000     0.000000     0.000000
   13     1.000000   180.000000     0.000000     0.000000     1.000000     0.000000     0.000000     0.000000
   14    -1.000000   180.000000     0.000000     0.000000     1.000000     0.000000     0.000000     0.000000
   15     1.000000   120.000000    -0.577350     0.577350     0.577350     0.000000     0.000000     0.000000
   16    -1.000000   120.000000    -0.577350     0.577350     0.577350     0.000000     0.000000     0.000000
   17     1.000000   120.000000    -0.577350     0.577350    -0.577350     0.000000     0.000000     0.000000
   18    -1.000000   120.000000    -0.577350     0.577350    -0.577350     0.000000     0.000000     0.000000
   19     1.000000    90.000000     0.000000     0.000000     1.000000     0.000000     0.000000     0.000000
   20    -1.000000    90.000000     0.000000     0.000000     1.000000     0.000000     0.000000     0.000000
   21     1.000000    90.000000    -1.000000     0.000000     0.000000     0.000000     0.000000     0.000000
   22    -1.000000    90.000000    -1.000000     0.000000     0.000000     0.000000     0.000000     0.000000
   23     1.000000   180.000000     0.707107     0.000000     0.707107     0.000000     0.000000     0.000000
   24    -1.000000   180.000000     0.707107     0.000000     0.707107     0.000000     0.000000     0.000000
   25     1.000000   120.000000     0.577350    -0.577350     0.577350     0.000000     0.000000     0.000000
   26    -1.000000   120.000000     0.577350    -0.577350     0.577350     0.000000     0.000000     0.000000
   27     1.000000   120.000000    -0.577350    -0.577350     0.577350     0.000000     0.000000     0.000000
   28    -1.000000   120.000000    -0.577350    -0.577350     0.577350     0.000000     0.000000     0.000000
   29     1.000000   180.000000     1.000000     0.000000     0.000000     0.000000     0.000000     0.000000
   30    -1.000000   180.000000     1.000000     0.000000     0.000000     0.000000     0.000000     0.000000
   31     1.000000    90.000000     0.000000    -1.000000     0.000000     0.000000     0.000000     0.000000
   32    -1.000000    90.000000     0.000000    -1.000000     0.000000     0.000000     0.000000     0.000000
   33     1.000000   180.000000     0.707107     0.707107     0.000000     0.000000     0.000000     0.000000
   34    -1.000000   180.000000     0.707107     0.707107     0.000000     0.000000     0.000000     0.000000
   35     1.000000    90.000000     1.000000     0.000000     0.000000     0.000000     0.000000     0.000000
   36    -1.000000    90.000000     1.000000     0.000000     0.000000     0.000000     0.000000     0.000000
   37     1.000000   120.000000     0.577350    -0.577350    -0.577350     0.000000     0.000000     0.000000
   38    -1.000000   120.000000     0.577350    -0.577350    -0.577350     0.000000     0.000000     0.000000
   39     1.000000   180.000000     0.000000     1.000000     0.000000     0.000000     0.000000     0.000000
   40    -1.000000   180.000000     0.000000     1.000000     0.000000     0.000000     0.000000     0.000000
   41     1.000000   120.000000     0.577350     0.577350    -0.577350     0.000000     0.000000     0.000000
   42    -1.000000   120.000000     0.577350     0.577350    -0.577350     0.000000     0.000000     0.000000
   43     1.000000   180.000000     0.000000    -0.707107     0.707107     0.000000     0.000000     0.000000
   44    -1.000000   180.000000     0.000000    -0.707107     0.707107     0.000000     0.000000     0.000000
   45     1.000000   180.000000     0.707107    -0.707107     0.000000     0.000000     0.000000     0.000000
   46    -1.000000   180.000000     0.707107    -0.707107     0.000000     0.000000     0.000000     0.000000
   47     1.000000   180.000000     0.707107     0.000000    -0.707107     0.000000     0.000000     0.000000
   48    -1.000000   180.000000     0.707107     0.000000    -0.707107     0.000000     0.000000     0.000000
 
 Subroutine IBZKPT returns following result:
 ===========================================
 
 Found      1 irreducible k-points:
 
 Following reciprocal coordinates:
            Coordinates               Weight
  0.000000  0.000000  0.000000      1.000000
 
 Following cartesian coordinates:
            Coordinates               Weight
  0.000000  0.000000  0.000000      1.000000
 


--------------------------------------------------------------------------------------------------------




 Dimension of arrays:
   k-points           NKPTS =      1   k-points in BZ     NKDIM =      1   number of bands    NBANDS=    518
   number of dos      NEDOS =    301   number of ions     NIONS =    108
   non local maximal  LDIM  =      6   non local SUM 2l+1 LMDIM =     18
   total plane-waves  NPLWV = 373248
   max r-space proj   IRMAX =   4912   max aug-charges    IRDMAX=  12243
   dimension x,y,z NGX =    72 NGY =   72 NGZ =   72
   dimension x,y,z NGXF=   144 NGYF=  144 NGZF=  144
   support grid    NGXF=   144 NGYF=  144 NGZF=  144
   ions per type =             108
   NGX,Y,Z   is equivalent  to a cutoff of  11.58, 11.58, 11.58 a.u.
   NGXF,Y,Z  is equivalent  to a cutoff of  23.16, 23.16, 23.16 a.u.

 Based on PREC, I would recommend the following setting:
   dimension x,y,z NGX =    54 NGY =   54 NGZ =   54

 SYSTEM =  Opt                                     
 POSCAR =  fcc_Fe_CON_333                          

 Startparameter for this run:
   NWRITE =      2    write-flag & timer
   PREC   = normal    normal or accurate (medium, high low for compatibility)
   ISTART =      0    job   : 0-new  1-cont  2-samecut
   ICHARG =      2    charge: 1-file 2-atom 10-const
   ISPIN  =      1    spin polarized calculation?
   LNONCOLLINEAR =      F non collinear calculations
   LSORBIT =      F    spin-orbit coupling
   INIWAV =      1    electr: 0-lowe 1-rand  2-diag
   LASPH  =      F    aspherical Exc in radial PAW
   METAGGA=      F    non-selfconsistent MetaGGA calc.

 Electronic Relaxation 1
   ENCUT  =  400.0 eV  29.40 Ry    5.42 a.u.  16.85 16.85 16.85*2*pi/ulx,y,z
   ENINI  =  400.0     initial cutoff
   ENAUG  =  511.4 eV  augmentation charge cutoff
   NELM   =    400;   NELMIN=  2; NELMDL= -5     # of ELM steps 
   EDIFF  = 0.1E-05   stopping-criterion for ELM
   LREAL  =      T    real-space projection
   NLSPLINE    = F    spline interpolate recip. space projectors
   LCOMPAT=      F    compatible to vasp.4.4
   GGA_COMPAT  = T    GGA compatible to vasp.4.4-vasp.4.6
   LMAXPAW     = -100 max onsite density
   LMAXMIX     =    2 max onsite mixed and CHGCAR
   VOSKOWN=      0    Vosko Wilk Nusair interpolation
   ROPT   =   -0.00050
 Ionic relaxation
   EDIFFG = -.1E-01   stopping-criterion for IOM
   NSW    =    100    number of steps for IOM
   NBLOCK =      1;   KBLOCK =    100    inner block; outer block 
   IBRION =      2    ionic relax: 0-MD 1-quasi-New 2-CG
   NFREE  =      1    steps in history (QN), initial steepest desc. (CG)
   ISIF   =      3    stress and relaxation
   IWAVPR =     11    prediction:  0-non 1-charg 2-wave 3-comb
   ISYM   =      2    0-nonsym 1-usesym 2-fastsym
   LCORR  =      T    Harris-Foulkes like correction to forces

   POTIM  = 0.5000    time-step for ionic-motion
   TEIN   =    0.0    initial temperature
   TEBEG  =    0.0;   TEEND  =   0.0 temperature during run
   SMASS  =  -3.00    Nose mass-parameter (am)
   estimated Nose-frequenzy (Omega)   =  0.10E-29 period in steps =****** mass=  -0.244E-26a.u.
   SCALEE = 1.0000    scale energy and forces
   NPACO  =    256;   APACO  = 16.0  distance and # of slots for P.C.
   PSTRESS=    0.0 pullay stress

  Mass of Ions in am
   POMASS =  55.85
  Ionic Valenz
   ZVAL   =   8.00
  Atomic Wigner-Seitz radii
   RWIGS  =  -1.00
  virtual crystal weights 
   VCA    =   1.00
   NELECT =     864.0000    total number of electrons
   NUPDOWN=      -1.0000    fix difference up-down

 DOS related values:
   EMIN   =  10.00;   EMAX   =-10.00  energy-range for DOS
   EFERMI =   0.00
   ISMEAR =     1;   SIGMA  =   0.20  broadening in eV -4-tet -1-fermi 0-gaus

 Electronic relaxation 2 (details)
   IALGO  =     68    algorithm
   LDIAG  =      T    sub-space diagonalisation (order eigenvalues)
   LSUBROT=      F    optimize rotation matrix (better conditioning)
   TURBO    =      0    0=normal 1=particle mesh
   IRESTART =      0    0=no restart 2=restart with 2 vectors
   NREBOOT  =      0    no. of reboots
   NMIN     =      0    reboot dimension
   EREF     =   0.00    reference energy to select bands
   IMIX   =      4    mixing-type and parameters
     AMIX     =   0.40;   BMIX     =  1.00
     AMIX_MAG =   1.60;   BMIX_MAG =  1.00
     AMIN     =   0.10
     WC   =   100.;   INIMIX=   1;  MIXPRE=   1;  MAXMIX= -45

 Intra band minimization:
   WEIMIN = 0.0010     energy-eigenvalue tresh-hold
   EBREAK =  0.48E-09  absolut break condition
   DEPER  =   0.30     relativ break condition  

   TIME   =   0.40     timestep for ELM

  volume/ion in A,a.u.               =      10.22        68.97
  Fermi-wavevector in a.u.,A,eV,Ry     =   1.508720  2.851068 30.970078  2.276236
  Thomas-Fermi vector in A             =   2.619137
 
 Write flags
   LWAVE        =      F    write WAVECAR
   LDOWNSAMPLE  =      F    k-point downsampling of WAVECAR
   LCHARG       =      F    write CHGCAR
   LVTOT        =      F    write LOCPOT, total local potential
   LVHAR        =      F    write LOCPOT, Hartree potential only
   LELF         =      F    write electronic localiz. function (ELF)
   LORBIT       =      0    0 simple, 1 ext, 2 COOP (PROOUT), +10 PAW based schemes


 Dipole corrections
   LMONO  =      F    monopole corrections only (constant potential shift)
   LDIPOL =      F    correct potential (dipole corrections)
   IDIPOL =      0    1-x, 2-y, 3-z, 4-all directions 
   EPSILON=  1.0000000 bulk dielectric constant

 Exchange correlation treatment:
   GGA     =    --    GGA type
   LEXCH   =     8    internal setting for exchange type
   VOSKOWN=      0    Vosko Wilk Nusair interpolation
   LHFCALC =     F    Hartree Fock is set to
   LHFONE  =     F    Hartree Fock one center treatment
   AEXX    =    0.0000 exact exchange contribution

 Linear response parameters
   LEPSILON=     F    determine dielectric tensor
   LRPA    =     F    only Hartree local field effects (RPA)
   LNABLA  =     F    use nabla operator in PAW spheres
   LVEL    =     F    velocity operator in full k-point grid
   LINTERFAST=   F  fast interpolation
   KINTER  =     0    interpolate to denser k-point grid
   CSHIFT  =0.1000    complex shift for real part using Kramers Kronig
   OMEGAMAX=  -1.0    maximum frequency
   DEG_THRESHOLD= 0.2000000E-02 threshold for treating states as degnerate
   RTIME   =   -0.100 relaxation time in fs
  (WPLASMAI=    0.000 imaginary part of plasma frequency in eV, 0.658/RTIME)
   DFIELD  = 0.0000000 0.0000000 0.0000000 field for delta impulse in time
 
 Orbital magnetization related:
   ORBITALMAG=     F  switch on orbital magnetization
   LCHIMAG   =     F  perturbation theory with respect to B field
   DQ        =  0.001000  dq finite difference perturbation B field
   LLRAUG    =     F  two centre corrections for induced B field



--------------------------------------------------------------------------------------------------------


 conjugate gradient relaxation of ions
 charge density and potential will be updated during run
 non-spin polarized calculation
 RMM-DIIS sequential band-by-band and
  variant of blocked Davidson during initial phase
 perform sub-space diagonalisation
    before iterative eigenvector-optimisation
 modified Broyden-mixing scheme, WC =      100.0
 initial mixing is a Kerker type mixing with AMIX =  0.4000 and BMIX =      1.0000
 Hartree-type preconditioning will be used
 using additional bands           86
 real space projection scheme for non local part
 use partial core corrections
 calculate Harris-corrections to forces 
   (improved forces if not selfconsistent)
 use gradient corrections 
 use of overlap-Matrix (Vanderbilt PP)
 Methfessel and Paxton  Order N= 1 SIGMA  =   0.20


--------------------------------------------------------------------------------------------------------


  energy-cutoff  :      400.00
  volume of cell :     1103.86
      direct lattice vectors                 reciprocal lattice vectors
    10.334847047  0.000000000  0.000000000     0.096760019  0.000000000  0.000000000
     0.000000000 10.334847047  0.000000000     0.000000000  0.096760019  0.000000000
     0.000000000  0.000000000 10.334847047     0.000000000  0.000000000  0.096760019

  length of vectors
    10.334847047 10.334847047 10.334847047     0.096760019  0.096760019  0.096760019


 
 k-points in units of 2pi/SCALE and weight: pymatgen generated KPOINTS with grid den
   0.00000000  0.00000000  0.00000000       1.000
 
 k-points in reciprocal lattice and weights: pymatgen generated KPOINTS with grid den
   0.00000000  0.00000000  0.00000000       1.000
 
 position of ions in fractional coordinates (direct lattice) 
   0.00000000  0.00000000  0.00000000
   0.00000000  0.16666893  0.16666893
   0.16666893  0.00000000  0.16666893
   0.16666893  0.16666893  0.00000000
   0.33333106  0.00000000  0.00000000
   0.33333107  0.16666893  0.16666893
   0.50000000  0.00000000  0.16666894
   0.50000000  0.16666894  0.00000000
   0.66666897  0.00000000  0.00000000
   0.66666896  0.16666893  0.16666893
   0.83333104  0.00000000  0.16666893
   0.83333104  0.16666893  0.00000000
   0.00000000  0.33333106  0.00000000
   0.00000000  0.50000000  0.16666894
   0.16666893  0.33333107  0.16666893
   0.16666894  0.50000000  0.00000000
   0.33333107  0.33333107  0.00000000
   0.33333107  0.50000000  0.16666893
   0.50000000  0.33333107  0.16666893
   0.50000000  0.50000000  0.00000000
   0.66666896  0.33333107  0.00000000
   0.66666896  0.50000000  0.16666893
   0.83333104  0.33333107  0.16666893
   0.83333103  0.50000000  0.00000000
   0.00000000  0.66666897  0.00000000
   0.00000000  0.83333104  0.16666893
   0.16666893  0.66666896  0.16666893
   0.16666893  0.83333104  0.00000000
   0.33333107  0.66666896  0.00000000
   0.33333107  0.83333104  0.16666893
   0.50000000  0.66666896  0.16666893
   0.50000000  0.83333103  0.00000000
   0.66666896  0.66666896  0.00000000
   0.66666896  0.83333104  0.16666893
   0.83333104  0.66666896  0.16666893
   0.83333104  0.83333104  0.00000000
   0.00000000  0.00000000  0.33333106
   0.00000000  0.16666894  0.50000000
   0.16666894  0.00000000  0.50000000
   0.16666893  0.16666893  0.33333107
   0.33333107  0.00000000  0.33333107
   0.33333107  0.16666893  0.50000000
   0.50000000  0.00000000  0.50000000
   0.50000000  0.16666893  0.33333107
   0.66666896  0.00000000  0.33333107
   0.66666896  0.16666893  0.50000000
   0.83333103  0.00000000  0.50000000
   0.83333104  0.16666893  0.33333107
   0.00000000  0.33333107  0.33333107
   0.00000000  0.50000000  0.50000000
   0.16666893  0.33333107  0.50000000
   0.16666893  0.50000000  0.33333107
   0.33333107  0.33333107  0.33333107
   0.33333106  0.50000000  0.50000000
   0.50000000  0.33333106  0.50000000
   0.50000000  0.50000000  0.33333106
   0.66666896  0.33333107  0.33333107
   0.66666897  0.50000000  0.50000000
   0.83333104  0.33333107  0.50000000
   0.83333104  0.50000000  0.33333107
   0.00000000  0.66666896  0.33333107
   0.00000000  0.83333103  0.50000000
   0.16666893  0.66666896  0.50000000
   0.16666893  0.83333104  0.33333107
   0.33333107  0.66666896  0.33333107
   0.33333107  0.83333104  0.50000000
   0.50000000  0.66666897  0.50000000
   0.50000000  0.83333104  0.33333107
   0.66666896  0.66666896  0.33333107
   0.66666896  0.83333104  0.50000000
   0.83333104  0.66666896  0.50000000
   0.83333104  0.83333104  0.33333107
   0.00000000  0.00000000  0.66666897
   0.00000000  0.16666893  0.83333104
   0.16666893  0.00000000  0.83333104
   0.16666893  0.16666893  0.66666896
   0.33333107  0.00000000  0.66666896
   0.33333107  0.16666893  0.83333104
   0.50000000  0.00000000  0.83333103
   0.50000000  0.16666893  0.66666896
   0.66666896  0.00000000  0.66666896
   0.66666896  0.16666893  0.83333104
   0.83333104  0.00000000  0.83333104
   0.83333104  0.16666893  0.66666896
   0.00000000  0.33333107  0.66666896
   0.00000000  0.50000000  0.83333103
   0.16666893  0.33333107  0.83333104
   0.16666893  0.50000000  0.66666896
   0.33333107  0.33333107  0.66666896
   0.33333107  0.50000000  0.83333104
   0.50000000  0.33333107  0.83333104
   0.50000000  0.50000000  0.66666897
   0.66666896  0.33333107  0.66666896
   0.66666896  0.50000000  0.83333104
   0.83333104  0.33333107  0.83333104
   0.83333104  0.50000000  0.66666896
   0.00000000  0.66666896  0.66666896
   0.00000000  0.83333104  0.83333104
   0.16666893  0.66666896  0.83333104
   0.16666893  0.83333104  0.66666896
   0.33333107  0.66666896  0.66666896
   0.33333107  0.83333104  0.83333104
   0.50000000  0.66666896  0.83333104
   0.50000000  0.83333104  0.66666896
   0.66666896  0.66666896  0.66666896
   0.66666896  0.83333104  0.83333104
   0.83333104  0.66666896  0.83333104
   0.83333104  0.83333104  0.66666896
 
 position of ions in cartesian coordinates  (Angst):
   0.00000000  0.00000000  0.00000000
   0.00000000  1.72249793  1.72249793
   1.72249793  0.00000000  1.72249793
   1.72249793  1.72249793  0.00000000
   3.44492554  0.00000000  0.00000000
   3.44492559  1.72249794  1.72249794
   5.16742352  0.00000000  1.72249798
   5.16742352  1.72249798  0.00000000
   6.88992180  0.00000000  0.00000000
   6.88992176  1.72249794  1.72249794
   8.61234881  0.00000000  1.72249793
   8.61234881  1.72249793  0.00000000
   0.00000000  3.44492554  0.00000000
   0.00000000  5.16742352  1.72249798
   1.72249794  3.44492559  1.72249794
   1.72249798  5.16742352  0.00000000
   3.44492559  3.44492559  0.00000000
   3.44492559  5.16742352  1.72249793
   5.16742352  3.44492559  1.72249793
   5.16742352  5.16742352  0.00000000
   6.88992176  3.44492559  0.00000000
   6.88992176  5.16742352  1.72249793
   8.61234881  3.44492559  1.72249794
   8.61234877  5.16742352  0.00000000
   0.00000000  6.88992180  0.00000000
   0.00000000  8.61234881  1.72249793
   1.72249794  6.88992176  1.72249794
   1.72249793  8.61234881  0.00000000
   3.44492559  6.88992176  0.00000000
   3.44492559  8.61234881  1.72249794
   5.16742352  6.88992176  1.72249793
   5.16742352  8.61234877  0.00000000
   6.88992176  6.88992176  0.00000000
   6.88992176  8.61234881  1.72249794
   8.61234881  6.88992176  1.72249794
   8.61234881  8.61234881  0.00000000
   0.00000000  0.00000000  3.44492554
   0.00000000  1.72249798  5.16742352
   1.72249798  0.00000000  5.16742352
   1.72249794  1.72249794  3.44492559
   3.44492559  0.00000000  3.44492559
   3.44492559  1.72249793  5.16742352
   5.16742352  0.00000000  5.16742352
   5.16742352  1.72249793  3.44492559
   6.88992176  0.00000000  3.44492559
   6.88992176  1.72249793  5.16742352
   8.61234877  0.00000000  5.16742352
   8.61234881  1.72249794  3.44492559
   0.00000000  3.44492559  3.44492559
   0.00000000  5.16742352  5.16742352
   1.72249793  3.44492559  5.16742352
   1.72249793  5.16742352  3.44492559
   3.44492559  3.44492559  3.44492559
   3.44492554  5.16742352  5.16742352
   5.16742352  3.44492554  5.16742352
   5.16742352  5.16742352  3.44492554
   6.88992176  3.44492559  3.44492559
   6.88992180  5.16742352  5.16742352
   8.61234881  3.44492559  5.16742352
   8.61234881  5.16742352  3.44492559
   0.00000000  6.88992176  3.44492559
   0.00000000  8.61234877  5.16742352
   1.72249793  6.88992176  5.16742352
   1.72249794  8.61234881  3.44492559
   3.44492559  6.88992176  3.44492559
   3.44492559  8.61234881  5.16742352
   5.16742352  6.88992180  5.16742352
   5.16742352  8.61234881  3.44492559
   6.88992176  6.88992176  3.44492559
   6.88992176  8.61234881  5.16742352
   8.61234881  6.88992176  5.16742352
   8.61234881  8.61234881  3.44492559
   0.00000000  0.00000000  6.88992180
   0.00000000  1.72249793  8.61234881
   1.72249793  0.00000000  8.61234881
   1.72249794  1.72249794  6.88992176
   3.44492559  0.00000000  6.88992176
   3.44492559  1.72249794  8.61234881
   5.16742352  0.00000000  8.61234877
   5.16742352  1.72249793  6.88992176
   6.88992176  0.00000000  6.88992176
   6.88992176  1.72249794  8.61234881
   8.61234881  0.00000000  8.61234881
   8.61234881  1.72249794  6.88992176
   0.00000000  3.44492559  6.88992176
   0.00000000  5.16742352  8.61234877
   1.72249794  3.44492559  8.61234881
   1.72249793  5.16742352  6.88992176
   3.44492559  3.44492559  6.88992176
   3.44492559  5.16742352  8.61234881
   5.16742352  3.44492559  8.61234881
   5.16742352  5.16742352  6.88992180
   6.88992176  3.44492559  6.88992176
   6.88992176  5.16742352  8.61234881
   8.61234881  3.44492559  8.61234881
   8.61234881  5.16742352  6.88992176
   0.00000000  6.88992176  6.88992176
   0.00000000  8.61234881  8.61234881
   1.72249794  6.88992176  8.61234881
   1.72249794  8.61234881  6.88992176
   3.44492559  6.88992176  6.88992176
   3.44492559  8.61234881  8.61234881
   5.16742352  6.88992176  8.61234881
   5.16742352  8.61234881  6.88992176
   6.88992176  6.88992176  6.88992176
   6.88992176  8.61234881  8.61234881
   8.61234881  6.88992176  8.61234881
   8.61234881  8.61234881  6.88992176
 


--------------------------------------------------------------------------------------------------------


 k-point  1 :   0.0000 0.0000 0.0000  plane waves:   20005

 maximum and minimum number of plane-waves per node :      5014     4993

 maximum number of plane-waves:     20005
 maximum index in each direction: 
   IXMAX=   16   IYMAX=   16   IZMAX=   16
   IXMIN=  -16   IYMIN=  -16   IZMIN=  -16


 real space projection operators:
  total allocation   :      71821.69 KBytes
  max/ min on nodes  :      18240.19      17708.62


 parallel 3D FFT for wavefunctions:
    minimum data exchange during FFTs selected (reduces bandwidth)
 parallel 3D FFT for charge:
    minimum data exchange during FFTs selected (reduces bandwidth)


 total amount of memory used by VASP MPI-rank0   121840. kBytes
=======================================================================

   base      :      30000. kBytes
   nonlr-proj:      31400. kBytes
   fftplans  :      15428. kBytes
   grid      :      21835. kBytes
   one-center:        419. kBytes
   wavefun   :      22758. kBytes
 
     INWAV:  cpu time    0.0000: real time    0.0001
 Broyden mixing: mesh for mixing (old mesh)
   NGX = 33   NGY = 33   NGZ = 33
  (NGX  =144   NGY  =144   NGZ  =144)
  gives a total of  35937 points

 initial charge density was supplied:
 charge density of overlapping atoms calculated
 number of electron     864.0000000 magnetization 
 keeping initial charge density in first step


--------------------------------------------------------------------------------------------------------


 Maximum index for non-local projection operator         1201
 Maximum index for augmentation-charges         1463 (set IRDMAX)


--------------------------------------------------------------------------------------------------------


 First call to EWALD:  gamma=   0.172
 Maximum number of real-space cells 3x 3x 3
 Maximum number of reciprocal cells 3x 3x 3

    FEWALD:  cpu time    0.0243: real time    0.0243


--------------------------------------- Iteration      1(   1)  ---------------------------------------


    POTLOK:  cpu time    0.5024: real time    0.5028
    SETDIJ:  cpu time    0.1035: real time    0.1035
     EDDAV:  cpu time   16.2703: real time   16.2990
       DOS:  cpu time    0.0030: real time    0.0030
    --------------------------------------------
      LOOP:  cpu time   16.8791: real time   16.9083

 eigenvalue-minimisations  :  1036
 total energy-change (2. order) : 0.7612606E+04  (-0.2885035E+05)
 number of electron     864.0000000 magnetization 
 augmentation part      864.0000000 magnetization 

 Free energy of the ion-electron system (eV)
  ---------------------------------------------------
  alpha Z        PSCENC =      7300.31925852
  Ewald energy   TEWEN  =    -66232.83996889
  -Hartree energ DENC   =    -11197.02572337
  -exchange      EXHF   =         0.00000000
  -V(xc)+E(xc)   XCENC  =       446.63038354
  PAW double counting   =     51723.88885462   -52548.28121372
  entropy T*S    EENTRO =        -0.00696805
  eigenvalues    EBANDS =     13918.25084432
  atomic energy  EATOM  =     64201.67088057
  Solvation  Ediel_sol  =         0.00000000
  ---------------------------------------------------
  free energy    TOTEN  =      7612.60634755 eV

  energy without entropy =     7612.61331560  energy(sigma->0) =     7612.60867023


--------------------------------------------------------------------------------------------------------




--------------------------------------- Iteration      1(   2)  ---------------------------------------


     EDDAV:  cpu time   12.2529: real time   12.2545
       DOS:  cpu time    0.0017: real time    0.0016
    --------------------------------------------
      LOOP:  cpu time   12.2546: real time   12.2562

 eigenvalue-minimisations  :  1036
 total energy-change (2. order) :-0.7633915E+04  (-0.7462668E+04)
 number of electron     864.0000000 magnetization 
 augmentation part      864.0000000 magnetization 

 Free energy of the ion-electron system (eV)
  ---------------------------------------------------
  alpha Z        PSCENC =      7300.31925852
  Ewald energy   TEWEN  =    -66232.83996889
  -Hartree energ DENC   =    -11197.02572337
  -exchange      EXHF   =         0.00000000
  -V(xc)+E(xc)   XCENC  =       446.63038354
  PAW double counting   =     51723.88885462   -52548.28121372
  entropy T*S    EENTRO =         0.01443135
  eigenvalues    EBANDS =      6284.31482155
  atomic energy  EATOM  =     64201.67088057
  Solvation  Ediel_sol  =         0.00000000
  ---------------------------------------------------
  free energy    TOTEN  =       -21.30827583 eV

  energy without entropy =      -21.32270717  energy(sigma->0) =      -21.31308628


--------------------------------------------------------------------------------------------------------




--------------------------------------- Iteration      1(   3)  ---------------------------------------


     EDDAV:  cpu time    9.8197: real time    9.8213
       DOS:  cpu time    0.0019: real time    0.0019
    --------------------------------------------
      LOOP:  cpu time    9.8216: real time    9.8232

 eigenvalue-minimisations  :  1036
 total energy-change (2. order) :-0.8257543E+03  (-0.7096381E+03)
 number of electron     864.0000000 magnetization 
 augmentation part      864.0000000 magnetization 

 Free energy of the ion-electron system (eV)
  ---------------------------------------------------
  alpha Z        PSCENC =      7300.31925852
  Ewald energy   TEWEN  =    -66232.83996889
  -Hartree energ DENC   =    -11197.02572337
  -exchange      EXHF   =         0.00000000
  -V(xc)+E(xc)   XCENC  =       446.63038354
  PAW double counting   =     51723.88885462   -52548.28121372
  entropy T*S    EENTRO =        -0.06883208
  eigenvalues    EBANDS =      5458.64378626
  atomic energy  EATOM  =     64201.67088057
  Solvation  Ediel_sol  =         0.00000000
  ---------------------------------------------------
  free energy    TOTEN  =      -847.06257454 eV

  energy without entropy =     -846.99374246  energy(sigma->0) =     -847.03963051


--------------------------------------------------------------------------------------------------------




--------------------------------------- Iteration      1(   4)  ---------------------------------------


     EDDAV:  cpu time   15.8091: real time   15.8383
       DOS:  cpu time    0.0020: real time    0.0020
    --------------------------------------------
      LOOP:  cpu time   15.8111: real time   15.8403

 eigenvalue-minimisations  :  1864
 total energy-change (2. order) :-0.1795850E+03  (-0.1691265E+03)
 number of electron     864.0000000 magnetization 
 augmentation part      864.0000000 magnetization 

 Free energy of the ion-electron system (eV)
  ---------------------------------------------------
  alpha Z        PSCENC =      7300.31925852
  Ewald energy   TEWEN  =    -66232.83996889
  -Hartree energ DENC   =    -11197.02572337
  -exchange      EXHF   =         0.00000000
  -V(xc)+E(xc)   XCENC  =       446.63038354
  PAW double counting   =     51723.88885462   -52548.28121372
  entropy T*S    EENTRO =         0.40476408
  eigenvalues    EBANDS =      5278.58514118
  atomic energy  EATOM  =     64201.67088057
  Solvation  Ediel_sol  =         0.00000000
  ---------------------------------------------------
  free energy    TOTEN  =     -1026.64762346 eV

  energy without entropy =    -1027.05238754  energy(sigma->0) =    -1026.78254482


--------------------------------------------------------------------------------------------------------




--------------------------------------- Iteration      1(   5)  ---------------------------------------


     EDDAV:  cpu time   14.3201: real time   14.3245
       DOS:  cpu time    0.0020: real time    0.0019
    CHARGE:  cpu time    0.7405: real time    0.7405
    MIXING:  cpu time    0.0062: real time    0.0062
    --------------------------------------------
      LOOP:  cpu time   15.0688: real time   15.0732

 eigenvalue-minimisations  :  1664
 total energy-change (2. order) :-0.1648092E+02  (-0.1574949E+02)
 number of electron     864.0000850 magnetization 
 augmentation part      384.1909597 magnetization 

 Broyden mixing:
  rms(total) = 0.92397E+01    rms(broyden)= 0.92355E+01
  rms(prec ) = 0.11507E+02
  weight for this iteration     100.00

 Free energy of the ion-electron system (eV)
  ---------------------------------------------------
  alpha Z        PSCENC =      7300.31925852
  Ewald energy   TEWEN  =    -66232.83996889
  -Hartree energ DENC   =    -11197.02572337
  -exchange      EXHF   =         0.00000000
  -V(xc)+E(xc)   XCENC  =       446.63038354
  PAW double counting   =     51723.88885462   -52548.28121372
  entropy T*S    EENTRO =         0.41375472
  eigenvalues    EBANDS =      5262.09522928
  atomic energy  EATOM  =     64201.67088057
  Solvation  Ediel_sol  =         0.00000000
  ---------------------------------------------------
  free energy    TOTEN  =     -1043.12854472 eV

  energy without entropy =    -1043.54229944  energy(sigma->0) =    -1043.26646296


--------------------------------------------------------------------------------------------------------




--------------------------------------- Iteration      1(   6)  ---------------------------------------


    POTLOK:  cpu time    0.2516: real time    0.2521
    SETDIJ:  cpu time    0.0523: real time    0.0523
    EDDIAG:  cpu time    1.2208: real time    1.2208
  RMM-DIIS:  cpu time    6.0346: real time    6.0348
    ORTHCH:  cpu time    0.2512: real time    0.2512
       DOS:  cpu time    0.0022: real time    0.0022
    CHARGE:  cpu time    0.7354: real time    0.7354
    MIXING:  cpu time    0.0064: real time    0.0064
    --------------------------------------------
      LOOP:  cpu time    8.5546: real time    8.5553

 eigenvalue-minimisations  :  1036
 total energy-change (2. order) : 0.1714253E+03  (-0.1333265E+03)
 number of electron     864.0000910 magnetization 
 augmentation part      442.7354739 magnetization 

 Broyden mixing:
  rms(total) = 0.87679E+00    rms(broyden)= 0.87580E+00
  rms(prec ) = 0.97444E+00
  weight for this iteration     100.00

 eigenvalues of (default mixing * dielectric matrix)
  average eigenvalue GAMMA=   1.0021
  1.0021

 Free energy of the ion-electron system (eV)
  ---------------------------------------------------
  alpha Z        PSCENC =      7300.31925852
  Ewald energy   TEWEN  =    -66232.83996889
  -Hartree energ DENC   =     -9367.24881879
  -exchange      EXHF   =         0.00000000
  -V(xc)+E(xc)   XCENC  =       357.13687818
  PAW double counting   =     52494.12678563   -53078.87246035
  entropy T*S    EENTRO =        -0.11761082
  eigenvalues    EBANDS =      3454.12183625
  atomic energy  EATOM  =     64201.67088057
  Solvation  Ediel_sol  =         0.00000000
  ---------------------------------------------------
  free energy    TOTEN  =      -871.70321970 eV

  energy without entropy =     -871.58560888  energy(sigma->0) =     -871.66401609


--------------------------------------------------------------------------------------------------------




--------------------------------------- Iteration      1(   7)  ---------------------------------------


    POTLOK:  cpu time    0.2761: real time    0.2762
    SETDIJ:  cpu time    0.0538: real time    0.0538
    EDDIAG:  cpu time    1.2119: real time    1.2120
  RMM-DIIS:  cpu time    6.9023: real time    6.9025
    ORTHCH:  cpu time    0.2373: real time    0.2373
       DOS:  cpu time    0.0021: real time    0.0021
    CHARGE:  cpu time    0.7422: real time    0.7457
    MIXING:  cpu time    0.0086: real time    0.0086
    --------------------------------------------
      LOOP:  cpu time    9.4343: real time    9.4381

 eigenvalue-minimisations  :  1215
 total energy-change (2. order) :-0.6047068E+01  (-0.1229333E+02)
 number of electron     864.0000921 magnetization 
 augmentation part      448.0538607 magnetization 

 Broyden mixing:
  rms(total) = 0.59410E+00    rms(broyden)= 0.59404E+00
  rms(prec ) = 0.69763E+00
  weight for this iteration     100.00

 eigenvalues of (default mixing * dielectric matrix)
  average eigenvalue GAMMA=   1.0888
  1.0888  1.0888

 Free energy of the ion-electron system (eV)
  ---------------------------------------------------
  alpha Z        PSCENC =      7300.31925852
  Ewald energy   TEWEN  =    -66232.83996889
  -Hartree energ DENC   =     -9309.05119491
  -exchange      EXHF   =         0.00000000
  -V(xc)+E(xc)   XCENC  =       357.02193760
  PAW double counting   =     54307.79106328   -55086.51214011
  entropy T*S    EENTRO =         0.65213047
  eigenvalues    EBANDS =      3583.19774608
  atomic energy  EATOM  =     64201.67088057
  Solvation  Ediel_sol  =         0.00000000
  ---------------------------------------------------
  free energy    TOTEN  =      -877.75028738 eV

  energy without entropy =     -878.40241785  energy(sigma->0) =     -877.96766421


--------------------------------------------------------------------------------------------------------




--------------------------------------- Iteration      1(   8)  ---------------------------------------


    POTLOK:  cpu time    0.2777: real time    0.2777
    SETDIJ:  cpu time    0.0526: real time    0.0526
    EDDIAG:  cpu time    1.2098: real time    1.2140
  RMM-DIIS:  cpu time    6.1218: real time    6.1272
    ORTHCH:  cpu time    0.2542: real time    0.2542
       DOS:  cpu time    0.0022: real time    0.0022
    CHARGE:  cpu time    0.7427: real time    0.7427
    MIXING:  cpu time    0.0075: real time    0.0075
    --------------------------------------------
      LOOP:  cpu time    8.6686: real time    8.6783

 eigenvalue-minimisations  :  1073
 total energy-change (2. order) : 0.7468285E+00  (-0.1832884E+01)
 number of electron     864.0000915 magnetization 
 augmentation part      442.8687519 magnetization 

 Broyden mixing:
  rms(total) = 0.14576E+01    rms(broyden)= 0.14574E+01
  rms(prec ) = 0.20343E+01
  weight for this iteration     100.00

 eigenvalues of (default mixing * dielectric matrix)
  average eigenvalue GAMMA=   0.8017
  1.1351  1.1351  0.1349

 Free energy of the ion-electron system (eV)
  ---------------------------------------------------
  alpha Z        PSCENC =      7300.31925852
  Ewald energy   TEWEN  =    -66232.83996889
  -Hartree energ DENC   =     -9398.17917718
  -exchange      EXHF   =         0.00000000
  -V(xc)+E(xc)   XCENC  =       362.32196016
  PAW double counting   =     55887.38731463   -56769.31321499
  entropy T*S    EENTRO =         0.72988984
  eigenvalues    EBANDS =      3770.89959848
  atomic energy  EATOM  =     64201.67088057
  Solvation  Ediel_sol  =         0.00000000
  ---------------------------------------------------
  free energy    TOTEN  =      -877.00345886 eV

  energy without entropy =     -877.73334870  energy(sigma->0) =     -877.24675547


--------------------------------------------------------------------------------------------------------




--------------------------------------- Iteration      1(   9)  ---------------------------------------


    POTLOK:  cpu time    0.2666: real time    0.2666
    SETDIJ:  cpu time    0.0539: real time    0.0539
    EDDIAG:  cpu time    1.2102: real time    1.2103
  RMM-DIIS:  cpu time    6.7977: real time    6.8103
    ORTHCH:  cpu time    0.2343: real time    0.2343
       DOS:  cpu time    0.0021: real time    0.0021
    CHARGE:  cpu time    0.7432: real time    0.7433
    MIXING:  cpu time    0.0085: real time    0.0085
    --------------------------------------------
      LOOP:  cpu time    9.3165: real time    9.3292

 eigenvalue-minimisations  :  1212
 total energy-change (2. order) : 0.1111970E+01  (-0.3213011E+00)
 number of electron     864.0000917 magnetization 
 augmentation part      441.6152841 magnetization 

 Broyden mixing:
  rms(total) = 0.41713E+00    rms(broyden)= 0.41667E+00
  rms(prec ) = 0.50820E+00
  weight for this iteration     100.00

 eigenvalues of (default mixing * dielectric matrix)
  average eigenvalue GAMMA=   1.1844
  2.6005  1.0046  1.0046  0.1279

 Free energy of the ion-electron system (eV)
  ---------------------------------------------------
  alpha Z        PSCENC =      7300.31925852
  Ewald energy   TEWEN  =    -66232.83996889
  -Hartree energ DENC   =     -9402.67169850
  -exchange      EXHF   =         0.00000000
  -V(xc)+E(xc)   XCENC  =       362.71869096
  PAW double counting   =     56219.56214393   -57119.46806018
  entropy T*S    EENTRO =         0.82558112
  eigenvalues    EBANDS =      3793.99168398
  atomic energy  EATOM  =     64201.67088057
  Solvation  Ediel_sol  =         0.00000000
  ---------------------------------------------------
  free energy    TOTEN  =      -875.89148848 eV

  energy without entropy =     -876.71706959  energy(sigma->0) =     -876.16668218


--------------------------------------------------------------------------------------------------------




--------------------------------------- Iteration      1(  10)  ---------------------------------------


    POTLOK:  cpu time    0.2741: real time    0.2747
    SETDIJ:  cpu time    0.0531: real time    0.0531
    EDDIAG:  cpu time    1.2139: real time    1.2140
  RMM-DIIS:  cpu time    6.9330: real time    6.9415
    ORTHCH:  cpu time    0.2590: real time    0.2591
       DOS:  cpu time    0.0022: real time    0.0022
    CHARGE:  cpu time    0.8128: real time    0.8128
    MIXING:  cpu time    0.0084: real time    0.0084
    --------------------------------------------
      LOOP:  cpu time    9.5565: real time    9.5657

 eigenvalue-minimisations  :  1219
 total energy-change (2. order) : 0.3181078E+00  (-0.2910497E+00)
 number of electron     864.0000922 magnetization 
 augmentation part      443.7515111 magnetization 

 Broyden mixing:
  rms(total) = 0.14409E+00    rms(broyden)= 0.14401E+00
  rms(prec ) = 0.19566E+00
  weight for this iteration     100.00

 eigenvalues of (default mixing * dielectric matrix)
  average eigenvalue GAMMA=   1.1044
  2.6710  1.0235  1.0235  0.6755  0.1287

 Free energy of the ion-electron system (eV)
  ---------------------------------------------------
  alpha Z        PSCENC =      7300.31925852
  Ewald energy   TEWEN  =    -66232.83996889
  -Hartree energ DENC   =     -9268.66902361
  -exchange      EXHF   =         0.00000000
  -V(xc)+E(xc)   XCENC  =       357.16691488
  PAW double counting   =     57842.56710477   -58794.51012923
  entropy T*S    EENTRO =         0.82463738
  eigenvalues    EBANDS =      3717.89694495
  atomic energy  EATOM  =     64201.67088057
  Solvation  Ediel_sol  =         0.00000000
  ---------------------------------------------------
  free energy    TOTEN  =      -875.57338066 eV

  energy without entropy =     -876.39801803  energy(sigma->0) =     -875.84825978


--------------------------------------------------------------------------------------------------------




--------------------------------------- Iteration      1(  11)  ---------------------------------------


    POTLOK:  cpu time    0.2606: real time    0.2607
    SETDIJ:  cpu time    0.0527: real time    0.0527
    EDDIAG:  cpu time    1.1290: real time    1.1290
  RMM-DIIS:  cpu time    8.3212: real time    8.3247
    ORTHCH:  cpu time    0.2456: real time    0.2456
       DOS:  cpu time    0.0022: real time    0.0022
    CHARGE:  cpu time    0.7235: real time    0.7235
    MIXING:  cpu time    0.0079: real time    0.0079
    --------------------------------------------
      LOOP:  cpu time   10.7427: real time   10.7464

 eigenvalue-minimisations  :  1490
 total energy-change (2. order) :-0.7541247E-01  (-0.8319569E-01)
 number of electron     864.0000922 magnetization 
 augmentation part      444.1314855 magnetization 

 Broyden mixing:
  rms(total) = 0.11917E+00    rms(broyden)= 0.11916E+00
  rms(prec ) = 0.15381E+00
  weight for this iteration     100.00

 eigenvalues of (default mixing * dielectric matrix)
  average eigenvalue GAMMA=   1.0822
  2.6664  1.0809  1.0809  0.7680  0.7680  0.1287

 Free energy of the ion-electron system (eV)
  ---------------------------------------------------
  alpha Z        PSCENC =      7300.31925852
  Ewald energy   TEWEN  =    -66232.83996889
  -Hartree energ DENC   =     -9273.04537688
  -exchange      EXHF   =         0.00000000
  -V(xc)+E(xc)   XCENC  =       357.40856955
  PAW double counting   =     57927.72642706   -58881.06302714
  entropy T*S    EENTRO =         0.82653234
  eigenvalues    EBANDS =      3723.34791173
  atomic energy  EATOM  =     64201.67088057
  Solvation  Ediel_sol  =         0.00000000
  ---------------------------------------------------
  free energy    TOTEN  =      -875.64879313 eV

  energy without entropy =     -876.47532547  energy(sigma->0) =     -875.92430391


--------------------------------------------------------------------------------------------------------




--------------------------------------- Iteration      1(  12)  ---------------------------------------


    POTLOK:  cpu time    0.2578: real time    0.2579
    SETDIJ:  cpu time    0.0525: real time    0.0525
    EDDIAG:  cpu time    1.2099: real time    1.2100
  RMM-DIIS:  cpu time    7.2448: real time    7.2507
    ORTHCH:  cpu time    0.2555: real time    0.2555
       DOS:  cpu time    0.0023: real time    0.0023
    CHARGE:  cpu time    0.7819: real time    0.7819
    MIXING:  cpu time    0.0082: real time    0.0082
    --------------------------------------------
      LOOP:  cpu time    9.8129: real time    9.8189

 eigenvalue-minimisations  :  1272
 total energy-change (2. order) : 0.1088313E-01  (-0.1137955E-01)
 number of electron     864.0000922 magnetization 
 augmentation part      443.8049251 magnetization 

 Broyden mixing:
  rms(total) = 0.53346E-01    rms(broyden)= 0.53342E-01
  rms(prec ) = 0.68164E-01
  weight for this iteration     100.00

 eigenvalues of (default mixing * dielectric matrix)
  average eigenvalue GAMMA=   1.2087
  2.7029  1.6932  0.9471  0.9471  1.0995  0.9421  0.1287

 Free energy of the ion-electron system (eV)
  ---------------------------------------------------
  alpha Z        PSCENC =      7300.31925852
  Ewald energy   TEWEN  =    -66232.83996889
  -Hartree energ DENC   =     -9286.15016854
  -exchange      EXHF   =         0.00000000
  -V(xc)+E(xc)   XCENC  =       357.99523707
  PAW double counting   =     57935.03141030   -58885.99224037
  entropy T*S    EENTRO =         0.83522628
  eigenvalues    EBANDS =      3733.49245505
  atomic energy  EATOM  =     64201.67088057
  Solvation  Ediel_sol  =         0.00000000
  ---------------------------------------------------
  free energy    TOTEN  =      -875.63790999 eV

  energy without entropy =     -876.47313628  energy(sigma->0) =     -875.91631876


--------------------------------------------------------------------------------------------------------




--------------------------------------- Iteration      1(  13)  ---------------------------------------


    POTLOK:  cpu time    0.2658: real time    0.2669
    SETDIJ:  cpu time    0.0522: real time    0.0522
    EDDIAG:  cpu time    1.1245: real time    1.1247
  RMM-DIIS:  cpu time    7.3490: real time    7.3493
    ORTHCH:  cpu time    0.2536: real time    0.2536
       DOS:  cpu time    0.0022: real time    0.0022
    CHARGE:  cpu time    0.7431: real time    0.7431
    MIXING:  cpu time    0.0108: real time    0.0108
    --------------------------------------------
      LOOP:  cpu time    9.8012: real time    9.8028

 eigenvalue-minimisations  :  1303
 total energy-change (2. order) : 0.2613308E-02  (-0.3626598E-02)
 number of electron     864.0000922 magnetization 
 augmentation part      443.5759573 magnetization 

 Broyden mixing:
  rms(total) = 0.12228E-01    rms(broyden)= 0.12219E-01
  rms(prec ) = 0.15454E-01
  weight for this iteration     100.00

 eigenvalues of (default mixing * dielectric matrix)
  average eigenvalue GAMMA=   1.3107
  2.8010  2.4902  0.1287  1.1632  1.1632  0.9287  0.9287  0.8823

 Free energy of the ion-electron system (eV)
  ---------------------------------------------------
  alpha Z        PSCENC =      7300.31925852
  Ewald energy   TEWEN  =    -66232.83996889
  -Hartree energ DENC   =     -9295.41898837
  -exchange      EXHF   =         0.00000000
  -V(xc)+E(xc)   XCENC  =       358.39653001
  PAW double counting   =     57941.77013892   -58889.55255885
  entropy T*S    EENTRO =         0.83999491
  eigenvalues    EBANDS =      3739.17941649
  atomic energy  EATOM  =     64201.67088057
  Solvation  Ediel_sol  =         0.00000000
  ---------------------------------------------------
  free energy    TOTEN  =      -875.63529669 eV

  energy without entropy =     -876.47529159  energy(sigma->0) =     -875.91529499


--------------------------------------------------------------------------------------------------------




--------------------------------------- Iteration      1(  14)  ---------------------------------------


    POTLOK:  cpu time    0.2704: real time    0.2705
    SETDIJ:  cpu time    0.0523: real time    0.0523
    EDDIAG:  cpu time    1.2193: real time    1.2194
  RMM-DIIS:  cpu time    7.9545: real time    7.9547
    ORTHCH:  cpu time    0.2466: real time    0.2466
       DOS:  cpu time    0.0022: real time    0.0022
    CHARGE:  cpu time    0.7453: real time    0.7453
    MIXING:  cpu time    0.0096: real time    0.0096
    --------------------------------------------
      LOOP:  cpu time   10.5001: real time   10.5005

 eigenvalue-minimisations  :  1419
 total energy-change (2. order) :-0.3622365E-03  (-0.1115424E-02)
 number of electron     864.0000922 magnetization 
 augmentation part      443.4553336 magnetization 

 Broyden mixing:
  rms(total) = 0.70306E-02    rms(broyden)= 0.70273E-02
  rms(prec ) = 0.89853E-02
  weight for this iteration     100.00

 eigenvalues of (default mixing * dielectric matrix)
  average eigenvalue GAMMA=   1.2875
  2.3032  2.1212  2.1212  0.1287  0.9495  0.9495  1.0571  1.0571  0.8998

 Free energy of the ion-electron system (eV)
  ---------------------------------------------------
  alpha Z        PSCENC =      7300.31925852
  Ewald energy   TEWEN  =    -66232.83996889
  -Hartree energ DENC   =     -9298.97788350
  -exchange      EXHF   =         0.00000000
  -V(xc)+E(xc)   XCENC  =       358.55495265
  PAW double counting   =     57934.28364826   -58881.08045781
  entropy T*S    EENTRO =         0.84253086
  eigenvalues    EBANDS =      3741.59138040
  atomic energy  EATOM  =     64201.67088057
  Solvation  Ediel_sol  =         0.00000000
  ---------------------------------------------------
  free energy    TOTEN  =      -875.63565892 eV

  energy without entropy =     -876.47818978  energy(sigma->0) =     -875.91650254


--------------------------------------------------------------------------------------------------------




--------------------------------------- Iteration      1(  15)  ---------------------------------------


    POTLOK:  cpu time    0.2650: real time    0.2651
    SETDIJ:  cpu time    0.0544: real time    0.0544
    EDDIAG:  cpu time    1.2048: real time    1.2048
  RMM-DIIS:  cpu time    7.6778: real time    7.6781
    ORTHCH:  cpu time    0.2446: real time    0.2446
       DOS:  cpu time    0.0021: real time    0.0021
    CHARGE:  cpu time    0.7607: real time    0.7607
    MIXING:  cpu time    0.0095: real time    0.0095
    --------------------------------------------
      LOOP:  cpu time   10.2188: real time   10.2193

 eigenvalue-minimisations  :  1377
 total energy-change (2. order) : 0.3222178E-03  ( 0.1913869E-03)
 number of electron     864.0000922 magnetization 
 augmentation part      443.4708901 magnetization 

 Broyden mixing:
  rms(total) = 0.33207E-02    rms(broyden)= 0.33206E-02
  rms(prec ) = 0.42017E-02
  weight for this iteration     100.00

 eigenvalues of (default mixing * dielectric matrix)
  average eigenvalue GAMMA=   1.3633
  2.9677  2.4941  2.0085  0.1287  0.9352  0.9352  1.1153  1.1153  0.9663  0.9663

 Free energy of the ion-electron system (eV)
  ---------------------------------------------------
  alpha Z        PSCENC =      7300.31925852
  Ewald energy   TEWEN  =    -66232.83996889
  -Hartree energ DENC   =     -9298.01942515
  -exchange      EXHF   =         0.00000000
  -V(xc)+E(xc)   XCENC  =       358.51082892
  PAW double counting   =     57923.98974456   -58870.71019763
  entropy T*S    EENTRO =         0.84347972
  eigenvalues    EBANDS =      3740.60006268
  atomic energy  EATOM  =     64201.67088057
  Solvation  Ediel_sol  =         0.00000000
  ---------------------------------------------------
  free energy    TOTEN  =      -875.63533670 eV

  energy without entropy =     -876.47881642  energy(sigma->0) =     -875.91649661


--------------------------------------------------------------------------------------------------------




--------------------------------------- Iteration      1(  16)  ---------------------------------------


    POTLOK:  cpu time    0.2591: real time    0.2603
    SETDIJ:  cpu time    0.0533: real time    0.0533
    EDDIAG:  cpu time    1.2309: real time    1.2309
  RMM-DIIS:  cpu time    7.6459: real time    7.6461
    ORTHCH:  cpu time    0.2409: real time    0.2409
       DOS:  cpu time    0.0021: real time    0.0021
    CHARGE:  cpu time    0.7285: real time    0.7285
    MIXING:  cpu time    0.0106: real time    0.0106
    --------------------------------------------
      LOOP:  cpu time   10.1714: real time   10.1728

 eigenvalue-minimisations  :  1361
 total energy-change (2. order) : 0.2742066E-03  ( 0.2320248E-03)
 number of electron     864.0000922 magnetization 
 augmentation part      443.4860168 magnetization 

 Broyden mixing:
  rms(total) = 0.15160E-02    rms(broyden)= 0.15153E-02
  rms(prec ) = 0.20969E-02
  weight for this iteration     100.00

 eigenvalues of (default mixing * dielectric matrix)
  average eigenvalue GAMMA=   1.3455
  2.8019  2.3483  2.3483  0.1287  1.4597  0.9591  0.9591  0.9340  0.9340  0.9637
  0.9637

 Free energy of the ion-electron system (eV)
  ---------------------------------------------------
  alpha Z        PSCENC =      7300.31925852
  Ewald energy   TEWEN  =    -66232.83996889
  -Hartree energ DENC   =     -9297.42022372
  -exchange      EXHF   =         0.00000000
  -V(xc)+E(xc)   XCENC  =       358.48645885
  PAW double counting   =     57923.50850284   -58870.30442346
  entropy T*S    EENTRO =         0.84507313
  eigenvalues    EBANDS =      3740.09937965
  atomic energy  EATOM  =     64201.67088057
  Solvation  Ediel_sol  =         0.00000000
  ---------------------------------------------------
  free energy    TOTEN  =      -875.63506250 eV

  energy without entropy =     -876.48013562  energy(sigma->0) =     -875.91675354


--------------------------------------------------------------------------------------------------------




--------------------------------------- Iteration      1(  17)  ---------------------------------------


    POTLOK:  cpu time    0.2716: real time    0.2717
    SETDIJ:  cpu time    0.0530: real time    0.0530
    EDDIAG:  cpu time    1.2113: real time    1.2149
  RMM-DIIS:  cpu time    8.4433: real time    8.4511
    ORTHCH:  cpu time    0.2556: real time    0.2556
       DOS:  cpu time    0.0022: real time    0.0022
    CHARGE:  cpu time    0.7736: real time    0.7773
    MIXING:  cpu time    0.0183: real time    0.0183
    --------------------------------------------
      LOOP:  cpu time   11.0289: real time   11.0440

 eigenvalue-minimisations  :  1532
 total energy-change (2. order) : 0.1724609E-03  ( 0.1671412E-03)
 number of electron     864.0000922 magnetization 
 augmentation part      443.4891486 magnetization 

 Broyden mixing:
  rms(total) = 0.33302E-03    rms(broyden)= 0.33214E-03
  rms(prec ) = 0.40542E-03
  weight for this iteration     100.00

 eigenvalues of (default mixing * dielectric matrix)
  average eigenvalue GAMMA=   1.2562
  2.8135  2.3464  2.3464  1.5078  0.1287  0.9358  0.9358  0.9730  0.9730  0.9483
  0.9483  0.2172

 Free energy of the ion-electron system (eV)
  ---------------------------------------------------
  alpha Z        PSCENC =      7300.31925852
  Ewald energy   TEWEN  =    -66232.83996889
  -Hartree energ DENC   =     -9297.33554725
[...]
   0.104E-01 0.103E-01 0.142E-04   -.204E-01 -.202E-01 -.277E-04   -.361E-21 -.752E-20 0.152E-19   -.111E-06 -.137E-06 0.252E-07
   -.104E-01 -.142E-04 0.142E-04   0.205E-01 0.277E-04 -.277E-04   0.286E-30 -.720E-20 0.271E-19   0.112E-06 -.252E-07 0.252E-07
   -.104E-01 0.103E-01 -.103E-01   0.204E-01 -.202E-01 0.202E-01   -.201E-30 0.377E-20 0.246E-19   0.112E-06 -.137E-06 0.136E-06
   -.142E-04 -.103E-01 -.103E-01   0.277E-04 0.202E-01 0.202E-01   -.287E-30 0.551E-20 -.106E-19   -.252E-07 0.136E-06 0.136E-06
   -.142E-04 0.142E-04 0.142E-04   0.277E-04 -.277E-04 -.277E-04   0.287E-30 0.932E-20 -.127E-19   -.252E-07 0.252E-07 0.252E-07
   0.103E-01 -.103E-01 0.142E-04   -.202E-01 0.202E-01 -.277E-04   -.549E-21 0.106E-19 0.466E-20   -.137E-06 0.136E-06 0.252E-07
   0.103E-01 0.142E-04 -.103E-01   -.202E-01 -.277E-04 0.202E-01   -.122E-21 -.678E-20 0.191E-19   -.137E-06 0.252E-07 0.136E-06
   -.103E-01 -.103E-01 -.103E-01   0.202E-01 0.202E-01 0.202E-01   -.287E-30 0.635E-20 -.102E-19   0.136E-06 0.136E-06 0.136E-06
   -.103E-01 0.142E-04 0.142E-04   0.202E-01 -.277E-04 -.277E-04   0.287E-30 -.847E-21 -.136E-19   0.136E-06 0.252E-07 0.252E-07
   0.142E-04 -.103E-01 0.142E-04   -.277E-04 0.202E-01 -.277E-04   -.847E-21 -.720E-20 0.352E-19   0.252E-07 0.136E-06 0.252E-07
   0.142E-04 0.142E-04 -.103E-01   -.277E-04 -.277E-04 0.202E-01   0.127E-20 0.102E-19 -.445E-19   0.252E-07 0.252E-07 0.136E-06
   0.104E-01 -.103E-01 -.103E-01   -.204E-01 0.202E-01 0.202E-01   0.141E-20 0.254E-20 0.381E-20   -.111E-06 0.136E-06 0.136E-06
   0.104E-01 0.142E-04 0.142E-04   -.205E-01 -.277E-04 -.277E-04   -.371E-21 -.195E-19 0.000E+00   -.111E-06 0.252E-07 0.252E-07
   -.104E-01 -.103E-01 0.142E-04   0.204E-01 0.202E-01 -.277E-04   0.115E-30 -.678E-20 0.169E-20   0.112E-06 0.136E-06 0.252E-07
   -.104E-01 0.142E-04 -.103E-01   0.204E-01 -.277E-04 0.202E-01   -.115E-30 0.339E-20 -.110E-19   0.112E-06 0.252E-07 0.136E-06
   -.142E-04 0.104E-01 -.103E-01   0.277E-04 -.204E-01 0.202E-01   -.847E-21 0.943E-20 0.593E-20   -.252E-07 -.111E-06 0.136E-06
   -.142E-04 -.104E-01 0.142E-04   0.277E-04 0.205E-01 -.277E-04   0.116E-30 -.339E-20 0.847E-21   -.252E-07 0.112E-06 0.252E-07
   0.103E-01 0.104E-01 0.142E-04   -.202E-01 -.204E-01 -.277E-04   0.199E-21 0.874E-20 0.212E-20   -.137E-06 -.111E-06 0.252E-07
   0.103E-01 -.104E-01 -.103E-01   -.202E-01 0.204E-01 0.202E-01   -.692E-21 -.119E-19 -.254E-19   -.137E-06 0.112E-06 0.136E-06
   -.103E-01 0.104E-01 -.103E-01   0.202E-01 -.204E-01 0.202E-01   -.201E-30 0.350E-20 -.233E-19   0.136E-06 -.111E-06 0.136E-06
   -.103E-01 -.104E-01 0.142E-04   0.202E-01 0.204E-01 -.277E-04   0.116E-30 0.169E-20 0.932E-20   0.136E-06 0.112E-06 0.252E-07
   0.142E-04 0.104E-01 0.142E-04   -.277E-04 -.205E-01 -.277E-04   0.424E-21 0.747E-20 -.847E-20   0.252E-07 -.111E-06 0.252E-07
   0.142E-04 -.104E-01 -.103E-01   -.277E-04 0.204E-01 0.202E-01   -.424E-21 -.157E-19 0.652E-19   0.252E-07 0.112E-06 0.136E-06
   0.104E-01 0.104E-01 -.103E-01   -.204E-01 -.204E-01 0.202E-01   0.357E-21 -.624E-20 -.635E-20   -.111E-06 -.111E-06 0.136E-06
   0.104E-01 -.104E-01 0.142E-04   -.204E-01 0.204E-01 -.277E-04   0.190E-21 0.186E-19 0.424E-20   -.111E-06 0.112E-06 0.252E-07
   -.104E-01 0.104E-01 0.142E-04   0.204E-01 -.204E-01 -.277E-04   0.201E-30 -.196E-19 0.296E-20   0.112E-06 -.111E-06 0.252E-07
   -.104E-01 -.104E-01 -.103E-01   0.204E-01 0.204E-01 0.202E-01   -.286E-30 -.296E-20 -.220E-19   0.112E-06 0.112E-06 0.136E-06
   -.142E-04 -.142E-04 0.104E-01   0.277E-04 0.277E-04 -.205E-01   -.424E-21 0.762E-20 -.133E-19   -.252E-07 -.252E-07 -.111E-06
   -.142E-04 0.103E-01 -.104E-01   0.277E-04 -.202E-01 0.204E-01   -.198E-30 0.930E-20 -.169E-19   -.252E-07 -.137E-06 0.112E-06
   0.103E-01 -.142E-04 -.104E-01   -.202E-01 0.277E-04 0.204E-01   -.112E-20 -.102E-19 -.508E-20   -.137E-06 -.252E-07 0.112E-06
   0.103E-01 0.103E-01 0.104E-01   -.202E-01 -.202E-01 -.204E-01   -.837E-21 -.449E-20 -.320E-19   -.137E-06 -.137E-06 -.111E-06
   -.103E-01 -.142E-04 0.104E-01   0.202E-01 0.277E-04 -.204E-01   0.858E-31 0.847E-20 0.206E-19   0.136E-06 -.252E-07 -.111E-06
   -.103E-01 0.103E-01 -.104E-01   0.202E-01 -.202E-01 0.204E-01   -.198E-30 0.829E-21 -.250E-19   0.136E-06 -.137E-06 0.112E-06
   0.142E-04 -.142E-04 -.104E-01   -.277E-04 0.277E-04 0.205E-01   -.424E-21 -.381E-20 0.131E-19   0.252E-07 -.252E-07 0.112E-06
   0.142E-04 0.103E-01 0.104E-01   -.277E-04 -.202E-01 -.204E-01   0.499E-33 0.864E-20 0.154E-19   0.252E-07 -.137E-06 -.111E-06
   0.104E-01 -.142E-04 0.104E-01   -.204E-01 0.277E-04 -.204E-01   0.108E-20 0.102E-19 0.252E-19   -.111E-06 -.252E-07 -.111E-06
   0.104E-01 0.103E-01 -.104E-01   -.204E-01 -.202E-01 0.204E-01   0.493E-21 -.123E-19 -.212E-20   -.111E-06 -.137E-06 0.112E-06
   -.104E-01 -.142E-04 -.104E-01   0.204E-01 0.277E-04 0.204E-01   -.113E-30 -.466E-20 -.241E-19   0.112E-06 -.252E-07 0.112E-06
   -.104E-01 0.103E-01 0.104E-01   0.204E-01 -.202E-01 -.204E-01   0.390E-33 -.491E-20 0.357E-20   0.112E-06 -.137E-06 -.111E-06
   -.142E-04 -.103E-01 0.104E-01   0.277E-04 0.202E-01 -.204E-01   0.127E-20 -.551E-20 -.866E-20   -.252E-07 0.136E-06 -.111E-06
   -.142E-04 0.142E-04 -.104E-01   0.277E-04 -.277E-04 0.205E-01   -.112E-30 0.635E-20 0.847E-20   -.252E-07 0.252E-07 0.112E-06
   0.103E-01 -.103E-01 -.104E-01   -.202E-01 0.202E-01 0.204E-01   -.144E-20 -.847E-21 0.212E-20   -.137E-06 0.136E-06 0.112E-06
   0.103E-01 0.142E-04 0.104E-01   -.202E-01 -.277E-04 -.204E-01   0.662E-22 -.762E-20 0.272E-20   -.137E-06 0.252E-07 -.111E-06
   -.103E-01 -.103E-01 0.104E-01   0.202E-01 0.202E-01 -.204E-01   -.852E-31 0.296E-20 -.218E-19   0.136E-06 0.136E-06 -.111E-06
   -.103E-01 0.142E-04 -.104E-01   0.202E-01 -.277E-04 0.204E-01   -.112E-30 -.424E-21 0.123E-19   0.136E-06 0.252E-07 0.112E-06
   0.142E-04 -.103E-01 -.104E-01   -.277E-04 0.202E-01 0.204E-01   -.424E-21 -.593E-20 -.182E-19   0.252E-07 0.136E-06 0.112E-06
   0.142E-04 0.142E-04 0.104E-01   -.277E-04 -.277E-04 -.205E-01   -.424E-21 0.106E-19 0.319E-19   0.252E-07 0.252E-07 -.111E-06
   0.104E-01 -.103E-01 0.104E-01   -.204E-01 0.202E-01 -.204E-01   0.433E-21 -.508E-20 0.256E-19   -.111E-06 0.136E-06 -.111E-06
   0.104E-01 0.142E-04 -.104E-01   -.204E-01 -.277E-04 0.204E-01   -.993E-22 -.678E-20 0.394E-19   -.111E-06 0.252E-07 0.112E-06
   -.104E-01 -.103E-01 -.104E-01   0.204E-01 0.202E-01 0.204E-01   -.284E-30 -.593E-20 0.119E-19   0.112E-06 0.136E-06 0.112E-06
   -.104E-01 0.142E-04 0.104E-01   0.204E-01 -.277E-04 -.204E-01   0.871E-31 0.381E-20 0.992E-20   0.112E-06 0.252E-07 -.111E-06
   -.142E-04 0.104E-01 0.104E-01   0.277E-04 -.204E-01 -.204E-01   0.424E-21 0.771E-20 -.324E-19   -.252E-07 -.111E-06 -.111E-06
   -.142E-04 -.104E-01 -.104E-01   0.277E-04 0.204E-01 0.204E-01   -.283E-30 -.208E-19 -.195E-19   -.252E-07 0.112E-06 0.112E-06
   0.103E-01 0.104E-01 -.104E-01   -.202E-01 -.204E-01 0.204E-01   -.549E-21 0.113E-19 0.889E-20   -.137E-06 -.111E-06 0.112E-06
   0.103E-01 -.104E-01 0.104E-01   -.202E-01 0.204E-01 -.204E-01   -.754E-21 -.296E-20 0.383E-19   -.137E-06 0.112E-06 -.111E-06
   -.103E-01 0.104E-01 0.104E-01   0.202E-01 -.204E-01 -.204E-01   0.156E-32 0.517E-20 -.656E-20   0.136E-06 -.111E-06 -.111E-06
   -.103E-01 -.104E-01 -.104E-01   0.202E-01 0.204E-01 0.204E-01   -.283E-30 -.847E-21 0.254E-20   0.136E-06 0.112E-06 0.112E-06
   0.142E-04 0.104E-01 -.104E-01   -.277E-04 -.204E-01 0.204E-01   -.198E-30 0.577E-20 0.339E-19   0.252E-07 -.111E-06 0.112E-06
   0.142E-04 -.104E-01 0.104E-01   -.277E-04 0.204E-01 -.204E-01   0.847E-21 -.635E-20 -.832E-19   0.252E-07 0.112E-06 -.111E-06
   0.104E-01 0.104E-01 0.104E-01   -.204E-01 -.204E-01 -.204E-01   0.811E-21 -.135E-19 -.231E-20   -.111E-06 -.111E-06 -.111E-06
   0.104E-01 -.104E-01 -.104E-01   -.204E-01 0.204E-01 0.204E-01   0.827E-21 0.974E-20 -.762E-20   -.111E-06 0.112E-06 0.112E-06
   -.104E-01 0.104E-01 -.104E-01   0.204E-01 -.204E-01 0.204E-01   -.198E-30 -.355E-20 0.720E-20   0.112E-06 -.111E-06 0.112E-06
   -.104E-01 -.104E-01 0.104E-01   0.204E-01 0.204E-01 -.204E-01   -.837E-31 -.102E-19 0.133E-19   0.112E-06 0.112E-06 -.111E-06
 -----------------------------------------------------------------------------------------------
   0.120E-09 0.156E-09 0.690E-10   0.314E-12 -.237E-12 -.336E-11   -.365E-20 0.492E-20 0.212E-18   -.585E-10 -.583E-10 -.588E-10
 
 
 POSITION                                       TOTAL-FORCE (eV/Angst)
 -----------------------------------------------------------------------------------
      0.00000     -0.00000      0.00000        -0.000000     -0.000000      0.000000
     -0.00000      1.72491      1.72491        -0.000000     -0.000000     -0.000000
      1.72491     -0.00000      1.72491         0.000000      0.000000     -0.000000
      1.72491      1.72491     -0.00000         0.000000     -0.000000      0.000000
      3.44974      0.00000      0.00000         0.000000     -0.000000     -0.000000
      3.44974      1.72491      1.72491        -0.000000      0.000000     -0.000000
      5.17465      0.00000      1.72491        -0.000000     -0.000000      0.000000
      5.17465      1.72491     -0.00000        -0.000000      0.000000     -0.000000
      6.89956     -0.00000      0.00000        -0.000000      0.000000     -0.000000
      6.89956      1.72491      1.72491         0.000000      0.000000     -0.000000
      8.62439      0.00000      1.72491        -0.000000     -0.000000      0.000000
      8.62439      1.72491      0.00000        -0.000000      0.000000     -0.000000
     -0.00000      3.44974      0.00000        -0.000000     -0.000000     -0.000000
     -0.00000      5.17465      1.72491         0.000000     -0.000000      0.000000
      1.72491      3.44974      1.72491         0.000000      0.000000      0.000000
      1.72491      5.17465      0.00000         0.000000     -0.000000      0.000000
      3.44974      3.44974     -0.00000         0.000000     -0.000000     -0.000000
      3.44974      5.17465      1.72491         0.000000      0.000000      0.000000
      5.17465      3.44974      1.72491         0.000000     -0.000000     -0.000000
      5.17465      5.17465     -0.00000         0.000000     -0.000000     -0.000000
      6.89956      3.44974     -0.00000        -0.000000     -0.000000     -0.000000
      6.89956      5.17465      1.72491         0.000000      0.000000      0.000000
      8.62439      3.44974      1.72491        -0.000000      0.000000      0.000000
      8.62439      5.17465      0.00000        -0.000000     -0.000000      0.000000
      0.00000      6.89956      0.00000        -0.000000     -0.000000      0.000000
     -0.00000      8.62439      1.72491         0.000000     -0.000000      0.000000
      1.72491      6.89956      1.72491        -0.000000      0.000000     -0.000000
      1.72491      8.62439     -0.00000         0.000000      0.000000      0.000000
      3.44974      6.89956     -0.00000        -0.000000      0.000000      0.000000
      3.44974      8.62439      1.72491        -0.000000      0.000000     -0.000000
      5.17465      6.89956      1.72491        -0.000000     -0.000000     -0.000000
      5.17465      8.62439     -0.00000         0.000000      0.000000      0.000000
      6.89956      6.89956     -0.00000        -0.000000     -0.000000     -0.000000
      6.89956      8.62439      1.72491         0.000000     -0.000000     -0.000000
      8.62439      6.89956      1.72491         0.000000     -0.000000      0.000000
      8.62439      8.62439     -0.00000         0.000000      0.000000     -0.000000
     -0.00000     -0.00000      3.44974        -0.000000     -0.000000     -0.000000
     -0.00000      1.72491      5.17465         0.000000     -0.000000     -0.000000
      1.72491      0.00000      5.17465         0.000000      0.000000     -0.000000
      1.72491      1.72491      3.44974        -0.000000      0.000000     -0.000000
      3.44974      0.00000      3.44974         0.000000     -0.000000      0.000000
      3.44974      1.72491      5.17465        -0.000000      0.000000      0.000000
      5.17465      0.00000      5.17465         0.000000     -0.000000     -0.000000
      5.17465      1.72491      3.44974        -0.000000      0.000000     -0.000000
      6.89956     -0.00000      3.44974        -0.000000      0.000000      0.000000
      6.89956      1.72491      5.17465        -0.000000      0.000000     -0.000000
      8.62439      0.00000      5.17465        -0.000000     -0.000000      0.000000
      8.62439      1.72491      3.44974        -0.000000      0.000000      0.000000
     -0.00000      3.44974      3.44974        -0.000000     -0.000000      0.000000
      0.00000      5.17465      5.17465        -0.000000     -0.000000      0.000000
      1.72491      3.44974      5.17465         0.000000      0.000000     -0.000000
      1.72491      5.17465      3.44974        -0.000000      0.000000     -0.000000
      3.44974      3.44974      3.44974         0.000000     -0.000000      0.000000
      3.44974      5.17465      5.17465         0.000000      0.000000      0.000000
      5.17465      3.44974      5.17465         0.000000     -0.000000      0.000000
      5.17465      5.17465      3.44974        -0.000000      0.000000      0.000000
      6.89956      3.44974      3.44974        -0.000000     -0.000000     -0.000000
      6.89956      5.17465      5.17465         0.000000     -0.000000     -0.000000
      8.62439      3.44974      5.17465         0.000000      0.000000     -0.000000
      8.62439      5.17465      3.44974         0.000000     -0.000000     -0.000000
      0.00000      6.89956      3.44974         0.000000     -0.000000     -0.000000
      0.00000      8.62439      5.17465        -0.000000     -0.000000      0.000000
      1.72491      6.89956      5.17465         0.000000      0.000000     -0.000000
      1.72491      8.62439      3.44974         0.000000     -0.000000     -0.000000
      3.44974      6.89956      3.44974         0.000000     -0.000000      0.000000
      3.44974      8.62439      5.17465         0.000000      0.000000     -0.000000
      5.17465      6.89956      5.17465        -0.000000     -0.000000      0.000000
      5.17465      8.62439      3.44974         0.000000      0.000000     -0.000000
      6.89956      6.89956      3.44974        -0.000000     -0.000000      0.000000
      6.89956      8.62439      5.17465         0.000000     -0.000000      0.000000
      8.62439      6.89956      5.17465         0.000000      0.000000     -0.000000
      8.62439      8.62439      3.44974         0.000000     -0.000000      0.000000
     -0.00000     -0.00000      6.89956         0.000000     -0.000000      0.000000
      0.00000      1.72491      8.62439         0.000000     -0.000000      0.000000
      1.72491     -0.00000      8.62439        -0.000000      0.000000      0.000000
      1.72491      1.72491      6.89956        -0.000000      0.000000      0.000000
      3.44974      0.00000      6.89956         0.000000     -0.000000     -0.000000
      3.44974      1.72491      8.62439         0.000000      0.000000      0.000000
      5.17465      0.00000      8.62439        -0.000000      0.000000     -0.000000
      5.17465      1.72491      6.89956        -0.000000      0.000000     -0.000000
      6.89956      0.00000      6.89956         0.000000      0.000000     -0.000000
      6.89956      1.72491      8.62439        -0.000000      0.000000      0.000000
      8.62439      0.00000      8.62439        -0.000000      0.000000     -0.000000
      8.62439      1.72491      6.89956        -0.000000      0.000000     -0.000000
     -0.00000      3.44974      6.89956         0.000000     -0.000000     -0.000000
      0.00000      5.17465      8.62439         0.000000     -0.000000     -0.000000
      1.72491      3.44974      8.62439         0.000000      0.000000      0.000000
      1.72491      5.17465      6.89956         0.000000     -0.000000      0.000000
      3.44974      3.44974      6.89956        -0.000000     -0.000000     -0.000000
      3.44974      5.17465      8.62439         0.000000      0.000000     -0.000000
      5.17465      3.44974      8.62439        -0.000000     -0.000000     -0.000000
      5.17465      5.17465      6.89956         0.000000      0.000000      0.000000
      6.89956      3.44974      6.89956         0.000000     -0.000000     -0.000000
      6.89956      5.17465      8.62439        -0.000000     -0.000000     -0.000000
      8.62439      3.44974      8.62439         0.000000      0.000000     -0.000000
      8.62439      5.17465      6.89956         0.000000     -0.000000     -0.000000
     -0.00000      6.89956      6.89956         0.000000     -0.000000     -0.000000
      0.00000      8.62439      8.62439         0.000000      0.000000     -0.000000
      1.72491      6.89956      8.62439        -0.000000      0.000000      0.000000
      1.72491      8.62439      6.89956         0.000000      0.000000      0.000000
      3.44974      6.89956      6.89956        -0.000000     -0.000000      0.000000
      3.44974      8.62439      8.62439         0.000000      0.000000      0.000000
      5.17465      6.89956      8.62439         0.000000     -0.000000      0.000000
      5.17465      8.62439      6.89956         0.000000      0.000000     -0.000000
      6.89956      6.89956      6.89956        -0.000000      0.000000     -0.000000
      6.89956      8.62439      8.62439         0.000000     -0.000000      0.000000
      8.62439      6.89956      8.62439         0.000000     -0.000000      0.000000
      8.62439      8.62439      6.89956         0.000000      0.000000      0.000000
 -----------------------------------------------------------------------------------
    total drift:                                0.000000      0.000000      0.000000


--------------------------------------------------------------------------------------------------------



  FREE ENERGIE OF THE ION-ELECTRON SYSTEM (eV)
  ---------------------------------------------------
  free  energy   TOTEN  =      -875.65062216 eV

  energy  without entropy=     -876.49969945  energy(sigma->0) =     -875.93364793
 
 d Force = 0.0000000E+00[ 0.000E+00, 0.000E+00]  d Energy = 0.4653228E-01-0.465E-01
 d Force = 0.0000000E+00[ 0.000E+00, 0.000E+00]  d Ewald  = 0.1504604E+03-0.150E+03


--------------------------------------------------------------------------------------------------------


    POTLOK:  cpu time    0.3488: real time    0.3488


--------------------------------------------------------------------------------------------------------




--------------------------------------------------------------------------------------------------------


  
 reached required accuracy - stopping structural energy minimisation
     LOOP+:  cpu time  141.6082: real time  141.7116
    4ORBIT:  cpu time    0.0000: real time    0.0000

 total amount of memory used by VASP MPI-rank0   121840. kBytes
=======================================================================

   base      :      30000. kBytes
   nonlr-proj:      31400. kBytes
   fftplans  :      15428. kBytes
   grid      :      21835. kBytes
   one-center:        419. kBytes
   wavefun   :      22758. kBytes
 
  
  
 General timing and accounting informations for this job:
 ========================================================
  
                  Total CPU time used (sec):      722.600
                            User time (sec):      721.168
                          System time (sec):        1.432
                         Elapsed time (sec):      723.026
  
                   Maximum memory used (kb):      171700.
                   Average memory used (kb):           0.
  
                          Minor page faults:       133309
                          Major page faults:            4
                 Voluntary context switches:          560
