<?xml version="1.0" encoding="ISO-8859-1"?>
<modeling>
 <generator>
  <i name="program" type="string">vasp </i>
  <i name="version" type="string">5.4.4.18Apr17-6-g9f103f2a35  </i>
  <i name="subversion" type="string">(build Aug 17 2017 06:00:38) complex            parallel </i>
  <i name="platform" type="string">LinuxIFC </i>
  <i name="date" type="string">2019 07 13 </i>
  <i name="time" type="string">00:29:15 </i>
 </generator>
 <incar>
  <i type="string" name="SYSTEM">Opt</i>
  <i type="int" name="ISTART">     0</i>
  <i type="string" name="PREC">normal</i>
  <i type="string" name="ALGO"> Fast</i>
  <i type="int" name="ISPIN">     1</i>
  <i type="int" name="ICHARG">     2</i>
  <i type="int" name="NELM">   400</i>
  <i type="int" name="IBRION">     2</i>
  <i name="EDIFF">      0.00000100</i>
  <i name="EDIFFG">     -0.01000000</i>
  <i type="int" name="NSW">   100</i>
  <i type="int" name="ISIF">     3</i>
  <i name="ENCUT">    400.00000000</i>
  <i type="int" name="NGX">    72</i>
  <i type="int" name="NGY">    72</i>
  <i type="int" name="NGZ">    72</i>
  <i name="POTIM">      0.50000000</i>
  <i type="string" name="LREAL">Auto</i>
  <i type="logical" name="LWAVE"> F  </i>
  <i type="logical" name="LCHARG"> F  </i>
  <v type="int" name="KPOINT_BSE">    -1     0     0     0</v>
  <i type="int" name="NELM">   400</i>
 </incar>
 <structure name="primitive_cell" >
  <crystal>
   <varray name="basis" >
    <v>       3.44492529       0.00000000       0.00000000 </v>
    <v>       0.00000000       3.44492529       0.00000000 </v>
    <v>       0.00000000       0.00000000       3.44492524 </v>
   </varray>
   <i name="volume">     40.88268566 </i>
   <varray name="rec_basis" >
    <v>       0.29028206       0.00000000       0.00000000 </v>
    <v>       0.00000000       0.29028206       0.00000000 </v>
    <v>       0.00000000       0.00000000       0.29028206 </v>
   </varray>
  </crystal>
  <varray name="positions" >
   <v>       0.00000000       0.00000000       0.00000000 </v>
   <v>       0.00000000      -0.49998976      -0.49998975 </v>
   <v>      -0.49998976       0.00000000      -0.49998975 </v>
   <v>      -0.49998976      -0.49998976       0.00000000 </v>
  </varray>
 </structure>
 <varray name="primitive_index" >
  <v type="int" >        1 </v>
  <v type="int" >        2 </v>
  <v type="int" >        3 </v>
  <v type="int" >        4 </v>
 </varray>
 <kpoints>
  <generation param="Monkhorst-Pack">
   <v type="int" name="divisions">       1        1        1 </v>
   <v name="usershift">      0.00000000       0.00000000       0.00000000 </v>
   <v name="genvec1">      1.00000000       0.00000000       0.00000000 </v>
   <v name="genvec2">      0.00000000       1.00000000       0.00000000 </v>
   <v name="genvec3">      0.00000000       0.00000000       1.00000000 </v>
   <v name="shift">      0.00000000       0.00000000       0.00000000 </v>
  </generation>
  <varray name="kpointlist" >
   <v>       0.00000000       0.00000000       0.00000000 </v>
  </varray>
  <varray name="weights" >
   <v>       1.00000000 </v>
  </varray>
 </kpoints>
 <parameters>
  <separator name="general" >
   <i type="string" name="SYSTEM">Opt</i>
   <i type="logical" name="LCOMPAT"> F  </i>
  </separator>
  <separator name="electronic" >
   <i type="string" name="PREC">normal</i>
   <i name="ENMAX">    400.00000000</i>
   <i name="ENAUG">    511.36800000</i>
   <i name="EDIFF">      0.00000100</i>
   <i type="int" name="IALGO">    68</i>
   <i type="int" name="IWAVPR">    11</i>
   <i type="int" name="NBANDS">   518</i>
   <i name="NELECT">    864.00000000</i>
   <i type="int" name="TURBO">     0</i>
   <i type="int" name="IRESTART">     0</i>
   <i type="int" name="NREBOOT">     0</i>
   <i type="int" name="NMIN">     0</i>
   <i name="EREF">      0.00000000</i>
   <separator name="electronic smearing" >
    <i type="int" name="ISMEAR">     1</i>
    <i name="SIGMA">      0.20000000</i>
    <i name="KSPACING">      0.50000000</i>
    <i type="logical" name="KGAMMA"> T  </i>
   </separator>
   <separator name="electronic projectors" >
    <i type="logical" name="LREAL"> T  </i>
    <v name="ROPT">     -0.00050000</v>
    <i type="int" name="LMAXPAW">  -100</i>
    <i type="int" name="LMAXMIX">     2</i>
    <i type="logical" name="NLSPLINE"> F  </i>
   </separator>
   <separator name="electronic startup" >
    <i type="int" name="ISTART">     0</i>
    <i type="int" name="ICHARG">     2</i>
    <i type="int" name="INIWAV">     1</i>
   </separator>
   <separator name="electronic spin" >
    <i type="int" name="ISPIN">     1</i>
    <i type="logical" name="LNONCOLLINEAR"> F  </i>
    <v name="MAGMOM">      1.00000000      1.00000000      1.00000000      1.00000000      1.00000000      1.00000000      1.00000000      1.00000000      1.00000000      1.00000000      1.00000000      1.00000000      1.00000000      1.00000000      1.00000000      1.00000000      1.00000000      1.00000000      1.00000000      1.00000000
      1.00000000      1.00000000      1.00000000      1.00000000      1.00000000      1.00000000      1.00000000      1.00000000      1.00000000      1.00000000      1.00000000      1.00000000      1.00000000      1.00000000      1.00000000      1.00000000      1.00000000      1.00000000      1.00000000      1.00000000
      1.00000000      1.00000000      1.00000000      1.00000000      1.00000000      1.00000000      1.00000000      1.00000000      1.00000000      1.00000000      1.00000000      1.00000000      1.00000000      1.00000000      1.00000000      1.00000000      1.00000000      1.00000000      1.00000000      1.00000000
      1.00000000      1.00000000      1.00000000      1.00000000      1.00000000      1.00000000      1.00000000      1.00000000      1.00000000      1.00000000      1.00000000      1.00000000      1.00000000      1.00000000      1.00000000      1.00000000      1.00000000      1.00000000      1.00000000      1.00000000
      1.00000000      1.00000000      1.00000000      1.00000000      1.00000000      1.00000000      1.00000000      1.00000000      1.00000000      1.00000000      1.00000000      1.00000000      1.00000000      1.00000000      1.00000000      1.00000000      1.00000000      1.00000000      1.00000000      1.00000000
      1.00000000      1.00000000      1.00000000      1.00000000      1.00000000      1.00000000      1.00000000      1.00000000</v>
    <i name="NUPDOWN">     -1.00000000</i>
    <i type="logical" name="LSORBIT"> F  </i>
    <v name="SAXIS">      0.00000000      0.00000000      1.00000000</v>
    <i type="logical" name="LSPIRAL"> F  </i>
    <v name="QSPIRAL">      0.00000000      0.00000000      0.00000000</v>
    <i type="logical" name="LZEROZ"> F  </i>
   </separator>
   <separator name="electronic exchange-correlation" >
    <i type="logical" name="LASPH"> F  </i>
    <i type="logical" name="LMETAGGA"> F  </i>
   </separator>
   <separator name="electronic convergence" >
    <i type="int" name="NELM">   400</i>
    <i type="int" name="NELMDL">    -5</i>
    <i type="int" name="NELMIN">     2</i>
    <i name="ENINI">    400.00000000</i>
    <separator name="electronic convergence detail" >
     <i type="logical" name="LDIAG"> T  </i>
     <i type="logical" name="LSUBROT"> F  </i>
     <i name="WEIMIN">      0.00100000</i>
     <i name="EBREAK">      0.00000000</i>
     <i name="DEPER">      0.30000000</i>
     <i type="int" name="NRMM">     4</i>
     <i name="TIME">      0.40000000</i>
    </separator>
   </separator>
   <separator name="electronic mixer" >
    <i name="AMIX">      0.40000000</i>
    <i name="BMIX">      1.00000000</i>
    <i name="AMIN">      0.10000000</i>
    <i name="AMIX_MAG">      1.60000000</i>
    <i name="BMIX_MAG">      1.00000000</i>
    <separator name="electronic mixer details" >
     <i type="int" name="IMIX">     4</i>
     <i type="logical" name="MIXFIRST"> F  </i>
     <i type="int" name="MAXMIX">   -45</i>
     <i name="WC">    100.00000000</i>
     <i type="int" name="INIMIX">     1</i>
     <i type="int" name="MIXPRE">     1</i>
     <i type="int" name="MREMOVE">     5</i>
    </separator>
   </separator>
   <separator name="electronic dipolcorrection" >
    <i type="logical" name="LDIPOL"> F  </i>
    <i type="logical" name="LMONO"> F  </i>
    <i type="int" name="IDIPOL">     0</i>
    <i name="EPSILON">      1.00000000</i>
    <v name="DIPOL">   -100.00000000   -100.00000000   -100.00000000</v>
    <i name="EFIELD">      0.00000000</i>
   </separator>
  </separator>
  <separator name="grids" >
   <i type="int" name="NGX">    72</i>
   <i type="int" name="NGY">    72</i>
   <i type="int" name="NGZ">    72</i>
   <i type="int" name="NGXF">   144</i>
   <i type="int" name="NGYF">   144</i>
   <i type="int" name="NGZF">   144</i>
   <i type="logical" name="ADDGRID"> F  </i>
  </separator>
  <separator name="ionic" >
   <i type="int" name="NSW">   100</i>
   <i type="int" name="IBRION">     2</i>
   <i type="int" name="MDALGO">     0</i>
   <i type="int" name="ISIF">     3</i>
   <i name="PSTRESS">      0.00000000</i>
   <i name="EDIFFG">     -0.01000000</i>
   <i type="int" name="NFREE">     1</i>
   <i name="POTIM">      0.50000000</i>
   <i name="SMASS">     -3.00000000</i>
   <i name="SCALEE">      1.00000000</i>
  </separator>
  <separator name="ionic md" >
   <i name="TEBEG">      0.00010000</i>
   <i name="TEEND">      0.00010000</i>
   <i type="int" name="NBLOCK">     1</i>
   <i type="int" name="KBLOCK">   100</i>
   <i type="int" name="NPACO">   256</i>
   <i name="APACO">     16.00000000</i>
  </separator>
  <separator name="symmetry" >
   <i type="int" name="ISYM">     2</i>
   <i name="SYMPREC">      0.00001000</i>
  </separator>
  <separator name="dos" >
   <i type="int" name="LORBIT">     0</i>
   <v name="RWIGS">     -1.00000000</v>
   <i type="int" name="NEDOS">   301</i>
   <i name="EMIN">     10.00000000</i>
   <i name="EMAX">    -10.00000000</i>
   <i name="EFERMI">      0.00000000</i>
  </separator>
  <separator name="writing" >
   <i type="int" name="NWRITE">     2</i>
   <i type="logical" name="LWAVE"> F  </i>
   <i type="logical" name="LDOWNSAMPLE"> F  </i>
   <i type="logical" name="LCHARG"> F  </i>
   <i type="logical" name="LPARD"> F  </i>
   <i type="logical" name="LVTOT"> F  </i>
   <i type="logical" name="LVHAR"> F  </i>
   <i type="logical" name="LELF"> F  </i>
   <i type="logical" name="LOPTICS"> F  </i>
   <v name="STM">      0.00000000      0.00000000      0.00000000      0.00000000      0.00000000      0.00000000      0.00000000</v>
  </separator>
  <separator name="performance" >
   <i type="int" name="NPAR">     2</i>
   <i type="int" name="NSIM">     4</i>
   <i type="int" name="NBLK">    -1</i>
   <i type="logical" name="LPLANE"> T  </i>
   <i type="logical" name="LSCALAPACK"> T  </i>
   <i type="logical" name="LSCAAWARE"> F  </i>
   <i type="logical" name="LSCALU"> F  </i>
   <i type="logical" name="LASYNC"> F  </i>
   <i type="logical" name="LORBITALREAL"> F  </i>
  </separator>
  <separator name="miscellaneous" >
   <i type="int" name="IDIOT">     3</i>
   <i type="int" name="ISPECIAL">     0</i>
   <i type="logical" name="LMUSIC"> F  </i>
   <v name="POMASS">     55.84700000</v>
   <v name="DARWINR">      0.00000000</v>
   <v name="DARWINV">      1.00000000</v>
   <i type="logical" name="LCORR"> T  </i>
  </separator>
  <i type="logical" name="GGA_COMPAT"> T  </i>
  <i type="logical" name="LBERRY"> F  </i>
  <i type="int" name="ICORELEVEL">     0</i>
  <i type="logical" name="LDAU"> F  </i>
  <i type="int" name="I_CONSTRAINED_M">     0</i>
  <separator name="electronic exchange-correlation" >
   <i type="string" name="GGA">--</i>
   <i type="int" name="VOSKOWN">     0</i>
   <i type="logical" name="LHFCALC"> F  </i>
   <i type="string" name="PRECFOCK"></i>
   <i type="logical" name="LSYMGRAD"> F  </i>
   <i type="logical" name="LHFONE"> F  </i>
   <i type="logical" name="LRHFCALC"> F  </i>
   <i type="logical" name="LTHOMAS"> F  </i>
   <i type="logical" name="LMODELHF"> F  </i>
   <i name="ENCUT4O">     -1.00000000</i>
   <i type="int" name="EXXOEP">     0</i>
   <i type="int" name="FOURORBIT">     0</i>
   <i name="AEXX">      0.00000000</i>
   <i name="HFALPHA">      0.00000000</i>
   <i name="MCALPHA">      0.00000000</i>
   <i name="ALDAX">      1.00000000</i>
   <i name="AGGAX">      1.00000000</i>
   <i name="ALDAC">      1.00000000</i>
   <i name="AGGAC">      1.00000000</i>
   <i type="int" name="NKREDX">     1</i>
   <i type="int" name="NKREDY">     1</i>
   <i type="int" name="NKREDZ">     1</i>
   <i type="logical" name="SHIFTRED"> F  </i>
   <i type="logical" name="ODDONLY"> F  </i>
   <i type="logical" name="EVENONLY"> F  </i>
   <i type="int" name="LMAXFOCK">     0</i>
   <i type="int" name="NMAXFOCKAE">     0</i>
   <i type="logical" name="LFOCKAEDFT"> F  </i>
   <i name="HFSCREEN">      0.00000000</i>
   <i name="HFSCREENC">      0.00000000</i>
   <i type="int" name="NBANDSGWLOW">     0</i>
  </separator>
  <separator name="vdW DFT" >
   <i type="logical" name="LUSE_VDW"> F  </i>
   <i name="Zab_VDW">     -0.84910000</i>
   <i name="PARAM1">      0.12340000</i>
   <i name="PARAM2">      1.00000000</i>
   <i name="PARAM3">      0.00000000</i>
  </separator>
  <separator name="model GW" >
   <i type="int" name="MODEL_GW">     0</i>
   <i name="MODEL_EPS0">      6.13252964</i>
   <i name="MODEL_ALPHA">      1.00000000</i>
  </separator>
  <separator name="linear response parameters" >
   <i type="logical" name="LEPSILON"> F  </i>
   <i type="logical" name="LRPA"> F  </i>
   <i type="logical" name="LNABLA"> F  </i>
   <i type="logical" name="LVEL"> F  </i>
   <i type="int" name="KINTER">     0</i>
   <i name="CSHIFT">      0.10000000</i>
   <i name="OMEGAMAX">     -1.00000000</i>
   <i name="DEG_THRESHOLD">      0.00200000</i>
   <i name="RTIME">     -0.10000000</i>
   <i name="WPLASMAI">      0.00000000</i>
   <v name="DFIELD">      0.00000000      0.00000000      0.00000000</v>
   <v name="WPLASMA">      0.00000000      0.00000000      0.00000000      0.00000000      0.00000000      0.00000000      0.00000000      0.00000000      0.00000000</v>
  </separator>
  <separator name="orbital magnetization" >
   <i type="logical" name="NUCIND"> F  </i>
   <v name="MAGPOS">      0.00000000      0.00000000      0.00000000</v>
   <i type="logical" name="LNICSALL"> T  </i>
   <i type="logical" name="ORBITALMAG"> F  </i>
   <i type="logical" name="LMAGBLOCH"> F  </i>
   <i type="logical" name="LCHIMAG"> F  </i>
   <i type="logical" name="LGAUGE"> T  </i>
   <i type="int" name="MAGATOM">     0</i>
   <v name="MAGDIPOL">      0.00000000      0.00000000      0.00000000</v>
   <v name="AVECCONST">      0.00000000      0.00000000      0.00000000</v>
  </separator>
  <separator name="response functions" >
   <i type="logical" name="LADDER"> F  </i>
   <i type="logical" name="LRPAFORCE"> F  </i>
   <i type="logical" name="LFXC"> F  </i>
   <i type="logical" name="LHARTREE"> T  </i>
   <i type="int" name="IBSE">     0</i>
   <v type="int" name="KPOINT">    -1     0     0     0</v>
   <i type="logical" name="LTCTE"> F  </i>
   <i type="logical" name="LTETE"> F  </i>
   <i type="logical" name="LTRIPLET"> F  </i>
   <i type="logical" name="LFXCEPS"> F  </i>
   <i type="logical" name="LFXHEG"> F  </i>
   <i type="int" name="NATURALO">     2</i>
   <i type="logical" name="L2ORDER"> F  </i>
   <i type="logical" name="LMP2LT"> F  </i>
   <i type="logical" name="LUSEW"> F  </i>
   <i name="ENCUTGW">     -2.00000000</i>
   <i name="ENCUTGWSOFT">     -2.00000000</i>
   <i name="ENCUTLF">     -1.00000000</i>
   <i type="int" name="LMAXMP2">    -1</i>
   <i name="SCISSOR">      0.00000000</i>
   <i type="int" name="NOMEGA">     0</i>
   <i type="int" name="NOMEGAR">     0</i>
   <i type="int" name="NBANDSGW">    -1</i>
   <i type="int" name="NBANDSO">    -1</i>
   <i type="int" name="NBANDSV">    -1</i>
   <i type="int" name="NELM">   400</i>
   <i type="int" name="NELMHF">     1</i>
   <i type="int" name="DIM">     3</i>
   <i type="int" name="ANTIRES">     0</i>
   <i name="OMEGAMAX">    -30.00000000</i>
   <i name="OMEGAMIN">    -30.00000000</i>
   <i name="OMEGATL">   -200.00000000</i>
   <i type="int" name="OMEGAGRID">   140</i>
   <i name="CSHIFT">     -0.10000000</i>
   <i type="logical" name="SELFENERGY"> F  </i>
   <i type="logical" name="LSPECTRAL"> F  </i>
   <i type="logical" name="LSPECTRALGW"> F  </i>
   <i type="logical" name="LSINGLES"> F  </i>
   <i type="logical" name="LFERMIGW"> F  </i>
   <i type="logical" name="ODDONLYGW"> F  </i>
   <i type="logical" name="EVENONLYGW"> F  </i>
   <i type="int" name="NKREDLFX">     1</i>
   <i type="int" name="NKREDLFY">     1</i>
   <i type="int" name="NKREDLFZ">     1</i>
   <i type="int" name="MAXMEM">  2800</i>
   <i type="int" name="TELESCOPE">     0</i>
   <i type="int" name="TAUPAR">     1</i>
   <i type="int" name="OMEGAPAR">    -1</i>
   <i name="LAMBDA">      1.00000000</i>
  </separator>
  <separator name="External order field" >
   <i name="OFIELD_KAPPA">      0.00000000</i>
   <v name="OFIELD_K">      0.00000000      0.00000000      0.00000000</v>
   <i name="OFIELD_Q6_NEAR">      0.00000000</i>
   <i name="OFIELD_Q6_FAR">      0.00000000</i>
   <i name="OFIELD_A">      0.00000000</i>
  </separator>
 </parameters>
 <atominfo>
  <atoms>     108 </atoms>
  <types>       1 </types>
  <array name="atoms" >
   <dimension dim="1">ion</dimension>
   <field type="string">element</field>
   <field type="int">atomtype</field>
   <set>
    <rc><c>Fe</c><c>   1</c></rc>
    <rc><c>Fe</c><c>   1</c></rc>
    <rc><c>Fe</c><c>   1</c></rc>
    <rc><c>Fe</c><c>   1</c></rc>
    <rc><c>Fe</c><c>   1</c></rc>
    <rc><c>Fe</c><c>   1</c></rc>
    <rc><c>Fe</c><c>   1</c></rc>
    <rc><c>Fe</c><c>   1</c></rc>
    <rc><c>Fe</c><c>   1</c></rc>
    <rc><c>Fe</c><c>   1</c></rc>
    <rc><c>Fe</c><c>   1</c></rc>
    <rc><c>Fe</c><c>   1</c></rc>
    <rc><c>Fe</c><c>   1</c></rc>
    <rc><c>Fe</c><c>   1</c></rc>
    <rc><c>Fe</c><c>   1</c></rc>
    <rc><c>Fe</c><c>   1</c></rc>
    <rc><c>Fe</c><c>   1</c></rc>
    <rc><c>Fe</c><c>   1</c></rc>
    <rc><c>Fe</c><c>   1</c></rc>
    <rc><c>Fe</c><c>   1</c></rc>
    <rc><c>Fe</c><c>   1</c></rc>
    <rc><c>Fe</c><c>   1</c></rc>
    <rc><c>Fe</c><c>   1</c></rc>
    <rc><c>Fe</c><c>   1</c></rc>
    <rc><c>Fe</c><c>   1</c></rc>
    <rc><c>Fe</c><c>   1</c></rc>
    <rc><c>Fe</c><c>   1</c></rc>
    <rc><c>Fe</c><c>   1</c></rc>
    <rc><c>Fe</c><c>   1</c></rc>
    <rc><c>Fe</c><c>   1</c></rc>
    <rc><c>Fe</c><c>   1</c></rc>
    <rc><c>Fe</c><c>   1</c></rc>
    <rc><c>Fe</c><c>   1</c></rc>
    <rc><c>Fe</c><c>   1</c></rc>
    <rc><c>Fe</c><c>   1</c></rc>
    <rc><c>Fe</c><c>   1</c></rc>
    <rc><c>Fe</c><c>   1</c></rc>
    <rc><c>Fe</c><c>   1</c></rc>
    <rc><c>Fe</c><c>   1</c></rc>
    <rc><c>Fe</c><c>   1</c></rc>
    <rc><c>Fe</c><c>   1</c></rc>
    <rc><c>Fe</c><c>   1</c></rc>
    <rc><c>Fe</c><c>   1</c></rc>
    <rc><c>Fe</c><c>   1</c></rc>
    <rc><c>Fe</c><c>   1</c></rc>
    <rc><c>Fe</c><c>   1</c></rc>
    <rc><c>Fe</c><c>   1</c></rc>
    <rc><c>Fe</c><c>   1</c></rc>
    <rc><c>Fe</c><c>   1</c></rc>
    <rc><c>Fe</c><c>   1</c></rc>
    <rc><c>Fe</c><c>   1</c></rc>
    <rc><c>Fe</c><c>   1</c></rc>
    <rc><c>Fe</c><c>   1</c></rc>
    <rc><c>Fe</c><c>   1</c></rc>
    <rc><c>Fe</c><c>   1</c></rc>
    <rc><c>Fe</c><c>   1</c></rc>
    <rc><c>Fe</c><c>   1</c></rc>
    <rc><c>Fe</c><c>   1</c></rc>
    <rc><c>Fe</c><c>   1</c></rc>
    <rc><c>Fe</c><c>   1</c></rc>
    <rc><c>Fe</c><c>   1</c></rc>
    <rc><c>Fe</c><c>   1</c></rc>
    <rc><c>Fe</c><c>   1</c></rc>
    <rc><c>Fe</c><c>   1</c></rc>
    <rc><c>Fe</c><c>   1</c></rc>
    <rc><c>Fe</c><c>   1</c></rc>
    <rc><c>Fe</c><c>   1</c></rc>
    <rc><c>Fe</c><c>   1</c></rc>
    <rc><c>Fe</c><c>   1</c></rc>
    <rc><c>Fe</c><c>   1</c></rc>
    <rc><c>Fe</c><c>   1</c></rc>
    <rc><c>Fe</c><c>   1</c></rc>
    <rc><c>Fe</c><c>   1</c></rc>
    <rc><c>Fe</c><c>   1</c></rc>
    <rc><c>Fe</c><c>   1</c></rc>
    <rc><c>Fe</c><c>   1</c></rc>
    <rc><c>Fe</c><c>   1</c></rc>
    <rc><c>Fe</c><c>   1</c></rc>
    <rc><c>Fe</c><c>   1</c></rc>
    <rc><c>Fe</c><c>   1</c></rc>
    <rc><c>Fe</c><c>   1</c></rc>
    <rc><c>Fe</c><c>   1</c></rc>
    <rc><c>Fe</c><c>   1</c></rc>
    <rc><c>Fe</c><c>   1</c></rc>
    <rc><c>Fe</c><c>   1</c></rc>
    <rc><c>Fe</c><c>   1</c></rc>
    <rc><c>Fe</c><c>   1</c></rc>
    <rc><c>Fe</c><c>   1</c></rc>
    <rc><c>Fe</c><c>   1</c></rc>
    <rc><c>Fe</c><c>   1</c></rc>
    <rc><c>Fe</c><c>   1</c></rc>
    <rc><c>Fe</c><c>   1</c></rc>
    <rc><c>Fe</c><c>   1</c></rc>
    <rc><c>Fe</c><c>   1</c></rc>
    <rc><c>Fe</c><c>   1</c></rc>
    <rc><c>Fe</c><c>   1</c></rc>
    <rc><c>Fe</c><c>   1</c></rc>
    <rc><c>Fe</c><c>   1</c></rc>
    <rc><c>Fe</c><c>   1</c></rc>
    <rc><c>Fe</c><c>   1</c></rc>
    <rc><c>Fe</c><c>   1</c></rc>
    <rc><c>Fe</c><c>   1</c></rc>
    <rc><c>Fe</c><c>   1</c></rc>
    <rc><c>Fe</c><c>   1</c></rc>
    <rc><c>Fe</c><c>   1</c></rc>
    <rc><c>Fe</c><c>   1</c></rc>
    <rc><c>Fe</c><c>   1</c></rc>
    <rc><c>Fe</c><c>   1</c></rc>
   </set>
  </array>
  <array name="atomtypes" >
   <dimension dim="1">type</dimension>
   <field type="int">atomspertype</field>
   <field type="string">element</field>
   <field>mass</field>
   <field>valence</field>
   <field type="string">pseudopotential</field>
   <set>
    <rc><c> 108</c><c>Fe</c><c>     55.84700000</c><c>      8.00000000</c><c> PAW_PBE Fe 06Sep2000                   </c></rc>
   </set>
  </array>
 </atominfo>
 <structure name="initialpos" >
  <crystal>
   <varray name="basis" >
    <v>      10.33484705       0.00000000       0.00000000 </v>
    <v>       0.00000000      10.33484705       0.00000000 </v>
    <v>       0.00000000       0.00000000      10.33484705 </v>
   </varray>
   <i name="volume">   1103.85533447 </i>
   <varray name="rec_basis" >
    <v>       0.09676002       0.00000000       0.00000000 </v>
    <v>       0.00000000       0.09676002       0.00000000 </v>
    <v>       0.00000000       0.00000000       0.09676002 </v>
   </varray>
  </crystal>
  <varray name="positions" >
   <v>       0.00000000       0.00000000       0.00000000 </v>
   <v>       0.00000000       0.16666893       0.16666893 </v>
   <v>       0.16666893       0.00000000       0.16666893 </v>
   <v>       0.16666893       0.16666893       0.00000000 </v>
   <v>       0.33333106       0.00000000       0.00000000 </v>
   <v>       0.33333107       0.16666893       0.16666893 </v>
   <v>       0.50000000       0.00000000       0.16666894 </v>
   <v>       0.50000000       0.16666894       0.00000000 </v>
   <v>       0.66666897       0.00000000       0.00000000 </v>
   <v>       0.66666896       0.16666893       0.16666893 </v>
   <v>       0.83333104       0.00000000       0.16666893 </v>
   <v>       0.83333104       0.16666893       0.00000000 </v>
   <v>       0.00000000       0.33333106       0.00000000 </v>
   <v>       0.00000000       0.50000000       0.16666894 </v>
   <v>       0.16666893       0.33333107       0.16666893 </v>
   <v>       0.16666894       0.50000000       0.00000000 </v>
   <v>       0.33333107       0.33333107       0.00000000 </v>
   <v>       0.33333107       0.50000000       0.16666893 </v>
   <v>       0.50000000       0.33333107       0.16666893 </v>
   <v>       0.50000000       0.50000000       0.00000000 </v>
   <v>       0.66666896       0.33333107       0.00000000 </v>
   <v>       0.66666896       0.50000000       0.16666893 </v>
   <v>       0.83333104       0.33333107       0.16666893 </v>
   <v>       0.83333103       0.50000000       0.00000000 </v>
   <v>       0.00000000       0.66666897       0.00000000 </v>
   <v>       0.00000000       0.83333104       0.16666893 </v>
   <v>       0.16666893       0.66666896       0.16666893 </v>
   <v>       0.16666893       0.83333104       0.00000000 </v>
   <v>       0.33333107       0.66666896       0.00000000 </v>
   <v>       0.33333107       0.83333104       0.16666893 </v>
   <v>       0.50000000       0.66666896       0.16666893 </v>
   <v>       0.50000000       0.83333103       0.00000000 </v>
   <v>       0.66666896       0.66666896       0.00000000 </v>
   <v>       0.66666896       0.83333104       0.16666893 </v>
   <v>       0.83333104       0.66666896       0.16666893 </v>
   <v>       0.83333104       0.83333104       0.00000000 </v>
   <v>       0.00000000       0.00000000       0.33333106 </v>
   <v>       0.00000000       0.16666894       0.50000000 </v>
   <v>       0.16666894       0.00000000       0.50000000 </v>
   <v>       0.16666893       0.16666893       0.33333107 </v>
   <v>       0.33333107       0.00000000       0.33333107 </v>
   <v>       0.33333107       0.16666893       0.50000000 </v>
   <v>       0.50000000       0.00000000       0.50000000 </v>
   <v>       0.50000000       0.16666893       0.33333107 </v>
   <v>       0.66666896       0.00000000       0.33333107 </v>
   <v>       0.66666896       0.16666893       0.50000000 </v>
   <v>       0.83333103       0.00000000       0.50000000 </v>
   <v>       0.83333104       0.16666893       0.33333107 </v>
   <v>       0.00000000       0.33333107       0.33333107 </v>
   <v>       0.00000000       0.50000000       0.50000000 </v>
   <v>       0.16666893       0.33333107       0.50000000 </v>
   <v>       0.16666893       0.50000000       0.33333107 </v>
   <v>       0.33333107       0.33333107       0.33333107 </v>
   <v>       0.33333106       0.50000000       0.50000000 </v>
   <v>       0.50000000       0.33333106       0.50000000 </v>
   <v>       0.50000000       0.50000000       0.33333106 </v>
   <v>       0.66666896       0.33333107       0.33333107 </v>
   <v>       0.66666897       0.50000000       0.50000000 </v>
   <v>       0.83333104       0.33333107       0.50000000 </v>
   <v>       0.83333104       0.50000000       0.33333107 </v>
   <v>       0.00000000       0.66666896       0.33333107 </v>
   <v>       0.00000000       0.83333103       0.50000000 </v>
   <v>       0.16666893       0.66666896       0.50000000 </v>
   <v>       0.16666893       0.83333104       0.33333107 </v>
   <v>       0.33333107       0.66666896       0.33333107 </v>
   <v>       0.33333107       0.83333104       0.50000000 </v>
   <v>       0.50000000       0.66666897       0.50000000 </v>
   <v>       0.50000000       0.83333104       0.33333107 </v>
   <v>       0.66666896       0.66666896       0.33333107 </v>
   <v>       0.66666896       0.83333104       0.50000000 </v>
   <v>       0.83333104       0.66666896       0.50000000 </v>
   <v>       0.83333104       0.83333104       0.33333107 </v>
   <v>       0.00000000       0.00000000       0.66666897 </v>
   <v>       0.00000000       0.16666893       0.83333104 </v>
   <v>       0.16666893       0.00000000       0.83333104 </v>
   <v>       0.16666893       0.16666893       0.66666896 </v>
   <v>       0.33333107       0.00000000       0.66666896 </v>
   <v>       0.33333107       0.16666893       0.83333104 </v>
   <v>       0.50000000       0.00000000       0.83333103 </v>
   <v>       0.50000000       0.16666893       0.66666896 </v>
   <v>       0.66666896       0.00000000       0.66666896 </v>
   <v>       0.66666896       0.16666893       0.83333104 </v>
   <v>       0.83333104       0.00000000       0.83333104 </v>
   <v>       0.83333104       0.16666893       0.66666896 </v>
   <v>       0.00000000       0.33333107       0.66666896 </v>
   <v>       0.00000000       0.50000000       0.83333103 </v>
   <v>       0.16666893       0.33333107       0.83333104 </v>
   <v>       0.16666893       0.50000000       0.66666896 </v>
   <v>       0.33333107       0.33333107       0.66666896 </v>
   <v>       0.33333107       0.50000000       0.83333104 </v>
   <v>       0.50000000       0.33333107       0.83333104 </v>
   <v>       0.50000000       0.50000000       0.66666897 </v>
   <v>       0.66666896       0.33333107       0.66666896 </v>
   <v>       0.66666896       0.50000000       0.83333104 </v>
   <v>       0.83333104       0.33333107       0.83333104 </v>
   <v>       0.83333104       0.50000000       0.66666896 </v>
   <v>       0.00000000       0.66666896       0.66666896 </v>
   <v>       0.00000000       0.83333104       0.83333104 </v>
   <v>       0.16666893       0.66666896       0.83333104 </v>
   <v>       0.16666893       0.83333104       0.66666896 </v>
   <v>       0.33333107       0.66666896       0.66666896 </v>
   <v>       0.33333107       0.83333104       0.83333104 </v>
   <v>       0.50000000       0.66666896       0.83333104 </v>
   <v>       0.50000000       0.83333104       0.66666896 </v>
   <v>       0.66666896       0.66666896       0.66666896 </v>
   <v>       0.66666896       0.83333104       0.83333104 </v>
   <v>       0.83333104       0.66666896       0.83333104 </v>
   <v>       0.83333104       0.83333104       0.66666896 </v>
  </varray>
 </structure>
 <calculation>
  <scstep>
   <time name="dav">   16.27   16.30</time>
   <time name="total">   16.88   16.91</time>
   <energy>
    <i name="alphaZ">   7300.31925852 </i>
    <i name="ewald"> -66232.83996889 </i>
    <i name="hartreedc"> -11197.02572337 </i>
    <i name="XCdc">    446.63038354 </i>
    <i name="pawpsdc">  51723.88885462 </i>
    <i name="pawaedc"> -52548.28121372 </i>
    <i name="eentropy">     -0.00696805 </i>
    <i name="bandstr">  13918.25084432 </i>
    <i name="atom">  64201.67088057 </i>
    <i name="e_fr_energy">   7612.60634755 </i>
    <i name="e_wo_entrp">   7612.61331560 </i>
    <i name="e_0_energy">   7612.60867023 </i>
   </energy>
  </scstep>
  <scstep>
   <time name="dav">   12.25   12.25</time>
   <time name="total">   12.25   12.26</time>
   <energy>
    <i name="e_fr_energy">    -21.30827583 </i>
    <i name="e_wo_entrp">    -21.32270717 </i>
    <i name="e_0_energy">    -21.31308628 </i>
   </energy>
  </scstep>
  <scstep>
   <time name="dav">    9.82    9.82</time>
   <time name="total">    9.82    9.82</time>
   <energy>
    <i name="e_fr_energy">   -847.06257454 </i>
    <i name="e_wo_entrp">   -846.99374246 </i>
    <i name="e_0_energy">   -847.03963051 </i>
   </energy>
  </scstep>
  <scstep>
   <time name="dav">   15.81   15.84</time>
   <time name="total">   15.81   15.84</time>
   <energy>
    <i name="e_fr_energy">  -1026.64762346 </i>
    <i name="e_wo_entrp">  -1027.05238754 </i>
    <i name="e_0_energy">  -1026.78254482 </i>
   </energy>
  </scstep>
  <scstep>
   <time name="dav">   14.32   14.32</time>
   <time name="total">   15.07   15.07</time>
   <energy>
    <i name="e_fr_energy">  -1043.12854472 </i>
    <i name="e_wo_entrp">  -1043.54229944 </i>
    <i name="e_0_energy">  -1043.26646296 </i>
   </energy>
  </scstep>
  <scstep>
   <time name="diag">    1.22    1.22</time>
   <time name="diis">    6.03    6.03</time>
   <time name="orth">    0.25    0.25</time>
   <time name="total">    8.55    8.56</time>
   <energy>
    <i name="e_fr_energy">   -871.70321970 </i>
    <i name="e_wo_entrp">   -871.58560888 </i>
    <i name="e_0_energy">   -871.66401609 </i>
   </energy>
  </scstep>
  <scstep>
   <time name="diag">    1.21    1.21</time>
   <time name="diis">    6.90    6.90</time>
   <time name="orth">    0.24    0.24</time>
   <time name="total">    9.43    9.44</time>
   <energy>
    <i name="e_fr_energy">   -877.75028738 </i>
    <i name="e_wo_entrp">   -878.40241785 </i>
    <i name="e_0_energy">   -877.96766421 </i>
   </energy>
  </scstep>
  <scstep>
   <time name="diag">    1.21    1.21</time>
   <time name="diis">    6.12    6.13</time>
   <time name="orth">    0.25    0.25</time>
   <time name="total">    8.67    8.68</time>
   <energy>
    <i name="e_fr_energy">   -877.00345886 </i>
    <i name="e_wo_entrp">   -877.73334870 </i>
    <i name="e_0_energy">   -877.24675547 </i>
   </energy>
  </scstep>
  <scstep>
   <time name="diag">    1.21    1.21</time>
   <time name="diis">    6.80    6.81</time>
   <time name="orth">    0.23    0.23</time>
   <time name="total">    9.32    9.33</time>
   <energy>
    <i name="e_fr_energy">   -875.89148848 </i>
    <i name="e_wo_entrp">   -876.71706959 </i>
    <i name="e_0_energy">   -876.16668218 </i>
   </energy>
  </scstep>
  <scstep>
   <time name="diag">    1.21    1.21</time>
   <time name="diis">    6.93    6.94</time>
   <time name="orth">    0.26    0.26</time>
   <time name="total">    9.56    9.57</time>
   <energy>
    <i name="e_fr_energy">   -875.57338066 </i>
    <i name="e_wo_entrp">   -876.39801803 </i>
    <i name="e_0_energy">   -875.84825978 </i>
   </energy>
  </scstep>
  <scstep>
   <time name="diag">    1.13    1.13</time>
   <time name="diis">    8.32    8.32</time>
   <time name="orth">    0.25    0.25</time>
   <time name="total">   10.74   10.75</time>
   <energy>
    <i name="e_fr_energy">   -875.64879313 </i>
    <i name="e_wo_entrp">   -876.47532547 </i>
    <i name="e_0_energy">   -875.92430391 </i>
   </energy>
  </scstep>
  <scstep>
   <time name="diag">    1.21    1.21</time>
   <time name="diis">    7.24    7.25</time>
   <time name="orth">    0.26    0.26</time>
   <time name="total">    9.81    9.82</time>
   <energy>
    <i name="e_fr_energy">   -875.63790999 </i>
    <i name="e_wo_entrp">   -876.47313628 </i>
    <i name="e_0_energy">   -875.91631876 </i>
   </energy>
  </scstep>
  <scstep>
   <time name="diag">    1.12    1.12</time>
   <time name="diis">    7.35    7.35</time>
   <time name="orth">    0.25    0.25</time>
   <time name="total">    9.80    9.80</time>
   <energy>
    <i name="e_fr_energy">   -875.63529669 </i>
    <i name="e_wo_entrp">   -876.47529159 </i>
    <i name="e_0_energy">   -875.91529499 </i>
   </energy>
  </scstep>
  <scstep>
   <time name="diag">    1.22    1.22</time>
   <time name="diis">    7.95    7.95</time>
   <time name="orth">    0.25    0.25</time>
   <time name="total">   10.50   10.50</time>
   <energy>
    <i name="e_fr_energy">   -875.63565892 </i>
    <i name="e_wo_entrp">   -876.47818978 </i>
    <i name="e_0_energy">   -875.91650254 </i>
   </energy>
  </scstep>
  <scstep>
   <time name="diag">    1.20    1.20</time>
   <time name="diis">    7.68    7.68</time>
   <time name="orth">    0.24    0.24</time>
   <time name="total">   10.22   10.22</time>
   <energy>
    <i name="e_fr_energy">   -875.63533670 </i>
    <i name="e_wo_entrp">   -876.47881642 </i>
    <i name="e_0_energy">   -875.91649661 </i>
   </energy>
  </scstep>
  <scstep>
   <time name="diag">    1.23    1.23</time>
   <time name="diis">    7.65    7.65</time>
   <time name="orth">    0.24    0.24</time>
   <time name="total">   10.17   10.17</time>
   <energy>
    <i name="e_fr_energy">   -875.63506250 </i>
    <i name="e_wo_entrp">   -876.48013562 </i>
    <i name="e_0_energy">   -875.91675354 </i>
   </energy>
  </scstep>
  <scstep>
   <time name="diag">    1.21    1.21</time>
   <time name="diis">    8.44    8.45</time>
   <time name="orth">    0.26    0.26</time>
   <time name="total">   11.03   11.04</time>
   <energy>
    <i name="e_fr_energy">   -875.63489004 </i>
    <i name="e_wo_entrp">   -876.48080145 </i>
    <i name="e_0_energy">   -875.91686051 </i>
   </energy>
  </scstep>
  <scstep>
   <time name="diag">    1.24    1.24</time>
   <time name="diis">    4.87    4.87</time>
   <time name="orth">    0.26    0.26</time>
   <time name="total">    7.55    7.55</time>
   <energy>
    <i name="e_fr_energy">   -875.63476931 </i>
    <i name="e_wo_entrp">   -876.48133662 </i>
    <i name="e_0_energy">   -875.91695841 </i>
   </energy>
  </scstep>
  <scstep>
   <time name="diag">    1.20    1.20</time>
   <time name="diis">    4.40    4.40</time>
   <time name="orth">    0.26    0.26</time>
   <time name="total">    6.99    6.99</time>
   <energy>
    <i name="e_fr_energy">   -875.63468332 </i>
    <i name="e_wo_entrp">   -876.48173748 </i>
    <i name="e_0_energy">   -875.91703471 </i>
   </energy>
  </scstep>
  <scstep>
   <time name="diag">    1.13    1.13</time>
   <time name="diis">    4.41    4.41</time>
   <time name="orth">    0.26    0.26</time>
   <time name="total">    6.92    6.92</time>
   <energy>
    <i name="e_fr_energy">   -875.63462191 </i>
    <i name="e_wo_entrp">   -876.48209500 </i>
    <i name="e_0_energy">   -875.91711294 </i>
   </energy>
  </scstep>
  <scstep>
   <time name="diag">    1.12    1.12</time>
   <time name="diis">    4.36    4.36</time>
   <time name="orth">    0.25    0.25</time>
   <time name="total">    6.81    6.81</time>
   <energy>
    <i name="e_fr_energy">   -875.63457536 </i>
    <i name="e_wo_entrp">   -876.48239335 </i>
    <i name="e_0_energy">   -875.91718136 </i>
   </energy>
  </scstep>
  <scstep>
   <time name="diag">    1.21    1.21</time>
   <time name="diis">    4.20    4.20</time>
   <time name="orth">    0.25    0.25</time>
   <time name="total">    6.70    6.70</time>
   <energy>
    <i name="e_fr_energy">   -875.63453818 </i>
    <i name="e_wo_entrp">   -876.48267904 </i>
    <i name="e_0_energy">   -875.91725180 </i>
   </energy>
  </scstep>
  <scstep>
   <time name="diag">    1.20    1.20</time>
   <time name="diis">    4.12    4.12</time>
   <time name="orth">    0.24    0.24</time>
   <time name="total">    6.64    6.65</time>
   <energy>
    <i name="e_fr_energy">   -875.63450559 </i>
    <i name="e_wo_entrp">   -876.48294979 </i>
    <i name="e_0_energy">   -875.91732032 </i>
   </energy>
  </scstep>
  <scstep>
   <time name="diag">    1.20    1.20</time>
   <time name="diis">    3.78    3.78</time>
   <time name="orth">    0.25    0.25</time>
   <time name="total">    6.34    6.34</time>
   <energy>
    <i name="e_fr_energy">   -875.63440886 </i>
    <i name="e_wo_entrp">   -876.48383289 </i>
    <i name="e_0_energy">   -875.91755020 </i>
   </energy>
  </scstep>
  <scstep>
   <time name="diag">    1.23    1.23</time>
   <time name="diis">    3.76    3.76</time>
   <time name="orth">    0.25    0.25</time>
   <time name="total">    6.36    6.36</time>
   <energy>
    <i name="e_fr_energy">   -875.63436129 </i>
    <i name="e_wo_entrp">   -876.48424863 </i>
    <i name="e_0_energy">   -875.91765707 </i>
   </energy>
  </scstep>
  <scstep>
   <time name="diag">    1.23    1.23</time>
   <time name="diis">    3.56    3.56</time>
   <time name="orth">    0.26    0.26</time>
   <time name="total">    6.19    6.19</time>
   <energy>
    <i name="e_fr_energy">   -875.63432429 </i>
    <i name="e_wo_entrp">   -876.48458591 </i>
    <i name="e_0_energy">   -875.91774483 </i>
   </energy>
  </scstep>
  <scstep>
   <time name="diag">    1.23    1.23</time>
   <time name="diis">    3.49    3.49</time>
   <time name="orth">    0.25    0.25</time>
   <time name="total">    6.11    6.11</time>
   <energy>
    <i name="e_fr_energy">   -875.63429851 </i>
    <i name="e_wo_entrp">   -876.48483828 </i>
    <i name="e_0_energy">   -875.91781176 </i>
   </energy>
  </scstep>
  <scstep>
   <time name="diag">    1.22    1.22</time>
   <time name="diis">    3.36    3.36</time>
   <time name="orth">    0.26    0.26</time>
   <time name="total">    5.97    5.97</time>
   <energy>
    <i name="e_fr_energy">   -875.63427476 </i>
    <i name="e_wo_entrp">   -876.48507513 </i>
    <i name="e_0_energy">   -875.91787488 </i>
   </energy>
  </scstep>
  <scstep>
   <time name="diag">    1.13    1.13</time>
   <time name="diis">    3.26    3.26</time>
   <time name="orth">    0.25    0.25</time>
   <time name="total">    5.77    5.78</time>
   <energy>
    <i name="e_fr_energy">   -875.63425217 </i>
    <i name="e_wo_entrp">   -876.48530653 </i>
    <i name="e_0_energy">   -875.91793696 </i>
   </energy>
  </scstep>
  <scstep>
   <time name="diag">    1.11    1.12</time>
   <time name="diis">    3.13    3.14</time>
   <time name="orth">    0.26    0.26</time>
   <time name="total">    5.61    5.62</time>
   <energy>
    <i name="e_fr_energy">   -875.63414640 </i>
    <i name="e_wo_entrp">   -876.48629027 </i>
    <i name="e_0_energy">   -875.91819436 </i>
   </energy>
  </scstep>
  <scstep>
   <time name="diag">    1.15    1.15</time>
   <time name="diis">    3.18    3.18</time>
   <time name="orth">    0.26    0.26</time>
   <time name="total">    5.67    5.67</time>
   <energy>
    <i name="e_fr_energy">   -875.63403507 </i>
    <i name="e_wo_entrp">   -876.48729731 </i>
    <i name="e_0_energy">   -875.91845582 </i>
   </energy>
  </scstep>
  <scstep>
   <time name="diag">    1.21    1.21</time>
   <time name="diis">    3.20    3.21</time>
   <time name="orth">    0.25    0.25</time>
   <time name="total">    5.72    5.73</time>
   <energy>
    <i name="e_fr_energy">   -875.63399370 </i>
    <i name="e_wo_entrp">   -876.48764975 </i>
    <i name="e_0_energy">   -875.91854572 </i>
   </energy>
  </scstep>
  <scstep>
   <time name="diag">    1.21    1.21</time>
   <time name="diis">    3.14    3.14</time>
   <time name="orth">    0.24    0.24</time>
   <time name="total">    5.65    5.65</time>
   <energy>
    <i name="e_fr_energy">   -875.63396198 </i>
    <i name="e_wo_entrp">   -876.48793435 </i>
    <i name="e_0_energy">   -875.91861943 </i>
   </energy>
  </scstep>
  <scstep>
   <time name="diag">    1.20    1.20</time>
   <time name="diis">    3.01    3.01</time>
   <time name="orth">    0.25    0.25</time>
   <time name="total">    5.56    5.56</time>
   <energy>
    <i name="e_fr_energy">   -875.63394259 </i>
    <i name="e_wo_entrp">   -876.48811811 </i>
    <i name="e_0_energy">   -875.91866777 </i>
   </energy>
  </scstep>
  <scstep>
   <time name="diag">    1.20    1.20</time>
   <time name="diis">    3.01    3.01</time>
   <time name="orth">    0.25    0.25</time>
   <time name="total">    5.57    5.57</time>
   <energy>
    <i name="e_fr_energy">   -875.63392915 </i>
    <i name="e_wo_entrp">   -876.48825639 </i>
    <i name="e_0_energy">   -875.91870489 </i>
   </energy>
  </scstep>
  <scstep>
   <time name="diag">    1.18    1.18</time>
   <time name="diis">    2.92    2.92</time>
   <time name="orth">    0.24    0.24</time>
   <time name="total">    5.44    5.44</time>
   <energy>
    <i name="e_fr_energy">   -875.63391807 </i>
    <i name="e_wo_entrp">   -876.48837577 </i>
    <i name="e_0_energy">   -875.91873731 </i>
   </energy>
  </scstep>
  <scstep>
   <time name="diag">    1.20    1.20</time>
   <time name="diis">    2.95    2.95</time>
   <time name="orth">    0.25    0.25</time>
   <time name="total">    5.53    5.53</time>
   <energy>
    <i name="e_fr_energy">   -875.63390721 </i>
    <i name="e_wo_entrp">   -876.48849357 </i>
    <i name="e_0_energy">   -875.91876933 </i>
   </energy>
  </scstep>
  <scstep>
   <time name="diag">    1.20    1.20</time>
   <time name="diis">    2.97    2.97</time>
   <time name="orth">    0.24    0.25</time>
   <time name="total">    5.49    5.49</time>
   <energy>
    <i name="e_fr_energy">   -875.63389645 </i>
    <i name="e_wo_entrp">   -876.48861183 </i>
    <i name="e_0_energy">   -875.91880158 </i>
   </energy>
  </scstep>
  <scstep>
   <time name="diag">    1.19    1.20</time>
   <time name="diis">    2.95    2.95</time>
   <time name="orth">    0.26    0.26</time>
   <time name="total">    5.53    5.54</time>
   <energy>
    <i name="e_fr_energy">   -875.63388566 </i>
    <i name="e_wo_entrp">   -876.48872880 </i>
    <i name="e_0_energy">   -875.91883338 </i>
   </energy>
  </scstep>
  <scstep>
   <time name="diag">    1.21    1.21</time>
   <time name="diis">    2.80    2.81</time>
   <time name="orth">    0.26    0.26</time>
   <time name="total">    5.42    5.42</time>
   <energy>
    <i name="e_fr_energy">   -875.63387473 </i>
    <i name="e_wo_entrp">   -876.48884579 </i>
    <i name="e_0_energy">   -875.91886508 </i>
   </energy>
  </scstep>
  <scstep>
   <time name="diag">    1.23    1.23</time>
   <time name="diis">    2.87    2.87</time>
   <time name="orth">    0.26    0.26</time>
   <time name="total">    5.46    5.46</time>
   <energy>
    <i name="e_fr_energy">   -875.63386368 </i>
    <i name="e_wo_entrp">   -876.48896401 </i>
    <i name="e_0_energy">   -875.91889712 </i>
   </energy>
  </scstep>
  <scstep>
   <time name="diag">    1.20    1.20</time>
   <time name="diis">    2.91    2.91</time>
   <time name="orth">    0.26    0.26</time>
   <time name="total">    5.48    5.48</time>
   <energy>
    <i name="e_fr_energy">   -875.63377306 </i>
    <i name="e_wo_entrp">   -876.48980918 </i>
    <i name="e_0_energy">   -875.91911843 </i>
   </energy>
  </scstep>
  <scstep>
   <time name="diag">    1.23    1.23</time>
   <time name="diis">    2.74    2.74</time>
   <time name="orth">    0.26    0.26</time>
   <time name="total">    5.37    5.36</time>
   <energy>
    <i name="e_fr_energy">   -875.63374867 </i>
    <i name="e_wo_entrp">   -876.49001373 </i>
    <i name="e_0_energy">   -875.91917036 </i>
   </energy>
  </scstep>
  <scstep>
   <time name="diag">    1.24    1.24</time>
   <time name="diis">    2.95    2.95</time>
   <time name="orth">    0.25    0.25</time>
   <time name="total">    5.55    5.55</time>
   <energy>
    <i name="e_fr_energy">   -875.63372366 </i>
    <i name="e_wo_entrp">   -876.49023604 </i>
    <i name="e_0_energy">   -875.91922779 </i>
   </energy>
  </scstep>
  <scstep>
   <time name="diag">    1.19    1.19</time>
   <time name="diis">    2.87    2.87</time>
   <time name="orth">    0.26    0.26</time>
   <time name="total">    5.43    5.43</time>
   <energy>
    <i name="e_fr_energy">   -875.63363625 </i>
    <i name="e_wo_entrp">   -876.49104137 </i>
    <i name="e_0_energy">   -875.91943795 </i>
   </energy>
  </scstep>
  <scstep>
   <time name="diag">    1.23    1.23</time>
   <time name="diis">    2.79    2.80</time>
   <time name="orth">    0.25    0.25</time>
   <time name="total">    5.42    5.42</time>
   <energy>
    <i name="e_fr_energy">   -875.63361057 </i>
    <i name="e_wo_entrp">   -876.49125158 </i>
    <i name="e_0_energy">   -875.91949091 </i>
   </energy>
  </scstep>
  <scstep>
   <time name="diag">    1.24    1.24</time>
   <time name="diis">    2.95    2.96</time>
   <time name="orth">    0.26    0.26</time>
   <time name="total">    5.58    5.59</time>
   <energy>
    <i name="e_fr_energy">   -875.63358313 </i>
    <i name="e_wo_entrp">   -876.49148668 </i>
    <i name="e_0_energy">   -875.91955098 </i>
   </energy>
  </scstep>
  <scstep>
   <time name="diag">    1.15    1.15</time>
   <time name="diis">    2.82    2.82</time>
   <time name="orth">    0.26    0.26</time>
   <time name="total">    5.37    5.38</time>
   <energy>
    <i name="e_fr_energy">   -875.63356803 </i>
    <i name="e_wo_entrp">   -876.49161667 </i>
    <i name="e_0_energy">   -875.91958424 </i>
   </energy>
  </scstep>
  <scstep>
   <time name="diag">    1.24    1.24</time>
   <time name="diis">    2.85    2.85</time>
   <time name="orth">    0.24    0.24</time>
   <time name="total">    5.46    5.46</time>
   <energy>
    <i name="e_fr_energy">   -875.63356003 </i>
    <i name="e_wo_entrp">   -876.49168998 </i>
    <i name="e_0_energy">   -875.91960335 </i>
   </energy>
  </scstep>
  <scstep>
   <time name="diag">    1.22    1.22</time>
   <time name="diis">    2.83    2.83</time>
   <time name="orth">    0.26    0.26</time>
   <time name="total">    5.43    5.43</time>
   <energy>
    <i name="e_fr_energy">   -875.63355432 </i>
    <i name="e_wo_entrp">   -876.49174716 </i>
    <i name="e_0_energy">   -875.91961860 </i>
   </energy>
  </scstep>
  <scstep>
   <time name="diag">    1.18    1.18</time>
   <time name="diis">    2.71    2.71</time>
   <time name="orth">    0.26    0.26</time>
   <time name="total">    5.28    5.28</time>
   <energy>
    <i name="e_fr_energy">   -875.63354858 </i>
    <i name="e_wo_entrp">   -876.49180451 </i>
    <i name="e_0_energy">   -875.91963389 </i>
   </energy>
  </scstep>
  <scstep>
   <time name="diag">    1.23    1.23</time>
   <time name="diis">    2.83    2.83</time>
   <time name="orth">    0.25    0.25</time>
   <time name="total">    5.40    5.40</time>
   <energy>
    <i name="e_fr_energy">   -875.63354374 </i>
    <i name="e_wo_entrp">   -876.49185690 </i>
    <i name="e_0_energy">   -875.91964813 </i>
   </energy>
  </scstep>
  <scstep>
   <time name="diag">    1.18    1.18</time>
   <time name="diis">    3.05    3.05</time>
   <time name="orth">    0.25    0.25</time>
   <time name="total">    5.55    5.55</time>
   <energy>
    <i name="e_fr_energy">   -875.63353891 </i>
    <i name="e_wo_entrp">   -876.49191150 </i>
    <i name="e_0_energy">   -875.91966310 </i>
   </energy>
  </scstep>
  <scstep>
   <time name="diag">    1.16    1.16</time>
   <time name="diis">    2.84    2.84</time>
   <time name="orth">    0.25    0.25</time>
   <time name="total">    5.31    5.32</time>
   <energy>
    <i name="e_fr_energy">   -875.63342775 </i>
    <i name="e_wo_entrp">   -876.49292399 </i>
    <i name="e_0_energy">   -875.91992650 </i>
   </energy>
  </scstep>
  <scstep>
   <time name="diag">    1.12    1.12</time>
   <time name="diis">    2.70    2.70</time>
   <time name="orth">    0.25    0.25</time>
   <time name="total">    5.15    5.15</time>
   <energy>
    <i name="e_fr_energy">   -875.63341985 </i>
    <i name="e_wo_entrp">   -876.49296777 </i>
    <i name="e_0_energy">   -875.91993582 </i>
   </energy>
  </scstep>
  <scstep>
   <time name="diag">    1.07    1.07</time>
   <time name="diis">    2.60    2.60</time>
   <time name="orth">    0.24    0.24</time>
   <time name="total">    4.98    4.98</time>
   <energy>
    <i name="e_fr_energy">   -875.63340956 </i>
    <i name="e_wo_entrp">   -876.49305492 </i>
    <i name="e_0_energy">   -875.91995801 </i>
   </energy>
  </scstep>
  <scstep>
   <time name="diag">    1.14    1.14</time>
   <time name="diis">    2.56    2.56</time>
   <time name="orth">    0.24    0.24</time>
   <time name="total">    5.03    5.03</time>
   <energy>
    <i name="e_fr_energy">   -875.63340480 </i>
    <i name="e_wo_entrp">   -876.49309171 </i>
    <i name="e_0_energy">   -875.91996711 </i>
   </energy>
  </scstep>
  <scstep>
   <time name="diag">    1.14    1.14</time>
   <time name="diis">    2.51    2.51</time>
   <time name="orth">    0.23    0.23</time>
   <time name="total">    4.95    4.95</time>
   <energy>
    <i name="e_fr_energy">   -875.63340296 </i>
    <i name="e_wo_entrp">   -876.49310938 </i>
    <i name="e_0_energy">   -875.91997176 </i>
   </energy>
  </scstep>
  <scstep>
   <time name="diag">    1.12    1.12</time>
   <time name="diis">    2.70    2.71</time>
   <time name="orth">    0.25    0.25</time>
   <time name="total">    4.39    4.40</time>
   <energy>
    <i name="alphaZ">   7300.31925852 </i>
    <i name="ewald"> -66232.83996889 </i>
    <i name="hartreedc">  -9297.28919007 </i>
    <i name="XCdc">    358.48131722 </i>
    <i name="pawpsdc">  57922.81392298 </i>
    <i name="pawaedc"> -58869.66607049 </i>
    <i name="eentropy">      0.85971783 </i>
    <i name="bandstr">   3740.01673014 </i>
    <i name="atom">  64201.67088057 </i>
    <i name="e_fr_energy">   -875.63340217 </i>
    <i name="e_wo_entrp">   -876.49312001 </i>
    <i name="e_0_energy">   -875.91997478 </i>
   </energy>
  </scstep>
  <structure>
   <crystal>
    <varray name="basis" >
     <v>      10.33484705       0.00000000       0.00000000 </v>
     <v>       0.00000000      10.33484705       0.00000000 </v>
     <v>       0.00000000       0.00000000      10.33484705 </v>
    </varray>
    <i name="volume">   1103.85533447 </i>
    <varray name="rec_basis" >
     <v>       0.09676002       0.00000000       0.00000000 </v>
     <v>       0.00000000       0.09676002       0.00000000 </v>
     <v>       0.00000000       0.00000000       0.09676002 </v>
    </varray>
   </crystal>
   <varray name="positions" >
    <v>       0.00000000       0.00000000       0.00000000 </v>
    <v>       0.00000000       0.16666893       0.16666893 </v>
    <v>       0.16666893       0.00000000       0.16666893 </v>
    <v>       0.16666893       0.16666893       0.00000000 </v>
    <v>       0.33333106       0.00000000       0.00000000 </v>
    <v>       0.33333107       0.16666893       0.16666893 </v>
    <v>       0.50000000       0.00000000       0.16666894 </v>
    <v>       0.50000000       0.16666894       0.00000000 </v>
    <v>       0.66666897       0.00000000       0.00000000 </v>
    <v>       0.66666896       0.16666893       0.16666893 </v>
    <v>       0.83333104       0.00000000       0.16666893 </v>
    <v>       0.83333104       0.16666893       0.00000000 </v>
    <v>       0.00000000       0.33333106       0.00000000 </v>
    <v>       0.00000000       0.50000000       0.16666894 </v>
    <v>       0.16666893       0.33333107       0.16666893 </v>
    <v>       0.16666894       0.50000000       0.00000000 </v>
    <v>       0.33333107       0.33333107       0.00000000 </v>
    <v>       0.33333107       0.50000000       0.16666893 </v>
    <v>       0.50000000       0.33333107       0.16666893 </v>
    <v>       0.50000000       0.50000000       0.00000000 </v>
    <v>       0.66666896       0.33333107       0.00000000 </v>
    <v>       0.66666896       0.50000000       0.16666893 </v>
    <v>       0.83333104       0.33333107       0.16666893 </v>
    <v>       0.83333103       0.50000000       0.00000000 </v>
    <v>       0.00000000       0.66666897       0.00000000 </v>
    <v>       0.00000000       0.83333104       0.16666893 </v>
    <v>       0.16666893       0.66666896       0.16666893 </v>
    <v>       0.16666893       0.83333104       0.00000000 </v>
    <v>       0.33333107       0.66666896       0.00000000 </v>
    <v>       0.33333107       0.83333104       0.16666893 </v>
    <v>       0.50000000       0.66666896       0.16666893 </v>
    <v>       0.50000000       0.83333103       0.00000000 </v>
    <v>       0.66666896       0.66666896       0.00000000 </v>
    <v>       0.66666896       0.83333104       0.16666893 </v>
    <v>       0.83333104       0.66666896       0.16666893 </v>
    <v>       0.83333104       0.83333104       0.00000000 </v>
    <v>       0.00000000       0.00000000       0.33333106 </v>
    <v>       0.00000000       0.16666894       0.50000000 </v>
    <v>       0.16666894       0.00000000       0.50000000 </v>
    <v>       0.16666893       0.16666893       0.33333107 </v>
    <v>       0.33333107       0.00000000       0.33333107 </v>
    <v>       0.33333107       0.16666893       0.50000000 </v>
    <v>       0.50000000       0.00000000       0.50000000 </v>
    <v>       0.50000000       0.16666893       0.33333107 </v>
    <v>       0.66666896       0.00000000       0.33333107 </v>
    <v>       0.66666896       0.16666893       0.50000000 </v>
    <v>       0.83333103       0.00000000       0.50000000 </v>
    <v>       0.83333104       0.16666893       0.33333107 </v>
    <v>       0.00000000       0.33333107       0.33333107 </v>
    <v>       0.00000000       0.50000000       0.50000000 </v>
    <v>       0.16666893       0.33333107       0.50000000 </v>
    <v>       0.16666893       0.50000000       0.33333107 </v>
    <v>       0.33333107       0.33333107       0.33333107 </v>
    <v>       0.33333106       0.50000000       0.50000000 </v>
    <v>       0.50000000       0.33333106       0.50000000 </v>
    <v>       0.50000000       0.50000000       0.33333106 </v>
    <v>       0.66666896       0.33333107       0.33333107 </v>
    <v>       0.66666897       0.50000000       0.50000000 </v>
    <v>       0.83333104       0.33333107       0.50000000 </v>
    <v>       0.83333104       0.50000000       0.33333107 </v>
    <v>       0.00000000       0.66666896       0.33333107 </v>
    <v>       0.00000000       0.83333103       0.50000000 </v>
    <v>       0.16666893       0.66666896       0.50000000 </v>
    <v>       0.16666893       0.83333104       0.33333107 </v>
    <v>       0.33333107       0.66666896       0.33333107 </v>
    <v>       0.33333107       0.83333104       0.50000000 </v>
    <v>       0.50000000       0.66666897       0.50000000 </v>
    <v>       0.50000000       0.83333104       0.33333107 </v>
    <v>       0.66666896       0.66666896       0.33333107 </v>
    <v>       0.66666896       0.83333104       0.50000000 </v>
    <v>       0.83333104       0.66666896       0.50000000 </v>
    <v>       0.83333104       0.83333104       0.33333107 </v>
    <v>       0.00000000       0.00000000       0.66666897 </v>
    <v>       0.00000000       0.16666893       0.83333104 </v>
    <v>       0.16666893       0.00000000       0.83333104 </v>
    <v>       0.16666893       0.16666893       0.66666896 </v>
    <v>       0.33333107       0.00000000       0.66666896 </v>
    <v>       0.33333107       0.16666893       0.83333104 </v>
    <v>       0.50000000       0.00000000       0.83333103 </v>
    <v>       0.50000000       0.16666893       0.66666896 </v>
    <v>       0.66666896       0.00000000       0.66666896 </v>
    <v>       0.66666896       0.16666893       0.83333104 </v>
    <v>       0.83333104       0.00000000       0.83333104 </v>
    <v>       0.83333104       0.16666893       0.66666896 </v>
    <v>       0.00000000       0.33333107       0.66666896 </v>
    <v>       0.00000000       0.50000000       0.83333103 </v>
    <v>       0.16666893       0.33333107       0.83333104 </v>
    <v>       0.16666893       0.50000000       0.66666896 </v>
    <v>       0.33333107       0.33333107       0.66666896 </v>
    <v>       0.33333107       0.50000000       0.83333104 </v>
    <v>       0.50000000       0.33333107       0.83333104 </v>
    <v>       0.50000000       0.50000000       0.66666897 </v>
    <v>       0.66666896       0.33333107       0.66666896 </v>
    <v>       0.66666896       0.50000000       0.83333104 </v>
    <v>       0.83333104       0.33333107       0.83333104 </v>
    <v>       0.83333104       0.50000000       0.66666896 </v>
    <v>       0.00000000       0.66666896       0.66666896 </v>
    <v>       0.00000000       0.83333104       0.83333104 </v>
    <v>       0.16666893       0.66666896       0.83333104 </v>
    <v>       0.16666893       0.83333104       0.66666896 </v>
    <v>       0.33333107       0.66666896       0.66666896 </v>
    <v>       0.33333107       0.83333104       0.83333104 </v>
    <v>       0.50000000       0.66666896       0.83333104 </v>
    <v>       0.50000000       0.83333104       0.66666896 </v>
    <v>       0.66666896       0.66666896       0.66666896 </v>
    <v>       0.66666896       0.83333104       0.83333104 </v>
    <v>       0.83333104       0.66666896       0.83333104 </v>
    <v>       0.83333104       0.83333104       0.66666896 </v>
   </varray>
  </structure>
  <varray name="forces" >
   <v>       0.00000000      -0.00000000       0.00000000 </v>
   <v>      -0.00000000       0.00000000      -0.00000000 </v>
   <v>       0.00000000      -0.00000000      -0.00000000 </v>
   <v>      -0.00000000      -0.00000000      -0.00000000 </v>
   <v>      -0.00000000       0.00000000       0.00000000 </v>
   <v>       0.00000000      -0.00000000      -0.00000000 </v>
   <v>       0.00000000       0.00000000      -0.00000000 </v>
   <v>       0.00000000       0.00000000      -0.00000000 </v>
   <v>      -0.00000000      -0.00000000       0.00000000 </v>
   <v>      -0.00000000       0.00000000       0.00000000 </v>
   <v>       0.00000000       0.00000000       0.00000000 </v>
   <v>       0.00000000      -0.00000000       0.00000000 </v>
   <v>      -0.00000000       0.00000000       0.00000000 </v>
   <v>      -0.00000000      -0.00000000      -0.00000000 </v>
   <v>       0.00000000       0.00000000      -0.00000000 </v>
   <v>       0.00000000       0.00000000       0.00000000 </v>
   <v>      -0.00000000      -0.00000000      -0.00000000 </v>
   <v>       0.00000000      -0.00000000       0.00000000 </v>
   <v>       0.00000000      -0.00000000       0.00000000 </v>
   <v>      -0.00000000       0.00000000      -0.00000000 </v>
   <v>       0.00000000      -0.00000000      -0.00000000 </v>
   <v>       0.00000000       0.00000000       0.00000000 </v>
   <v>      -0.00000000       0.00000000      -0.00000000 </v>
   <v>       0.00000000      -0.00000000       0.00000000 </v>
   <v>       0.00000000      -0.00000000       0.00000000 </v>
   <v>      -0.00000000      -0.00000000       0.00000000 </v>
   <v>      -0.00000000       0.00000000      -0.00000000 </v>
   <v>      -0.00000000       0.00000000      -0.00000000 </v>
   <v>      -0.00000000       0.00000000      -0.00000000 </v>
   <v>       0.00000000      -0.00000000      -0.00000000 </v>
   <v>      -0.00000000      -0.00000000       0.00000000 </v>
   <v>      -0.00000000       0.00000000      -0.00000000 </v>
   <v>      -0.00000000       0.00000000      -0.00000000 </v>
   <v>      -0.00000000      -0.00000000       0.00000000 </v>
   <v>       0.00000000      -0.00000000      -0.00000000 </v>
   <v>      -0.00000000       0.00000000      -0.00000000 </v>
   <v>      -0.00000000      -0.00000000      -0.00000000 </v>
   <v>      -0.00000000       0.00000000      -0.00000000 </v>
   <v>      -0.00000000       0.00000000      -0.00000000 </v>
   <v>       0.00000000       0.00000000       0.00000000 </v>
   <v>      -0.00000000       0.00000000      -0.00000000 </v>
   <v>      -0.00000000       0.00000000      -0.00000000 </v>
   <v>      -0.00000000       0.00000000      -0.00000000 </v>
   <v>       0.00000000      -0.00000000       0.00000000 </v>
   <v>       0.00000000      -0.00000000      -0.00000000 </v>
   <v>       0.00000000       0.00000000      -0.00000000 </v>
   <v>      -0.00000000       0.00000000      -0.00000000 </v>
   <v>      -0.00000000       0.00000000      -0.00000000 </v>
   <v>      -0.00000000       0.00000000      -0.00000000 </v>
   <v>       0.00000000      -0.00000000      -0.00000000 </v>
   <v>       0.00000000       0.00000000       0.00000000 </v>
   <v>       0.00000000       0.00000000       0.00000000 </v>
   <v>      -0.00000000      -0.00000000      -0.00000000 </v>
   <v>      -0.00000000      -0.00000000      -0.00000000 </v>
   <v>       0.00000000      -0.00000000       0.00000000 </v>
   <v>       0.00000000       0.00000000      -0.00000000 </v>
   <v>      -0.00000000      -0.00000000      -0.00000000 </v>
   <v>      -0.00000000      -0.00000000       0.00000000 </v>
   <v>      -0.00000000      -0.00000000       0.00000000 </v>
   <v>      -0.00000000       0.00000000      -0.00000000 </v>
   <v>       0.00000000      -0.00000000      -0.00000000 </v>
   <v>       0.00000000      -0.00000000       0.00000000 </v>
   <v>      -0.00000000      -0.00000000      -0.00000000 </v>
   <v>       0.00000000       0.00000000       0.00000000 </v>
   <v>      -0.00000000       0.00000000      -0.00000000 </v>
   <v>      -0.00000000       0.00000000      -0.00000000 </v>
   <v>      -0.00000000       0.00000000       0.00000000 </v>
   <v>       0.00000000      -0.00000000      -0.00000000 </v>
   <v>      -0.00000000       0.00000000       0.00000000 </v>
   <v>       0.00000000      -0.00000000       0.00000000 </v>
   <v>      -0.00000000       0.00000000      -0.00000000 </v>
   <v>      -0.00000000       0.00000000       0.00000000 </v>
   <v>      -0.00000000      -0.00000000       0.00000000 </v>
   <v>       0.00000000      -0.00000000      -0.00000000 </v>
   <v>       0.00000000      -0.00000000      -0.00000000 </v>
   <v>       0.00000000      -0.00000000       0.00000000 </v>
   <v>      -0.00000000       0.00000000       0.00000000 </v>
   <v>       0.00000000      -0.00000000       0.00000000 </v>
   <v>       0.00000000       0.00000000       0.00000000 </v>
   <v>       0.00000000      -0.00000000      -0.00000000 </v>
   <v>       0.00000000       0.00000000      -0.00000000 </v>
   <v>       0.00000000       0.00000000      -0.00000000 </v>
   <v>       0.00000000       0.00000000       0.00000000 </v>
   <v>      -0.00000000       0.00000000      -0.00000000 </v>
   <v>      -0.00000000       0.00000000       0.00000000 </v>
   <v>       0.00000000      -0.00000000       0.00000000 </v>
   <v>      -0.00000000       0.00000000       0.00000000 </v>
   <v>       0.00000000      -0.00000000       0.00000000 </v>
   <v>       0.00000000       0.00000000      -0.00000000 </v>
   <v>      -0.00000000       0.00000000      -0.00000000 </v>
   <v>      -0.00000000       0.00000000      -0.00000000 </v>
   <v>      -0.00000000       0.00000000      -0.00000000 </v>
   <v>       0.00000000      -0.00000000       0.00000000 </v>
   <v>       0.00000000       0.00000000      -0.00000000 </v>
   <v>      -0.00000000      -0.00000000      -0.00000000 </v>
   <v>      -0.00000000      -0.00000000       0.00000000 </v>
   <v>      -0.00000000       0.00000000       0.00000000 </v>
   <v>       0.00000000      -0.00000000      -0.00000000 </v>
   <v>       0.00000000      -0.00000000       0.00000000 </v>
   <v>       0.00000000       0.00000000      -0.00000000 </v>
   <v>       0.00000000      -0.00000000       0.00000000 </v>
   <v>      -0.00000000       0.00000000       0.00000000 </v>
   <v>      -0.00000000       0.00000000      -0.00000000 </v>
   <v>      -0.00000000      -0.00000000       0.00000000 </v>
   <v>      -0.00000000       0.00000000      -0.00000000 </v>
   <v>       0.00000000      -0.00000000      -0.00000000 </v>
   <v>      -0.00000000       0.00000000      -0.00000000 </v>
   <v>      -0.00000000       0.00000000       0.00000000 </v>
  </varray>
  <varray name="stress" >
   <v>      11.96230358       0.00000000      -0.00000000 </v>
   <v>      -0.00000000      11.96230358       0.00000000 </v>
   <v>      -0.00000000      -0.00000000      11.96230358 </v>
  </varray>
  <energy>
   <i name="e_fr_energy">   -875.63340217 </i>
   <i name="e_wo_entrp">   -875.91997478 </i>
   <i name="e_0_energy">      0.85971783 </i>
  </energy>
  <time name="totalsc">  443.90  444.12</time>
 </calculation>
 <calculation>
  <scstep>
   <time name="dav">    9.30    9.30</time>
   <time name="total">   10.37   10.37</time>
   <energy>
    <i name="alphaZ">   7220.28110392 </i>
    <i name="ewald"> -65989.89869909 </i>
    <i name="hartreedc">  -9263.18701928 </i>
    <i name="XCdc">    347.60903023 </i>
    <i name="pawpsdc">  57922.81325999 </i>
    <i name="pawaedc"> -58869.66568957 </i>
    <i name="eentropy">      0.63007316 </i>
    <i name="bandstr">   3553.21092473 </i>
    <i name="atom">  64201.67088057 </i>
    <i name="e_fr_energy">   -876.53613534 </i>
    <i name="e_wo_entrp">   -877.16620850 </i>
    <i name="e_0_energy">   -876.74615972 </i>
   </energy>
  </scstep>
  <scstep>
   <time name="diag">    1.16    1.16</time>
   <time name="diis">    5.34    5.34</time>
   <time name="orth">    0.24    0.24</time>
   <time name="total">    7.81    7.81</time>
   <energy>
    <i name="e_fr_energy">   -875.62321842 </i>
    <i name="e_wo_entrp">   -876.46515232 </i>
    <i name="e_0_energy">   -875.90386305 </i>
   </energy>
  </scstep>
  <scstep>
   <time name="diag">    1.15    1.15</time>
   <time name="diis">    5.87    5.87</time>
   <time name="orth">    0.23    0.23</time>
   <time name="total">    8.34    8.34</time>
   <energy>
    <i name="e_fr_energy">   -875.62580031 </i>
    <i name="e_wo_entrp">   -876.46219854 </i>
    <i name="e_0_energy">   -875.90459972 </i>
   </energy>
  </scstep>
  <scstep>
   <time name="diag">    1.15    1.15</time>
   <time name="diis">    5.22    5.22</time>
   <time name="orth">    0.23    0.23</time>
   <time name="total">    7.66    7.66</time>
   <energy>
    <i name="e_fr_energy">   -875.61537749 </i>
    <i name="e_wo_entrp">   -876.43819639 </i>
    <i name="e_0_energy">   -875.88965046 </i>
   </energy>
  </scstep>
  <scstep>
   <time name="diag">    1.13    1.13</time>
   <time name="diis">    5.25    5.25</time>
   <time name="orth">    0.23    0.23</time>
   <time name="total">    7.66    7.66</time>
   <energy>
    <i name="e_fr_energy">   -875.61882007 </i>
    <i name="e_wo_entrp">   -876.44664204 </i>
    <i name="e_0_energy">   -875.89476073 </i>
   </energy>
  </scstep>
  <scstep>
   <time name="diag">    1.12    1.12</time>
   <time name="diis">    5.20    5.20</time>
   <time name="orth">    0.23    0.23</time>
   <time name="total">    7.61    7.61</time>
   <energy>
    <i name="e_fr_energy">   -875.60473521 </i>
    <i name="e_wo_entrp">   -876.43673884 </i>
    <i name="e_0_energy">   -875.88206975 </i>
   </energy>
  </scstep>
  <scstep>
   <time name="diag">    1.12    1.12</time>
   <time name="diis">    5.40    5.40</time>
   <time name="orth">    0.23    0.23</time>
   <time name="total">    7.81    7.81</time>
   <energy>
    <i name="e_fr_energy">   -875.60419336 </i>
    <i name="e_wo_entrp">   -876.43512569 </i>
    <i name="e_0_energy">   -875.88117080 </i>
   </energy>
  </scstep>
  <scstep>
   <time name="diag">    1.11    1.11</time>
   <time name="diis">    5.46    5.46</time>
   <time name="orth">    0.23    0.23</time>
   <time name="total">    7.83    7.83</time>
   <energy>
    <i name="e_fr_energy">   -875.60412373 </i>
    <i name="e_wo_entrp">   -876.43477769 </i>
    <i name="e_0_energy">   -875.88100838 </i>
   </energy>
  </scstep>
  <scstep>
   <time name="diag">    1.06    1.07</time>
   <time name="diis">    5.34    5.34</time>
   <time name="orth">    0.25    0.25</time>
   <time name="total">    7.69    7.70</time>
   <energy>
    <i name="e_fr_energy">   -875.60408267 </i>
    <i name="e_wo_entrp">   -876.43462275 </i>
    <i name="e_0_energy">   -875.88092937 </i>
   </energy>
  </scstep>
  <scstep>
   <time name="diag">    1.03    1.03</time>
   <time name="diis">    5.08    5.08</time>
   <time name="orth">    0.23    0.23</time>
   <time name="total">    7.39    7.39</time>
   <energy>
    <i name="e_fr_energy">   -875.60409409 </i>
    <i name="e_wo_entrp">   -876.43436951 </i>
    <i name="e_0_energy">   -875.88085256 </i>
   </energy>
  </scstep>
  <scstep>
   <time name="diag">    1.10    1.10</time>
   <time name="diis">    5.30    5.30</time>
   <time name="orth">    0.23    0.23</time>
   <time name="total">    7.66    7.66</time>
   <energy>
    <i name="e_fr_energy">   -875.60410041 </i>
    <i name="e_wo_entrp">   -876.43440088 </i>
    <i name="e_0_energy">   -875.88086723 </i>
   </energy>
  </scstep>
  <scstep>
   <time name="diag">    1.08    1.08</time>
   <time name="diis">    4.07    4.07</time>
   <time name="orth">    0.26    0.26</time>
   <time name="total">    6.52    6.53</time>
   <energy>
    <i name="e_fr_energy">   -875.60409401 </i>
    <i name="e_wo_entrp">   -876.43442931 </i>
    <i name="e_0_energy">   -875.88087244 </i>
   </energy>
  </scstep>
  <scstep>
   <time name="diag">    1.29    1.29</time>
   <time name="diis">    4.95    4.96</time>
   <time name="orth">    0.26    0.26</time>
   <time name="total">    7.66    7.68</time>
   <energy>
    <i name="e_fr_energy">   -875.60409194 </i>
    <i name="e_wo_entrp">   -876.43447774 </i>
    <i name="e_0_energy">   -875.88088721 </i>
   </energy>
  </scstep>
  <scstep>
   <time name="diag">    1.29    1.29</time>
   <time name="diis">    3.60    3.60</time>
   <time name="orth">    0.26    0.26</time>
   <time name="total">    6.31    6.31</time>
   <energy>
    <i name="e_fr_energy">   -875.60409066 </i>
    <i name="e_wo_entrp">   -876.43449499 </i>
    <i name="e_0_energy">   -875.88089210 </i>
   </energy>
  </scstep>
  <scstep>
   <time name="diag">    1.29    1.29</time>
   <time name="diis">    3.50    3.51</time>
   <time name="orth">    0.26    0.26</time>
   <time name="total">    5.41    5.41</time>
   <energy>
    <i name="alphaZ">   7220.28110392 </i>
    <i name="ewald"> -65989.89869909 </i>
    <i name="hartreedc">  -9384.10480830 </i>
    <i name="XCdc">    354.73678997 </i>
    <i name="pawpsdc">  57630.73296985 </i>
    <i name="pawaedc"> -58572.00761717 </i>
    <i name="eentropy">      0.83041158 </i>
    <i name="bandstr">   3662.15487878 </i>
    <i name="atom">  64201.67088057 </i>
    <i name="e_fr_energy">   -875.60408988 </i>
    <i name="e_wo_entrp">   -876.43450146 </i>
    <i name="e_0_energy">   -875.88089374 </i>
   </energy>
  </scstep>
  <structure>
   <crystal>
    <varray name="basis" >
     <v>      10.37289470       0.00000000      -0.00000000 </v>
     <v>      -0.00000000      10.37289470       0.00000000 </v>
     <v>      -0.00000000      -0.00000000      10.37289470 </v>
    </varray>
    <i name="volume">   1116.09177550 </i>
    <varray name="rec_basis" >
     <v>       0.09640510       0.00000000       0.00000000 </v>
     <v>      -0.00000000       0.09640510       0.00000000 </v>
     <v>       0.00000000       0.00000000       0.09640510 </v>
    </varray>
   </crystal>
   <varray name="positions" >
    <v>       0.00000000      -0.00000000       0.00000000 </v>
    <v>      -0.00000000       0.16666893       0.16666893 </v>
    <v>       0.16666893      -0.00000000       0.16666893 </v>
    <v>       0.16666893       0.16666893      -0.00000000 </v>
    <v>       0.33333106       0.00000000       0.00000000 </v>
    <v>       0.33333107       0.16666893       0.16666893 </v>
    <v>       0.50000000       0.00000000       0.16666894 </v>
    <v>       0.50000000       0.16666894      -0.00000000 </v>
    <v>       0.66666897      -0.00000000       0.00000000 </v>
    <v>       0.66666896       0.16666893       0.16666893 </v>
    <v>       0.83333104       0.00000000       0.16666893 </v>
    <v>       0.83333104       0.16666893       0.00000000 </v>
    <v>      -0.00000000       0.33333106       0.00000000 </v>
    <v>      -0.00000000       0.50000000       0.16666894 </v>
    <v>       0.16666893       0.33333107       0.16666893 </v>
    <v>       0.16666894       0.50000000       0.00000000 </v>
    <v>       0.33333107       0.33333107      -0.00000000 </v>
    <v>       0.33333107       0.50000000       0.16666893 </v>
    <v>       0.50000000       0.33333107       0.16666893 </v>
    <v>       0.50000000       0.50000000      -0.00000000 </v>
    <v>       0.66666896       0.33333107      -0.00000000 </v>
    <v>       0.66666896       0.50000000       0.16666893 </v>
    <v>       0.83333104       0.33333107       0.16666893 </v>
    <v>       0.83333103       0.50000000       0.00000000 </v>
    <v>       0.00000000       0.66666897       0.00000000 </v>
    <v>      -0.00000000       0.83333104       0.16666893 </v>
    <v>       0.16666893       0.66666896       0.16666893 </v>
    <v>       0.16666893       0.83333104      -0.00000000 </v>
    <v>       0.33333107       0.66666896      -0.00000000 </v>
    <v>       0.33333107       0.83333104       0.16666893 </v>
    <v>       0.50000000       0.66666896       0.16666893 </v>
    <v>       0.50000000       0.83333103      -0.00000000 </v>
    <v>       0.66666896       0.66666896      -0.00000000 </v>
    <v>       0.66666896       0.83333104       0.16666893 </v>
    <v>       0.83333104       0.66666896       0.16666893 </v>
    <v>       0.83333104       0.83333104      -0.00000000 </v>
    <v>      -0.00000000      -0.00000000       0.33333106 </v>
    <v>      -0.00000000       0.16666894       0.50000000 </v>
    <v>       0.16666894       0.00000000       0.50000000 </v>
    <v>       0.16666893       0.16666893       0.33333107 </v>
    <v>       0.33333107       0.00000000       0.33333107 </v>
    <v>       0.33333107       0.16666893       0.50000000 </v>
    <v>       0.50000000       0.00000000       0.50000000 </v>
    <v>       0.50000000       0.16666893       0.33333107 </v>
    <v>       0.66666896      -0.00000000       0.33333107 </v>
    <v>       0.66666896       0.16666893       0.50000000 </v>
    <v>       0.83333103       0.00000000       0.50000000 </v>
    <v>       0.83333104       0.16666893       0.33333107 </v>
    <v>      -0.00000000       0.33333107       0.33333107 </v>
    <v>       0.00000000       0.50000000       0.50000000 </v>
    <v>       0.16666893       0.33333107       0.50000000 </v>
    <v>       0.16666893       0.50000000       0.33333107 </v>
    <v>       0.33333107       0.33333107       0.33333107 </v>
    <v>       0.33333106       0.50000000       0.50000000 </v>
    <v>       0.50000000       0.33333106       0.50000000 </v>
    <v>       0.50000000       0.50000000       0.33333106 </v>
    <v>       0.66666896       0.33333107       0.33333107 </v>
    <v>       0.66666897       0.50000000       0.50000000 </v>
    <v>       0.83333104       0.33333107       0.50000000 </v>
    <v>       0.83333104       0.50000000       0.33333107 </v>
    <v>       0.00000000       0.66666896       0.33333107 </v>
    <v>       0.00000000       0.83333103       0.50000000 </v>
    <v>       0.16666893       0.66666896       0.50000000 </v>
    <v>       0.16666893       0.83333104       0.33333107 </v>
    <v>       0.33333107       0.66666896       0.33333107 </v>
    <v>       0.33333107       0.83333104       0.50000000 </v>
    <v>       0.50000000       0.66666897       0.50000000 </v>
    <v>       0.50000000       0.83333104       0.33333107 </v>
    <v>       0.66666896       0.66666896       0.33333107 </v>
    <v>       0.66666896       0.83333104       0.50000000 </v>
    <v>       0.83333104       0.66666896       0.50000000 </v>
    <v>       0.83333104       0.83333104       0.33333107 </v>
    <v>      -0.00000000      -0.00000000       0.66666897 </v>
    <v>       0.00000000       0.16666893       0.83333104 </v>
    <v>       0.16666893      -0.00000000       0.83333104 </v>
    <v>       0.16666893       0.16666893       0.66666896 </v>
    <v>       0.33333107       0.00000000       0.66666896 </v>
    <v>       0.33333107       0.16666893       0.83333104 </v>
    <v>       0.50000000       0.00000000       0.83333103 </v>
    <v>       0.50000000       0.16666893       0.66666896 </v>
    <v>       0.66666896       0.00000000       0.66666896 </v>
    <v>       0.66666896       0.16666893       0.83333104 </v>
    <v>       0.83333104       0.00000000       0.83333104 </v>
    <v>       0.83333104       0.16666893       0.66666896 </v>
    <v>      -0.00000000       0.33333107       0.66666896 </v>
    <v>       0.00000000       0.50000000       0.83333103 </v>
    <v>       0.16666893       0.33333107       0.83333104 </v>
    <v>       0.16666893       0.50000000       0.66666896 </v>
    <v>       0.33333107       0.33333107       0.66666896 </v>
    <v>       0.33333107       0.50000000       0.83333104 </v>
    <v>       0.50000000       0.33333107       0.83333104 </v>
    <v>       0.50000000       0.50000000       0.66666897 </v>
    <v>       0.66666896       0.33333107       0.66666896 </v>
    <v>       0.66666896       0.50000000       0.83333104 </v>
    <v>       0.83333104       0.33333107       0.83333104 </v>
    <v>       0.83333104       0.50000000       0.66666896 </v>
    <v>      -0.00000000       0.66666896       0.66666896 </v>
    <v>       0.00000000       0.83333104       0.83333104 </v>
    <v>       0.16666893       0.66666896       0.83333104 </v>
    <v>       0.16666893       0.83333104       0.66666896 </v>
    <v>       0.33333107       0.66666896       0.66666896 </v>
    <v>       0.33333107       0.83333104       0.83333104 </v>
    <v>       0.50000000       0.66666896       0.83333104 </v>
    <v>       0.50000000       0.83333104       0.66666896 </v>
    <v>       0.66666896       0.66666896       0.66666896 </v>
    <v>       0.66666896       0.83333104       0.83333104 </v>
    <v>       0.83333104       0.66666896       0.83333104 </v>
    <v>       0.83333104       0.83333104       0.66666896 </v>
   </varray>
  </structure>
  <varray name="forces" >
[...]
       <r>    -1.9083     5.8286     1.8183 </r>
       <r>    -1.8633     3.6115     1.9808 </r>
       <r>    -1.8183     1.6552     2.0553 </r>
       <r>    -1.7733     0.3418     2.0707 </r>
       <r>    -1.7283    -0.2963     2.0574 </r>
       <r>    -1.6833    -0.4535     2.0370 </r>
       <r>    -1.6383    -0.3741     2.0201 </r>
       <r>    -1.5933    -0.2359     2.0095 </r>
       <r>    -1.5482    -0.1235     2.0039 </r>
       <r>    -1.5032    -0.0554     2.0015 </r>
       <r>    -1.4582    -0.0217     2.0005 </r>
       <r>    -1.4132    -0.0075     2.0001 </r>
       <r>    -1.3682    -0.0023     2.0000 </r>
       <r>    -1.3232    -0.0007     2.0000 </r>
       <r>    -1.2782    -0.0004     2.0000 </r>
       <r>    -1.2332    -0.0011     1.9999 </r>
       <r>    -1.1882    -0.0042     1.9998 </r>
       <r>    -1.1432    -0.0152     1.9991 </r>
       <r>    -1.0982    -0.0492     1.9969 </r>
       <r>    -1.0532    -0.1413     1.9905 </r>
       <r>    -1.0082    -0.3569     1.9744 </r>
       <r>    -0.9632    -0.7857     1.9391 </r>
       <r>    -0.9182    -1.4810     1.8724 </r>
       <r>    -0.8732    -2.3073     1.7686 </r>
       <r>    -0.8282    -2.7154     1.6464 </r>
       <r>    -0.7831    -1.5936     1.5746 </r>
       <r>    -0.7381     2.5328     1.6886 </r>
       <r>    -0.6931    10.7605     2.1729 </r>
       <r>    -0.6481    22.7408     3.1964 </r>
       <r>    -0.6031    36.0088     4.8170 </r>
       <r>    -0.5581    46.5121     6.9103 </r>
       <r>    -0.5131    50.4195     9.1795 </r>
       <r>    -0.4681    46.1970    11.2587 </r>
       <r>    -0.4231    35.4999    12.8564 </r>
       <r>    -0.3781    22.2116    13.8560 </r>
       <r>    -0.3331    10.3489    14.3218 </r>
       <r>    -0.2881     2.2921    14.4249 </r>
       <r>    -0.2431    -1.6866    14.3490 </r>
       <r>    -0.1981    -2.7193    14.2266 </r>
       <r>    -0.1531    -2.2767    14.1242 </r>
       <r>    -0.1081    -1.4486    14.0590 </r>
       <r>    -0.0631    -0.7634    14.0246 </r>
       <r>    -0.0180    -0.3449    14.0091 </r>
       <r>     0.0270    -0.1366    14.0029 </r>
       <r>     0.0720    -0.0509    14.0007 </r>
       <r>     0.1170    -0.0296    13.9993 </r>
       <r>     0.1620    -0.0562    13.9968 </r>
       <r>     0.2070    -0.1615    13.9895 </r>
       <r>     0.2520    -0.4359    13.9699 </r>
       <r>     0.2970    -1.0364    13.9233 </r>
       <r>     0.3420    -2.1336    13.8272 </r>
       <r>     0.3870    -3.7141    13.6601 </r>
       <r>     0.4320    -5.1918    13.4264 </r>
       <r>     0.4770    -4.9711    13.2027 </r>
       <r>     0.5220    -0.3910    13.1851 </r>
       <r>     0.5670    11.4030    13.6983 </r>
       <r>     0.6120    31.5633    15.1188 </r>
       <r>     0.6570    57.5393    17.7085 </r>
       <r>     0.7020    82.6664    21.4289 </r>
       <r>     0.7471    98.4870    25.8614 </r>
       <r>     0.7921    98.9589    30.3152 </r>
       <r>     0.8371    83.8525    34.0890 </r>
       <r>     0.8821    58.8503    36.7377 </r>
       <r>     0.9271    32.2772    38.1903 </r>
       <r>     0.9721    10.8877    38.6803 </r>
       <r>     1.0171    -2.4776    38.5688 </r>
       <r>     1.0621    -8.3611    38.1925 </r>
       <r>     1.1071    -8.4492    37.8123 </r>
       <r>     1.1521    -3.6343    37.6487 </r>
       <r>     1.1971     6.2799    37.9313 </r>
       <r>     1.2421    21.2581    38.8881 </r>
       <r>     1.2871    39.3035    40.6570 </r>
       <r>     1.3321    55.9070    43.1731 </r>
       <r>     1.3771    65.5201    46.1219 </r>
       <r>     1.4221    64.3511    49.0181 </r>
       <r>     1.4671    52.6046    51.3856 </r>
       <r>     1.5122    34.5907    52.9424 </r>
       <r>     1.5572    16.7566    53.6965 </r>
       <r>     1.6022     5.1065    53.9264 </r>
       <r>     1.6472     3.4090    54.0798 </r>
       <r>     1.6922    12.4548    54.6403 </r>
       <r>     1.7372    29.8743    55.9849 </r>
       <r>     1.7822    50.4075    58.2535 </r>
       <r>     1.8272    67.1695    61.2765 </r>
       <r>     1.8722    74.1423    64.6134 </r>
       <r>     1.9172    68.8699    67.7129 </r>
       <r>     1.9622    53.5690    70.1239 </r>
       <r>     2.0072    33.7058    71.6408 </r>
       <r>     2.0522    14.9420    72.3133 </r>
       <r>     2.0972     0.5234    72.3369 </r>
       <r>     2.1422    -9.2880    71.9188 </r>
       <r>     2.1872   -15.6158    71.2160 </r>
       <r>     2.2323   -18.3394    70.3907 </r>
       <r>     2.2773   -14.0719    69.7573 </r>
       <r>     2.3223     3.6974    69.9237 </r>
       <r>     2.3673    41.4510    71.7893 </r>
       <r>     2.4123   100.3532    76.3058 </r>
       <r>     2.4573   171.9577    84.0449 </r>
       <r>     2.5023   238.9206    94.7977 </r>
       <r>     2.5473   282.2689   107.5015 </r>
       <r>     2.5923   291.7639   120.6326 </r>
       <r>     2.6373   272.2899   132.8873 </r>
       <r>     2.6823   240.8809   143.7284 </r>
       <r>     2.7273   215.6085   153.4321 </r>
       <r>     2.7723   204.0524   162.6156 </r>
       <r>     2.8173   199.8249   171.6089 </r>
       <r>     2.8623   189.5463   180.1397 </r>
       <r>     2.9073   164.5980   187.5476 </r>
       <r>     2.9523   128.6522   193.3377 </r>
       <r>     2.9974    95.9016   197.6538 </r>
       <r>     3.0424    82.1369   201.3505 </r>
       <r>     3.0874    95.1623   205.6333 </r>
       <r>     3.1324   130.0918   211.4882 </r>
       <r>     3.1774   171.3859   219.2016 </r>
       <r>     3.2224   200.3263   228.2175 </r>
       <r>     3.2674   204.6306   237.4271 </r>
       <r>     3.3124   185.5482   245.7779 </r>
       <r>     3.3574   157.9960   252.8886 </r>
       <r>     3.4024   142.5610   259.3047 </r>
       <r>     3.4474   153.3971   266.2085 </r>
       <r>     3.4924   189.2914   274.7278 </r>
       <r>     3.5374   233.5584   285.2393 </r>
       <r>     3.5824   262.9052   297.0716 </r>
       <r>     3.6274   259.8621   308.7669 </r>
       <r>     3.6724   221.4050   318.7315 </r>
       <r>     3.7174   159.1090   325.8923 </r>
       <r>     3.7625    91.6569   330.0174 </r>
       <r>     3.8075    35.0962   331.5970 </r>
       <r>     3.8525    -3.1473   331.4553 </r>
       <r>     3.8975   -23.8049   330.3840 </r>
       <r>     3.9425   -30.5635   329.0084 </r>
       <r>     3.9875   -24.3705   327.9116 </r>
       <r>     4.0325    -1.2596   327.8549 </r>
       <r>     4.0775    44.5264   329.8589 </r>
       <r>     4.1225   113.6426   334.9735 </r>
       <r>     4.1675   195.6826   343.7804 </r>
       <r>     4.2125   269.6792   355.9175 </r>
       <r>     4.2575   313.0491   370.0066 </r>
       <r>     4.3025   314.3659   384.1549 </r>
       <r>     4.3475   280.9725   396.8004 </r>
       <r>     4.3925   235.0263   407.3780 </r>
       <r>     4.4375   200.0000   416.3792 </r>
       <r>     4.4825   187.0762   424.7987 </r>
       <r>     4.5276   190.8964   433.3902 </r>
       <r>     4.5726   196.6857   442.2422 </r>
       <r>     4.6176   192.1502   450.8901 </r>
       <r>     4.6626   174.8332   458.7587 </r>
       <r>     4.7076   150.6619   465.5393 </r>
       <r>     4.7526   127.1941   471.2638 </r>
       <r>     4.7976   108.5431   476.1489 </r>
       <r>     4.8426    95.7704   480.4592 </r>
       <r>     4.8876    90.7998   484.5457 </r>
       <r>     4.9326    99.1683   489.0089 </r>
       <r>     4.9776   128.6142   494.7973 </r>
       <r>     5.0226   183.9755   503.0773 </r>
       <r>     5.0676   261.4426   514.8437 </r>
       <r>     5.1126   346.0091   530.4162 </r>
       <r>     5.1576   414.8112   549.0852 </r>
       <r>     5.2026   445.8963   569.1532 </r>
       <r>     5.2477   428.2664   588.4277 </r>
       <r>     5.2927   367.7057   604.9767 </r>
       <r>     5.3377   285.2691   617.8155 </r>
       <r>     5.3827   209.3479   627.2374 </r>
       <r>     5.4277   164.7985   634.6543 </r>
       <r>     5.4727   163.0974   641.9947 </r>
       <r>     5.5177   197.3113   650.8748 </r>
       <r>     5.5627   244.9918   661.9009 </r>
       <r>     5.6077   279.0964   674.4619 </r>
       <r>     5.6527   281.7861   687.1440 </r>
       <r>     5.6977   252.7350   698.5186 </r>
       <r>     5.7427   206.7626   707.8241 </r>
       <r>     5.7877   163.4311   715.1795 </r>
       <r>     5.8327   136.5916   721.3269 </r>
       <r>     5.8777   129.9503   727.1755 </r>
       <r>     5.9227   138.5693   733.4119 </r>
       <r>     5.9677   152.5848   740.2792 </r>
       <r>     6.0128   160.7636   747.5145 </r>
       <r>     6.0578   154.0915   754.4495 </r>
       <r>     6.1028   129.4845   760.2771 </r>
       <r>     6.1478    91.8056   764.4089 </r>
       <r>     6.1928    52.2079   766.7586 </r>
       <r>     6.2378    23.2735   767.8060 </r>
       <r>     6.2828    13.8296   768.4284 </r>
       <r>     6.3278    26.2711   769.6108 </r>
       <r>     6.3728    57.2017   772.1852 </r>
       <r>     6.4178   100.1667   776.6933 </r>
       <r>     6.4628   148.3405   783.3695 </r>
       <r>     6.5078   195.4595   792.1663 </r>
       <r>     6.5528   235.0057   802.7430 </r>
       <r>     6.5978   259.7309   814.4324 </r>
       <r>     6.6428   263.8855   826.3089 </r>
       <r>     6.6878   247.7973   837.4612 </r>
       <r>     6.7328   220.9924   847.4072 </r>
       <r>     6.7779   199.9150   856.4046 </r>
       <r>     6.8229   200.3719   865.4225 </r>
       <r>     6.8679   229.2632   875.7407 </r>
       <r>     6.9129   280.7410   888.3757 </r>
       <r>     6.9579   338.7378   903.6210 </r>
       <r>     7.0029   384.1182   920.9086 </r>
       <r>     7.0479   402.7875   939.0364 </r>
       <r>     7.0929   390.9567   956.6318 </r>
       <r>     7.1379   355.1475   972.6155 </r>
       <r>     7.1829   307.3510   986.4482 </r>
       <r>     7.2279   258.6474   998.0888 </r>
       <r>     7.2729   215.1638  1007.7725 </r>
       <r>     7.3179   177.9192  1015.7799 </r>
       <r>     7.3629   145.1816  1022.3140 </r>
       <r>     7.4079   114.9677  1027.4882 </r>
       <r>     7.4529    86.3792  1031.3758 </r>
       <r>     7.4979    59.8212  1034.0681 </r>
       <r>     7.5430    36.5977  1035.7152 </r>
       <r>     7.5880    18.2012  1036.5344 </r>
       <r>     7.6330     5.5369  1036.7836 </r>
       <r>     7.6780    -1.5690  1036.7129 </r>
       <r>     7.7230    -4.3097  1036.5190 </r>
       <r>     7.7680    -4.3640  1036.3226 </r>
       <r>     7.8130    -3.2644  1036.1757 </r>
       <r>     7.8580    -2.0176  1036.0849 </r>
       <r>     7.9030    -1.0720  1036.0366 </r>
       <r>     7.9480    -0.4987  1036.0142 </r>
       <r>     7.9930    -0.2052  1036.0049 </r>
       <r>     8.0380    -0.0752  1036.0015 </r>
       <r>     8.0830    -0.0246  1036.0004 </r>
       <r>     8.1280    -0.0072  1036.0001 </r>
       <r>     8.1730    -0.0019  1036.0000 </r>
       <r>     8.2180    -0.0004  1036.0000 </r>
       <r>     8.2631    -0.0001  1036.0000 </r>
       <r>     8.3081    -0.0000  1036.0000 </r>
       <r>     8.3531    -0.0000  1036.0000 </r>
       <r>     8.3981    -0.0000  1036.0000 </r>
       <r>     8.4431    -0.0000  1036.0000 </r>
       <r>     8.4881    -0.0000  1036.0000 </r>
       <r>     8.5331    -0.0000  1036.0000 </r>
       <r>     8.5781    -0.0000  1036.0000 </r>
       <r>     8.6231    -0.0000  1036.0000 </r>
       <r>     8.6681    -0.0000  1036.0000 </r>
       <r>     8.7131    -0.0000  1036.0000 </r>
       <r>     8.7581     0.0000  1036.0000 </r>
       <r>     8.8031     0.0000  1036.0000 </r>
       <r>     8.8481     0.0000  1036.0000 </r>
       <r>     8.8931     0.0000  1036.0000 </r>
       <r>     8.9381     0.0000  1036.0000 </r>
       <r>     8.9831     0.0000  1036.0000 </r>
       <r>     9.0282     0.0000  1036.0000 </r>
       <r>     9.0732     0.0000  1036.0000 </r>
       <r>     9.1182     0.0000  1036.0000 </r>
       <r>     9.1632     0.0000  1036.0000 </r>
       <r>     9.2082     0.0000  1036.0000 </r>
       <r>     9.2532     0.0000  1036.0000 </r>
       <r>     9.2982     0.0000  1036.0000 </r>
       <r>     9.3432     0.0000  1036.0000 </r>
       <r>     9.3882     0.0000  1036.0000 </r>
       <r>     9.4332     0.0000  1036.0000 </r>
       <r>     9.4782     0.0000  1036.0000 </r>
      </set>
     </set>
    </array>
   </total>
  </dos>
 </calculation>
 <structure name="finalpos" >
  <crystal>
   <varray name="basis" >
    <v>      10.34929777       0.00000000      -0.00000000 </v>
    <v>      -0.00000000      10.34929777       0.00000000 </v>
    <v>      -0.00000000      -0.00000000      10.34929777 </v>
   </varray>
   <i name="volume">   1108.49221721 </i>
   <varray name="rec_basis" >
    <v>       0.09662491       0.00000000       0.00000000 </v>
    <v>      -0.00000000       0.09662491       0.00000000 </v>
    <v>       0.00000000       0.00000000       0.09662491 </v>
   </varray>
  </crystal>
  <varray name="positions" >
   <v>       0.00000000      -0.00000000       0.00000000 </v>
   <v>      -0.00000000       0.16666893       0.16666893 </v>
   <v>       0.16666893      -0.00000000       0.16666893 </v>
   <v>       0.16666893       0.16666893      -0.00000000 </v>
   <v>       0.33333106       0.00000000       0.00000000 </v>
   <v>       0.33333107       0.16666893       0.16666893 </v>
   <v>       0.50000000       0.00000000       0.16666894 </v>
   <v>       0.50000000       0.16666894      -0.00000000 </v>
   <v>       0.66666897      -0.00000000       0.00000000 </v>
   <v>       0.66666896       0.16666893       0.16666893 </v>
   <v>       0.83333104       0.00000000       0.16666893 </v>
   <v>       0.83333104       0.16666893       0.00000000 </v>
   <v>      -0.00000000       0.33333106       0.00000000 </v>
   <v>      -0.00000000       0.50000000       0.16666894 </v>
   <v>       0.16666893       0.33333107       0.16666893 </v>
   <v>       0.16666894       0.50000000       0.00000000 </v>
   <v>       0.33333107       0.33333107      -0.00000000 </v>
   <v>       0.33333107       0.50000000       0.16666893 </v>
   <v>       0.50000000       0.33333107       0.16666893 </v>
   <v>       0.50000000       0.50000000      -0.00000000 </v>
   <v>       0.66666896       0.33333107      -0.00000000 </v>
   <v>       0.66666896       0.50000000       0.16666893 </v>
   <v>       0.83333104       0.33333107       0.16666893 </v>
   <v>       0.83333103       0.50000000       0.00000000 </v>
   <v>       0.00000000       0.66666897       0.00000000 </v>
   <v>      -0.00000000       0.83333104       0.16666893 </v>
   <v>       0.16666893       0.66666896       0.16666893 </v>
   <v>       0.16666893       0.83333104      -0.00000000 </v>
   <v>       0.33333107       0.66666896      -0.00000000 </v>
   <v>       0.33333107       0.83333104       0.16666893 </v>
   <v>       0.50000000       0.66666896       0.16666893 </v>
   <v>       0.50000000       0.83333103      -0.00000000 </v>
   <v>       0.66666896       0.66666896      -0.00000000 </v>
   <v>       0.66666896       0.83333104       0.16666893 </v>
   <v>       0.83333104       0.66666896       0.16666893 </v>
   <v>       0.83333104       0.83333104      -0.00000000 </v>
   <v>      -0.00000000      -0.00000000       0.33333106 </v>
   <v>      -0.00000000       0.16666894       0.50000000 </v>
   <v>       0.16666894       0.00000000       0.50000000 </v>
   <v>       0.16666893       0.16666893       0.33333107 </v>
   <v>       0.33333107       0.00000000       0.33333107 </v>
   <v>       0.33333107       0.16666893       0.50000000 </v>
   <v>       0.50000000       0.00000000       0.50000000 </v>
   <v>       0.50000000       0.16666893       0.33333107 </v>
   <v>       0.66666896      -0.00000000       0.33333107 </v>
   <v>       0.66666896       0.16666893       0.50000000 </v>
   <v>       0.83333103       0.00000000       0.50000000 </v>
   <v>       0.83333104       0.16666893       0.33333107 </v>
   <v>      -0.00000000       0.33333107       0.33333107 </v>
   <v>       0.00000000       0.50000000       0.50000000 </v>
   <v>       0.16666893       0.33333107       0.50000000 </v>
   <v>       0.16666893       0.50000000       0.33333107 </v>
   <v>       0.33333107       0.33333107       0.33333107 </v>
   <v>       0.33333106       0.50000000       0.50000000 </v>
   <v>       0.50000000       0.33333106       0.50000000 </v>
   <v>       0.50000000       0.50000000       0.33333106 </v>
   <v>       0.66666896       0.33333107       0.33333107 </v>
   <v>       0.66666897       0.50000000       0.50000000 </v>
   <v>       0.83333104       0.33333107       0.50000000 </v>
   <v>       0.83333104       0.50000000       0.33333107 </v>
   <v>       0.00000000       0.66666896       0.33333107 </v>
   <v>       0.00000000       0.83333103       0.50000000 </v>
   <v>       0.16666893       0.66666896       0.50000000 </v>
   <v>       0.16666893       0.83333104       0.33333107 </v>
   <v>       0.33333107       0.66666896       0.33333107 </v>
   <v>       0.33333107       0.83333104       0.50000000 </v>
   <v>       0.50000000       0.66666897       0.50000000 </v>
   <v>       0.50000000       0.83333104       0.33333107 </v>
   <v>       0.66666896       0.66666896       0.33333107 </v>
   <v>       0.66666896       0.83333104       0.50000000 </v>
   <v>       0.83333104       0.66666896       0.50000000 </v>
   <v>       0.83333104       0.83333104       0.33333107 </v>
   <v>      -0.00000000      -0.00000000       0.66666897 </v>
   <v>       0.00000000       0.16666893       0.83333104 </v>
   <v>       0.16666893      -0.00000000       0.83333104 </v>
   <v>       0.16666893       0.16666893       0.66666896 </v>
   <v>       0.33333107       0.00000000       0.66666896 </v>
   <v>       0.33333107       0.16666893       0.83333104 </v>
   <v>       0.50000000       0.00000000       0.83333103 </v>
   <v>       0.50000000       0.16666893       0.66666896 </v>
   <v>       0.66666896       0.00000000       0.66666896 </v>
   <v>       0.66666896       0.16666893       0.83333104 </v>
   <v>       0.83333104       0.00000000       0.83333104 </v>
   <v>       0.83333104       0.16666893       0.66666896 </v>
   <v>      -0.00000000       0.33333107       0.66666896 </v>
   <v>       0.00000000       0.50000000       0.83333103 </v>
   <v>       0.16666893       0.33333107       0.83333104 </v>
   <v>       0.16666893       0.50000000       0.66666896 </v>
   <v>       0.33333107       0.33333107       0.66666896 </v>
   <v>       0.33333107       0.50000000       0.83333104 </v>
   <v>       0.50000000       0.33333107       0.83333104 </v>
   <v>       0.50000000       0.50000000       0.66666897 </v>
   <v>       0.66666896       0.33333107       0.66666896 </v>
   <v>       0.66666896       0.50000000       0.83333104 </v>
   <v>       0.83333104       0.33333107       0.83333104 </v>
   <v>       0.83333104       0.50000000       0.66666896 </v>
   <v>      -0.00000000       0.66666896       0.66666896 </v>
   <v>       0.00000000       0.83333104       0.83333104 </v>
   <v>       0.16666893       0.66666896       0.83333104 </v>
   <v>       0.16666893       0.83333104       0.66666896 </v>
   <v>       0.33333107       0.66666896       0.66666896 </v>
   <v>       0.33333107       0.83333104       0.83333104 </v>
   <v>       0.50000000       0.66666896       0.83333104 </v>
   <v>       0.50000000       0.83333104       0.66666896 </v>
   <v>       0.66666896       0.66666896       0.66666896 </v>
   <v>       0.66666896       0.83333104       0.83333104 </v>
   <v>       0.83333104       0.66666896       0.83333104 </v>
   <v>       0.83333104       0.83333104       0.66666896 </v>
  </varray>
 </structure>
</modeling>
