 107 107   0   0
  0.1031640E+02  0.1033485E-08  0.1033485E-08  0.1033485E-08  0.5000000E-15
  1.000000000000000E-004
  CAR 
 Opt                                     
      9.82172279     -8.88537056  301      6.93716000      1.00000000
     -8.885  0.0000E+00  0.0000E+00
     -8.823  0.0000E+00  0.0000E+00
     -8.761  0.0000E+00  0.0000E+00
     -8.698  0.0000E+00  0.0000E+00
     -8.636  0.0000E+00  0.0000E+00
     -8.574  0.0000E+00  0.0000E+00
     -8.511 -0.1420E-28 -0.8857E-30
     -8.449 -0.1959E-26 -0.1231E-27
     -8.387 -0.2234E-24 -0.1406E-25
     -8.324 -0.2093E-22 -0.1319E-23
     -8.262 -0.1611E-20 -0.1018E-21
     -8.199 -0.1018E-18 -0.6451E-20
     -8.137 -0.5283E-17 -0.3359E-18
     -8.075 -0.2249E-15 -0.1436E-16
     -8.012 -0.7606E-14 -0.4887E-15
     -7.950 -0.2171E-12 -0.1403E-13
     -7.888 -0.5069E-11 -0.3301E-12
     -7.825 -0.9679E-10 -0.6366E-11
     -7.763 -0.1510E-08 -0.1005E-09
     -7.701 -0.1920E-07 -0.1298E-08
     -7.638 -0.1987E-06 -0.1369E-07
     -7.576 -0.1668E-05 -0.1177E-06
     -7.514 -0.1131E-04 -0.8227E-06
     -7.451 -0.6153E-04 -0.4659E-05
     -7.389 -0.2661E-03 -0.2125E-04
     -7.326 -0.8997E-03 -0.7735E-04
     -7.264 -0.2300E-02 -0.2208E-03
     -7.202 -0.4099E-02 -0.4763E-03
     -7.139 -0.3630E-02 -0.7027E-03
     -7.077  0.4698E-02 -0.4098E-03
     -7.015  0.2564E-01  0.1189E-02
     -6.952  0.5542E-01  0.4645E-02
     -6.890  0.7914E-01  0.9580E-02
     -6.828  0.8118E-01  0.1464E-01
     -6.765  0.6009E-01  0.1839E-01
     -6.703  0.3006E-01  0.2026E-01
     -6.641  0.7147E-02  0.2071E-01
     -6.578 -0.2998E-02  0.2052E-01
     -6.516 -0.4291E-02  0.2025E-01
     -6.453 -0.2592E-02  0.2009E-01
     -6.391 -0.1066E-02  0.2003E-01
     -6.329 -0.3287E-03  0.2001E-01
     -6.266 -0.7893E-04  0.2000E-01
     -6.204 -0.1503E-04  0.2000E-01
     -6.142 -0.2295E-05  0.2000E-01
     -6.079 -0.2828E-06  0.2000E-01
     -6.017 -0.2825E-07  0.2000E-01
     -5.955 -0.2295E-08  0.2000E-01
     -5.892 -0.1520E-09  0.2000E-01
     -5.830 -0.8221E-11  0.2000E-01
     -5.768 -0.3635E-12  0.2000E-01
     -5.705 -0.1314E-13  0.2000E-01
     -5.643 -0.4273E-15  0.2000E-01
     -5.580  0.0000E+00  0.2000E-01
     -5.518  0.0000E+00  0.2000E-01
     -5.456  0.0000E+00  0.2000E-01
     -5.393  0.0000E+00  0.2000E-01
     -5.331  0.0000E+00  0.2000E-01
     -5.269  0.0000E+00  0.2000E-01
     -5.206  0.0000E+00  0.2000E-01
     -5.144  0.0000E+00  0.2000E-01
     -5.082  0.0000E+00  0.2000E-01
     -5.019  0.0000E+00  0.2000E-01
     -4.957  0.0000E+00  0.2000E-01
     -4.895  0.0000E+00  0.2000E-01
     -4.832  0.0000E+00  0.2000E-01
     -4.770  0.0000E+00  0.2000E-01
     -4.707  0.0000E+00  0.2000E-01
     -4.645  0.0000E+00  0.2000E-01
     -4.583  0.0000E+00  0.2000E-01
     -4.520  0.0000E+00  0.2000E-01
     -4.458  0.0000E+00  0.2000E-01
     -4.396  0.0000E+00  0.2000E-01
     -4.333  0.0000E+00  0.2000E-01
     -4.271  0.0000E+00  0.2000E-01
     -4.209  0.0000E+00  0.2000E-01
     -4.146  0.0000E+00  0.2000E-01
     -4.084  0.0000E+00  0.2000E-01
     -4.022  0.0000E+00  0.2000E-01
     -3.959  0.0000E+00  0.2000E-01
     -3.897  0.0000E+00  0.2000E-01
     -3.834  0.0000E+00  0.2000E-01
     -3.772  0.0000E+00  0.2000E-01
     -3.710  0.0000E+00  0.2000E-01
     -3.647  0.0000E+00  0.2000E-01
     -3.585  0.0000E+00  0.2000E-01
     -3.523  0.0000E+00  0.2000E-01
     -3.460  0.0000E+00  0.2000E-01
     -3.398  0.0000E+00  0.2000E-01
     -3.336 -0.1766E-30  0.2000E-01
     -3.273 -0.2665E-28  0.2000E-01
     -3.211 -0.3322E-26  0.2000E-01
     -3.149 -0.3404E-24  0.2000E-01
     -3.086 -0.2864E-22  0.2000E-01
     -3.024 -0.1980E-20  0.2000E-01
     -2.961 -0.1124E-18  0.2000E-01
     -2.899 -0.5236E-17  0.2000E-01
     -2.837 -0.1935E-15  0.2000E-01
     -2.774 -0.6070E-14  0.2000E-01
     -2.712 -0.1553E-12  0.2000E-01
     -2.650 -0.3254E-11  0.2000E-01
     -2.587 -0.5575E-10  0.2000E-01
     -2.525 -0.7804E-09  0.2000E-01
     -2.463 -0.8909E-08  0.2000E-01
     -2.400 -0.8283E-07  0.2000E-01
     -2.338 -0.6257E-06  0.2000E-01
     -2.276 -0.3830E-05  0.2000E-01
     -2.213 -0.1892E-04  0.2000E-01
     -2.151 -0.7495E-04  0.1999E-01
     -2.088 -0.2360E-03  0.1998E-01
     -2.026 -0.5796E-03  0.1994E-01
     -1.964 -0.1062E-02  0.1988E-01
     -1.901 -0.1252E-02  0.1980E-01
     -1.839 -0.1257E-03  0.1979E-01
     -1.777  0.3710E-02  0.2002E-01
     -1.714  0.1122E-01  0.2072E-01
     -1.652  0.2190E-01  0.2209E-01
     -1.590  0.3336E-01  0.2417E-01
     -1.527  0.4220E-01  0.2680E-01
     -1.465  0.4615E-01  0.2968E-01
     -1.403  0.4622E-01  0.3256E-01
     -1.340  0.4682E-01  0.3548E-01
     -1.278  0.5270E-01  0.3876E-01
     -1.215  0.6351E-01  0.4272E-01
     -1.153  0.7240E-01  0.4724E-01
     -1.091  0.7303E-01  0.5179E-01
     -1.028  0.6790E-01  0.5603E-01
     -0.966  0.6666E-01  0.6018E-01
     -0.904  0.7573E-01  0.6491E-01
     -0.841  0.9198E-01  0.7064E-01
     -0.779  0.1068E+00  0.7730E-01
     -0.717  0.1144E+00  0.8444E-01
     -0.654  0.1156E+00  0.9165E-01
     -0.592  0.1136E+00  0.9873E-01
     -0.530  0.1095E+00  0.1056E+00
     -0.467  0.1040E+00  0.1120E+00
     -0.405  0.1032E+00  0.1185E+00
     -0.342  0.1130E+00  0.1255E+00
     -0.280  0.1283E+00  0.1335E+00
     -0.218  0.1334E+00  0.1418E+00
     -0.155  0.1199E+00  0.1493E+00
     -0.093  0.9843E-01  0.1555E+00
     -0.031  0.8722E-01  0.1609E+00
      0.032  0.9335E-01  0.1667E+00
      0.094  0.1108E+00  0.1736E+00
      0.156  0.1312E+00  0.1818E+00
      0.219  0.1500E+00  0.1912E+00
      0.281  0.1637E+00  0.2014E+00
      0.343  0.1687E+00  0.2119E+00
      0.406  0.1627E+00  0.2220E+00
      0.468  0.1475E+00  0.2312E+00
      0.531  0.1296E+00  0.2393E+00
      0.593  0.1177E+00  0.2467E+00
      0.655  0.1162E+00  0.2539E+00
      0.718  0.1223E+00  0.2615E+00
      0.780  0.1312E+00  0.2697E+00
      0.842  0.1418E+00  0.2786E+00
      0.905  0.1550E+00  0.2882E+00
      0.967  0.1708E+00  0.2989E+00
      1.029  0.1883E+00  0.3106E+00
      1.092  0.2055E+00  0.3234E+00
      1.154  0.2177E+00  0.3370E+00
      1.216  0.2192E+00  0.3507E+00
      1.279  0.2099E+00  0.3638E+00
      1.341  0.1965E+00  0.3760E+00
      1.404  0.1877E+00  0.3877E+00
      1.466  0.1915E+00  0.3997E+00
      1.528  0.2131E+00  0.4129E+00
      1.591  0.2502E+00  0.4285E+00
      1.653  0.2878E+00  0.4465E+00
      1.715  0.3066E+00  0.4656E+00
      1.778  0.3030E+00  0.4845E+00
      1.840  0.2988E+00  0.5031E+00
      1.902  0.3276E+00  0.5236E+00
      1.965  0.4093E+00  0.5491E+00
      2.027  0.5376E+00  0.5826E+00
      2.089  0.6883E+00  0.6255E+00
      2.152  0.8328E+00  0.6775E+00
      2.214  0.9457E+00  0.7364E+00
      2.277  0.1010E+01  0.7994E+00
      2.339  0.1025E+01  0.8633E+00
      2.401  0.1013E+01  0.9265E+00
      2.464  0.1003E+01  0.9890E+00
      2.526  0.1010E+01  0.1052E+01
      2.588  0.1036E+01  0.1117E+01
      2.651  0.1077E+01  0.1184E+01
      2.713  0.1132E+01  0.1254E+01
      2.775  0.1205E+01  0.1330E+01
      2.838  0.1290E+01  0.1410E+01
      2.900  0.1371E+01  0.1495E+01
      2.962  0.1431E+01  0.1585E+01
      3.025  0.1475E+01  0.1677E+01
      3.087  0.1521E+01  0.1771E+01
      3.150  0.1575E+01  0.1870E+01
      3.212  0.1625E+01  0.1971E+01
      3.274  0.1650E+01  0.2074E+01
      3.337  0.1643E+01  0.2176E+01
      3.399  0.1608E+01  0.2277E+01
      3.461  0.1562E+01  0.2374E+01
      3.524  0.1523E+01  0.2469E+01
      3.586  0.1503E+01  0.2563E+01
      3.648  0.1499E+01  0.2656E+01
      3.711  0.1491E+01  0.2749E+01
      3.773  0.1463E+01  0.2841E+01
      3.835  0.1414E+01  0.2929E+01
      3.898  0.1365E+01  0.3014E+01
      3.960  0.1333E+01  0.3097E+01
      4.023  0.1325E+01  0.3180E+01
      4.085  0.1325E+01  0.3262E+01
      4.147  0.1314E+01  0.3344E+01
      4.210  0.1289E+01  0.3425E+01
      4.272  0.1275E+01  0.3504E+01
      4.334  0.1301E+01  0.3585E+01
      4.397  0.1373E+01  0.3671E+01
      4.459  0.1473E+01  0.3763E+01
      4.521  0.1581E+01  0.3861E+01
      4.584  0.1687E+01  0.3966E+01
      4.646  0.1769E+01  0.4077E+01
      4.708  0.1800E+01  0.4189E+01
      4.771  0.1773E+01  0.4300E+01
      4.833  0.1727E+01  0.4407E+01
      4.896  0.1724E+01  0.4515E+01
      4.958  0.1802E+01  0.4627E+01
      5.020  0.1942E+01  0.4748E+01
      5.083  0.2088E+01  0.4878E+01
      5.145  0.2191E+01  0.5015E+01
      5.207  0.2236E+01  0.5154E+01
      5.270  0.2247E+01  0.5295E+01
      5.332  0.2260E+01  0.5435E+01
      5.394  0.2301E+01  0.5579E+01
      5.457  0.2375E+01  0.5727E+01
      5.519  0.2459E+01  0.5880E+01
      5.581  0.2506E+01  0.6037E+01
      5.644  0.2468E+01  0.6190E+01
      5.706  0.2328E+01  0.6336E+01
      5.769  0.2123E+01  0.6468E+01
      5.831  0.1914E+01  0.6587E+01
      5.893  0.1745E+01  0.6696E+01
      5.956  0.1618E+01  0.6797E+01
      6.018  0.1521E+01  0.6892E+01
      6.080  0.1457E+01  0.6983E+01
      6.143  0.1443E+01  0.7073E+01
      6.205  0.1484E+01  0.7165E+01
      6.267  0.1564E+01  0.7263E+01
      6.330  0.1654E+01  0.7366E+01
      6.392  0.1734E+01  0.7474E+01
      6.454  0.1804E+01  0.7586E+01
      6.517  0.1878E+01  0.7704E+01
      6.579  0.1961E+01  0.7826E+01
      6.642  0.2029E+01  0.7952E+01
      6.704  0.2052E+01  0.8080E+01
      6.766  0.2029E+01  0.8207E+01
      6.829  0.1989E+01  0.8331E+01
      6.891  0.1947E+01  0.8452E+01
      6.953  0.1892E+01  0.8570E+01
      7.016  0.1816E+01  0.8683E+01
      7.078  0.1739E+01  0.8792E+01
      7.140  0.1700E+01  0.8898E+01
      7.203  0.1712E+01  0.9005E+01
      7.265  0.1748E+01  0.9114E+01
      7.327  0.1778E+01  0.9224E+01
      7.390  0.1800E+01  0.9337E+01
      7.452  0.1843E+01  0.9452E+01
      7.515  0.1935E+01  0.9572E+01
      7.577  0.2073E+01  0.9701E+01
      7.639  0.2198E+01  0.9839E+01
      7.702  0.2200E+01  0.9976E+01
      7.764  0.1969E+01  0.1010E+02
      7.826  0.1491E+01  0.1019E+02
      7.889  0.8929E+00  0.1025E+02
      7.951  0.3687E+00  0.1027E+02
      8.013  0.4823E-01  0.1027E+02
      8.076 -0.7085E-01  0.1027E+02
      8.138 -0.7354E-01  0.1026E+02
      8.200 -0.4248E-01  0.1026E+02
      8.263 -0.1766E-01  0.1026E+02
      8.325 -0.5652E-02  0.1026E+02
      8.388 -0.1432E-02  0.1026E+02
      8.450 -0.2909E-03  0.1026E+02
      8.512 -0.4780E-04  0.1026E+02
      8.575 -0.6383E-05  0.1026E+02
      8.637 -0.6950E-06  0.1026E+02
      8.699 -0.6183E-07  0.1026E+02
      8.762 -0.4503E-08  0.1026E+02
      8.824 -0.2687E-09  0.1026E+02
      8.886 -0.1315E-10  0.1026E+02
      8.949 -0.5285E-12  0.1026E+02
      9.011 -0.1747E-13  0.1026E+02
      9.073 -0.4562E-15  0.1026E+02
      9.136  0.0000E+00  0.1026E+02
      9.198  0.0000E+00  0.1026E+02
      9.261  0.0000E+00  0.1026E+02
      9.323  0.0000E+00  0.1026E+02
      9.385  0.0000E+00  0.1026E+02
      9.448  0.0000E+00  0.1026E+02
      9.510  0.0000E+00  0.1026E+02
      9.572  0.0000E+00  0.1026E+02
      9.635  0.0000E+00  0.1026E+02
      9.697  0.0000E+00  0.1026E+02
      9.759  0.0000E+00  0.1026E+02
      9.822  0.0000E+00  0.1026E+02
