  107  107  100    1
  0.1031640E+02  0.1033485E-08  0.1033485E-08  0.1033485E-08  0.5000000E-15
  1.000000000000000E-004
  CAR 
 Opt                                     
    854     32    513
 
  0.1250000E+00  0.1250000E+00  0.1250000E+00  0.3125000E-01
    1       -6.885371   1.000000
    2       -1.679881   1.000000
    3       -0.870385   1.000000
    4       -0.840755   1.000000
    5       -0.631630   1.000000
    6       -0.274220   1.000000
    7       -0.258681   1.000000
    8       -0.205547   1.000000
    9        0.165602   1.000000
   10        0.206379   1.000000
   11        0.402614   1.000000
   12        0.469617   1.000000
   13        0.512010   1.000000
   14        0.803735   1.000000
   15        0.936517   1.000000
   16        0.956807   1.000000
   17        1.000467   1.000000
   18        1.130117   1.000000
   19        1.239023   1.000000
   20        1.297961   1.000000
   21        1.365379   1.000000
   22        1.481232   1.000000
   23        1.515730   1.000000
   24        1.637735   1.000000
   25        1.641319   1.000000
   26        1.643876   1.000000
   27        1.727524   1.000000
   28        1.821540   1.000000
   29        1.835701   1.000000
   30        1.872185   1.000000
   31        2.005128   1.000000
   32        2.020370   1.000000
   33        2.044441   1.000000
   34        2.046270   1.000000
   35        2.064172   1.000000
   36        2.113970   1.000000
   37        2.139832   1.000000
   38        2.205421   1.000000
   39        2.229860   1.000000
   40        2.467199   1.000000
   41        2.489945   1.000000
   42        2.494420   1.000000
   43        2.525674   1.000000
   44        2.582578   1.000000
   45        2.591877   1.000000
   46        2.603687   1.000000
   47        2.605819   1.000000
   48        2.611546   1.000000
   49        2.615478   1.000000
   50        2.622173   1.000000
   51        2.631435   1.000000
   52        2.640214   1.000000
   53        2.649022   1.000000
   54        2.651782   1.000000
   55        2.652841   1.000000
   56        2.661792   1.000000
   57        2.665233   1.000000
   58        2.671818   1.000000
   59        2.699930   1.000000
   60        2.711284   1.000000
   61        2.733798   1.000000
   62        2.735770   1.000000
   63        2.758335   1.000000
   64        2.765966   1.000000
   65        2.775509   1.000000
   66        2.777463   1.000000
   67        2.787546   1.000000
   68        2.813548   1.000000
   69        2.836287   1.000000
   70        2.843477   1.000000
   71        2.849367   1.000000
   72        2.858526   1.000000
   73        2.866005   1.000000
   74        2.884238   1.000000
   75        2.887152   1.000000
   76        2.893415   1.000000
   77        2.893927   1.000000
   78        2.910797   1.000000
   79        2.919230   1.000000
   80        2.924554   1.000000
   81        2.936730   1.000000
   82        2.947379   1.000000
   83        2.954252   1.000000
   84        2.958539   1.000000
   85        2.971972   1.000000
   86        2.983153   1.000000
   87        2.995403   1.000000
   88        3.012396   1.000000
   89        3.023284   1.000000
   90        3.044025   1.000000
   91        3.065642   1.000000
   92        3.089021   1.000000
   93        3.121826   1.000000
   94        3.163615   1.000000
   95        3.166499   1.000000
   96        3.178343   1.000000
   97        3.188648   1.000000
   98        3.191228   1.000000
   99        3.201965   1.000000
  100        3.203734   1.000000
  101        3.211467   1.000000
  102        3.226382   1.000000
  103        3.273490   1.000000
  104        3.283075   1.000000
  105        3.287039   1.000000
  106        3.304219   1.000000
  107        3.307299   1.000000
  108        3.320916   1.000000
  109        3.337327   1.000000
  110        3.349568   1.000000
  111        3.389425   1.000000
  112        3.417127   1.000000
  113        3.431483   1.000000
  114        3.445185   1.000000
  115        3.447604   1.000000
  116        3.451344   1.000000
  117        3.455371   1.000000
  118        3.469150   1.000000
  119        3.477606   1.000000
  120        3.500996   1.000000
  121        3.508729   1.000000
  122        3.517911   1.000000
  123        3.551635   1.000000
  124        3.562431   1.000000
  125        3.577254   1.000000
  126        3.578867   1.000000
  127        3.587350   1.000000
  128        3.600204   1.000000
  129        3.603034   1.000000
  130        3.615753   1.000000
  131        3.616365   1.000000
  132        3.619942   1.000000
  133        3.642746   1.000000
  134        3.645010   1.000000
  135        3.658148   1.000000
  136        3.662641   1.000000
  137        3.669942   1.000000
  138        3.680556   1.000000
  139        3.684705   1.000000
  140        3.696892   1.000000
  141        3.714464   1.000000
  142        3.724814   1.000000
  143        3.747006   1.000000
  144        3.747605   1.000000
  145        3.764976   1.000000
  146        3.780600   1.000000
  147        3.802790   1.000000
  148        3.809985   1.000000
  149        3.825061   1.000000
  150        3.830137   1.000000
  151        3.858435   1.000000
  152        3.859900   1.000000
  153        3.869013   1.000000
  154        3.888804   1.000000
  155        3.890159   1.000000
  156        3.908038   1.000000
  157        3.913636   1.000000
  158        3.939814   1.000000
  159        3.948611   1.000000
  160        3.989957   1.000000
  161        4.006897   1.000000
  162        4.030015   1.000000
  163        4.035812   1.000000
  164        4.057765   1.000000
  165        4.061069   1.000000
  166        4.108001   1.000000
  167        4.139720   1.000000
  168        4.139955   1.000000
  169        4.165178   1.000000
  170        4.178377   1.000000
  171        4.183784   1.000000
  172        4.213117   1.000000
  173        4.228863   1.000000
  174        4.272571   1.000000
  175        4.278803   1.000000
  176        4.343065   1.000000
  177        4.357513   1.000000
  178        4.386788   1.000000
  179        4.397035   1.000000
  180        4.402327   1.000000
  181        4.413835   1.000000
  182        4.417004   1.000000
  183        4.423610   1.000000
  184        4.427607   1.000000
  185        4.434136   1.000000
  186        4.439365   1.000000
  187        4.457784   1.000000
  188        4.471656   1.000000
  189        4.478692   1.000000
  190        4.493292   1.000000
  191        4.503419   1.000000
  192        4.518829   1.000000
  193        4.522772   1.000000
  194        4.546386   1.000000
  195        4.547132   1.000000
  196        4.557232   1.000000
  197        4.564559   1.000000
  198        4.573321   1.000000
  199        4.580491   1.000000
  200        4.593569   1.000000
  201        4.594741   1.000000
  202        4.608152   1.000000
  203        4.608380   1.000000
  204        4.627262   1.000000
  205        4.632240   1.000000
  206        4.643437   1.000000
  207        4.657024   1.000000
  208        4.657503   1.000000
  209        4.668847   1.000000
  210        4.678923   1.000000
  211        4.681689   1.000000
  212        4.693654   1.000000
  213        4.704190   1.000000
  214        4.715532   1.000000
  215        4.722243   1.000000
  216        4.763442   1.000000
  217        4.768043   1.000000
  218        4.781094   1.000000
  219        4.810033   1.000000
  220        4.817509   1.000000
  221        4.821516   1.000000
  222        4.846389   1.000000
  223        4.857972   1.000000
  224        4.875578   1.000000
  225        4.879804   1.000000
  226        4.912566   1.000000
  227        4.919299   1.000000
  228        4.931634   1.000000
  229        4.932907   1.000000
  230        4.949921   1.000000
  231        4.962143   1.000000
  232        4.972549   1.000000
  233        4.978958   1.000000
  234        4.995724   1.000000
  235        5.017841   1.000000
  236        5.024422   1.000000
  237        5.035464   1.000000
  238        5.049049   1.000000
  239        5.057878   1.000000
  240        5.072854   1.000000
  241        5.083439   1.000000
  242        5.086740   1.000000
  243        5.124625   1.000000
  244        5.126057   1.000000
  245        5.142307   1.000000
  246        5.146009   1.000000
  247        5.153337   1.000000
  248        5.167494   1.000000
  249        5.177579   1.000000
  250        5.194799   1.000000
  251        5.196342   1.000000
  252        5.207144   1.000000
  253        5.208238   1.000000
  254        5.214140   1.000000
  255        5.219639   1.000000
  256        5.230585   1.000000
  257        5.231290   1.000000
  258        5.241515   1.000000
  259        5.242813   1.000000
  260        5.256288   1.000000
  261        5.258163   1.000000
  262        5.266499   1.000000
  263        5.276093   1.000000
  264        5.278373   1.000000
  265        5.286568   1.000000
  266        5.295676   1.000000
  267        5.298420   1.000000
  268        5.314081   1.000000
  269        5.318807   1.000000
  270        5.324211   1.000000
  271        5.332868   1.000000
  272        5.337602   1.000000
  273        5.343929   1.000000
  274        5.353842   1.000000
  275        5.356751   1.000000
  276        5.361512   1.000000
  277        5.364662   1.000000
  278        5.372893   1.000000
  279        5.379390   1.000000
  280        5.389346   1.000000
  281        5.402316   1.000000
  282        5.409131   1.000000
  283        5.411704   1.000000
  284        5.412678   1.000000
  285        5.421847   1.000000
  286        5.423353   1.000000
  287        5.425098   1.000000
  288        5.437128   1.000000
  289        5.441454   1.000000
  290        5.443304   1.000000
  291        5.452386   1.000000
  292        5.455798   1.000000
  293        5.467665   1.000000
  294        5.480491   1.000000
  295        5.488812   1.000000
  296        5.494244   1.000000
  297        5.495759   1.000000
  298        5.512174   1.000000
  299        5.519798   1.000000
  300        5.520621   1.000000
  301        5.525081   1.000000
  302        5.539655   1.000000
  303        5.556689   1.000000
  304        5.560638   1.000000
  305        5.579954   1.000000
  306        5.596518   1.000000
  307        5.608138   1.000000
  308        5.615507   1.000000
  309        5.623361   1.000000
  310        5.644316   1.000000
  311        5.658132   1.000000
  312        5.670606   1.000000
  313        5.679647   1.000000
  314        5.694193   1.000000
  315        5.702713   1.000000
  316        5.709485   1.000000
  317        5.713843   1.000000
  318        5.723944   1.000000
  319        5.730935   1.000000
  320        5.735307   1.000000
  321        5.743914   1.000000
  322        5.758329   1.000000
  323        5.777318   1.000000
  324        5.777551   1.000000
  325        5.784968   1.000000
  326        5.786711   1.000000
  327        5.802761   1.000000
  328        5.820462   1.000000
  329        5.829249   1.000000
  330        5.831414   1.000000
  331        5.842079   1.000000
  332        5.844645   1.000000
  333        5.861848   1.000000
  334        5.866234   1.000000
  335        5.881193   1.000000
  336        5.886233   1.000000
  337        5.895733   1.000000
  338        5.908187   1.000000
  339        5.912303   1.000000
  340        5.914798   1.000000
  341        5.934959   1.000000
  342        5.938756   1.000000
  343        5.942666   1.000000
  344        5.948630   1.000000
  345        5.958960   1.000000
  346        5.972419   1.000000
  347        5.981062   1.000000
  348        5.989682   1.000000
  349        5.998225   1.000000
  350        6.011652   1.000000
  351        6.019249   1.000000
  352        6.031121   1.000000
  353        6.035479   1.000000
  354        6.041501   1.000000
  355        6.067558   1.000000
  356        6.074110   1.000000
  357        6.097978   1.000000
  358        6.126040   1.000000
  359        6.131868   1.000000
  360        6.142145   1.000000
  361        6.149945   1.000000
  362        6.195192   1.000001
  363        6.205948   1.000001
  364        6.228223   1.000003
  365        6.234146   1.000004
  366        6.248735   1.000006
  367        6.263954   1.000010
  368        6.303120   1.000035
  369        6.326605   1.000069
  370        6.334361   1.000086
  371        6.352483   1.000142
  372        6.358182   1.000166
  373        6.360174   1.000175
  374        6.366616   1.000208
  375        6.376566   1.000269
  376        6.385668   1.000340
  377        6.390806   1.000387
  378        6.401220   1.000500
  379        6.407820   1.000587
  380        6.434356   1.001087
  381        6.441892   1.001286
  382        6.456066   1.001748
  383        6.460401   1.001916
  384        6.478289   1.002761
  385        6.502243   1.004370
  386        6.515435   1.005541
  387        6.517720   1.005767
  388        6.551413   1.009996
  389        6.564326   1.012089
  390        6.575033   1.014026
  391        6.591617   1.017356
  392        6.596145   1.018327
  393        6.608351   1.021043
  394        6.626395   1.025202
  395        6.626928   1.025325
  396        6.655253   1.031418
  397        6.668634   1.033643
  398        6.675823   1.034534
  399        6.687707   1.035382
  400        6.698413   1.035303
  401        6.706178   1.034633
  402        6.727950   1.029270
  403        6.742316   1.022241
  404        6.750602   1.016673
  405        6.759701   1.009135
  406        6.763403   1.005612
  407        6.781250   0.984629
  408        6.782974   0.982232
  409        6.791744   0.968972
  410        6.797996   0.958406
  411        6.806575   0.942352
  412        6.807496   0.940520
  413        6.825212   0.901128
  414        6.829461   0.890503
  415        6.842100   0.856232
  416        6.863888   0.788177
  417        6.877552   0.740232
  418        6.886315   0.707628
  419        6.887812   0.701927
  420        6.908118   0.621463
  421        6.909595   0.615419
  422        6.937211   0.499784
  423        6.939547   0.489899
  424        6.952006   0.437371
  425        6.967677   0.372523
  426        6.977675   0.332405
  427        6.983023   0.311479
  428        7.000521   0.246230
  429        7.003612   0.235285
  430        7.021443   0.176063
  431        7.034631   0.136926
  432        7.036017   0.133057
  433        7.055434   0.083896
  434        7.061752   0.069949
  435        7.073455   0.046760
  436        7.076039   0.042098
  437        7.109406  -0.004096
  438        7.117529  -0.011715
  439        7.119129  -0.013065
  440        7.134727  -0.023818
  441        7.146210  -0.029208
  442        7.154919  -0.032058
  443        7.168244  -0.034645
  444        7.174250  -0.035207
  445        7.183617  -0.035449
  446        7.190901  -0.035177
  447        7.196886  -0.034698
  448        7.212261  -0.032629
  449        7.217302  -0.031746
  450        7.217356  -0.031736
  451        7.226372  -0.029975
  452        7.229752  -0.029267
  453        7.235169  -0.028093
  454        7.242919  -0.026351
  455        7.248104  -0.025161
  456        7.250595  -0.024585
  457        7.251721  -0.024325
  458        7.269944  -0.020145
  459        7.278930  -0.018163
  460        7.285461  -0.016777
  461        7.288578  -0.016134
  462        7.306200  -0.012755
  463        7.315830  -0.011110
  464        7.340345  -0.007591
  465        7.342259  -0.007356
  466        7.349812  -0.006482
  467        7.357381  -0.005689
  468        7.362755  -0.005174
  469        7.380616  -0.003725
  470        7.381532  -0.003661
  471        7.391201  -0.003037
  472        7.400699  -0.002514
  473        7.424391  -0.001533
  474        7.429136  -0.001383
  475        7.433257  -0.001263
  476        7.448769  -0.000890
  477        7.451534  -0.000835
  478        7.465263  -0.000604
  479        7.474461  -0.000484
  480        7.492264  -0.000310
  481        7.492742  -0.000306
  482        7.503523  -0.000232
  483        7.515790  -0.000168
  484        7.523709  -0.000135
  485        7.527655  -0.000122
  486        7.537278  -0.000093
  487        7.551080  -0.000063
  488        7.560043  -0.000049
  489        7.563124  -0.000044
  490        7.570729  -0.000035
  491        7.571134  -0.000035
  492        7.578138  -0.000028
  493        7.581837  -0.000025
  494        7.592260  -0.000018
  495        7.597154  -0.000016
  496        7.605780  -0.000012
  497        7.619293  -0.000008
  498        7.620230  -0.000008
  499        7.642686  -0.000004
  500        7.644022  -0.000003
  501        7.649333  -0.000003
  502        7.659670  -0.000002
  503        7.671849  -0.000001
  504        7.675790  -0.000001
  505        7.694028  -0.000001
  506        7.694572  -0.000001
  507        7.703193  -0.000000
  508        7.715347  -0.000000
  509        7.719494  -0.000000
  510        7.722508  -0.000000
  511        7.736103  -0.000000
  512        7.746085  -0.000000
  513        7.753994  -0.000000
 
  0.3750000E+00  0.1250000E+00  0.1250000E+00  0.3125000E-01
    1       -6.885109   1.000000
    2       -1.533525   1.000000
    3       -1.180708   1.000000
    4       -0.737948   1.000000
    5       -0.593009   1.000000
    6       -0.468939   1.000000
    7       -0.275024   1.000000
    8       -0.030256   1.000000
    9        0.080918   1.000000
   10        0.184428   1.000000
   11        0.367525   1.000000
   12        0.424180   1.000000
   13        0.624752   1.000000
   14        0.662579   1.000000
   15        0.833880   1.000000
   16        0.933791   1.000000
   17        1.105638   1.000000
   18        1.162926   1.000000
   19        1.200256   1.000000
   20        1.340072   1.000000
   21        1.517309   1.000000
   22        1.597774   1.000000
   23        1.629050   1.000000
   24        1.722535   1.000000
   25        1.777747   1.000000
   26        1.890302   1.000000
   27        1.945408   1.000000
   28        2.023698   1.000000
   29        2.028150   1.000000
   30        2.050726   1.000000
   31        2.076238   1.000000
   32        2.096333   1.000000
   33        2.125638   1.000000
   34        2.141301   1.000000
   35        2.152733   1.000000
   36        2.181639   1.000000
   37        2.208254   1.000000
   38        2.236187   1.000000
   39        2.248379   1.000000
   40        2.265759   1.000000
   41        2.273645   1.000000
   42        2.299099   1.000000
   43        2.301637   1.000000
   44        2.327248   1.000000
   45        2.354745   1.000000
   46        2.361160   1.000000
   47        2.399144   1.000000
   48        2.411481   1.000000
   49        2.435857   1.000000
   50        2.470033   1.000000
   51        2.516471   1.000000
   52        2.539879   1.000000
   53        2.561178   1.000000
   54        2.609046   1.000000
   55        2.625683   1.000000
   56        2.642693   1.000000
   57        2.660125   1.000000
   58        2.668588   1.000000
   59        2.679503   1.000000
   60        2.696545   1.000000
   61        2.706312   1.000000
   62        2.722986   1.000000
   63        2.741720   1.000000
   64        2.753318   1.000000
   65        2.760732   1.000000
   66        2.772230   1.000000
   67        2.795828   1.000000
   68        2.810449   1.000000
   69        2.817087   1.000000
   70        2.845274   1.000000
   71        2.858546   1.000000
   72        2.860942   1.000000
   73        2.868960   1.000000
   74        2.879937   1.000000
   75        2.891757   1.000000
   76        2.898941   1.000000
   77        2.902824   1.000000
   78        2.919487   1.000000
   79        2.935030   1.000000
   80        2.946589   1.000000
   81        2.966108   1.000000
   82        2.974057   1.000000
   83        2.986089   1.000000
   84        3.015579   1.000000
   85        3.027682   1.000000
   86        3.033949   1.000000
   87        3.041725   1.000000
   88        3.047745   1.000000
   89        3.055325   1.000000
   90        3.071721   1.000000
   91        3.085661   1.000000
   92        3.104356   1.000000
   93        3.121667   1.000000
   94        3.128495   1.000000
   95        3.142901   1.000000
   96        3.155002   1.000000
   97        3.166559   1.000000
   98        3.177780   1.000000
   99        3.190472   1.000000
  100        3.215292   1.000000
  101        3.239322   1.000000
  102        3.261652   1.000000
  103        3.267460   1.000000
  104        3.277836   1.000000
  105        3.296012   1.000000
  106        3.312134   1.000000
  107        3.322635   1.000000
  108        3.332575   1.000000
  109        3.349284   1.000000
  110        3.355962   1.000000
  111        3.371268   1.000000
  112        3.376216   1.000000
  113        3.382446   1.000000
  114        3.390166   1.000000
  115        3.408608   1.000000
  116        3.411857   1.000000
  117        3.435367   1.000000
  118        3.451440   1.000000
  119        3.458467   1.000000
  120        3.472351   1.000000
  121        3.487731   1.000000
  122        3.511503   1.000000
  123        3.521607   1.000000
  124        3.536002   1.000000
  125        3.556838   1.000000
  126        3.574911   1.000000
  127        3.589408   1.000000
  128        3.604148   1.000000
  129        3.623730   1.000000
  130        3.641570   1.000000
  131        3.646215   1.000000
  132        3.656325   1.000000
  133        3.667499   1.000000
  134        3.677930   1.000000
  135        3.680988   1.000000
  136        3.692918   1.000000
  137        3.709410   1.000000
  138        3.714116   1.000000
  139        3.728162   1.000000
  140        3.739392   1.000000
  141        3.749292   1.000000
  142        3.759110   1.000000
  143        3.770120   1.000000
  144        3.786339   1.000000
  145        3.800053   1.000000
  146        3.823230   1.000000
  147        3.826212   1.000000
  148        3.843554   1.000000
  149        3.854201   1.000000
  150        3.870004   1.000000
  151        3.894092   1.000000
  152        3.904226   1.000000
  153        3.933254   1.000000
  154        3.954470   1.000000
  155        3.961620   1.000000
  156        3.974279   1.000000
  157        3.992974   1.000000
  158        4.001170   1.000000
  159        4.031306   1.000000
  160        4.037868   1.000000
  161        4.045401   1.000000
  162        4.059753   1.000000
  163        4.069283   1.000000
  164        4.076372   1.000000
  165        4.087709   1.000000
  166        4.102170   1.000000
  167        4.121510   1.000000
  168        4.132725   1.000000
  169        4.145636   1.000000
  170        4.161977   1.000000
  171        4.174495   1.000000
  172        4.185462   1.000000
  173        4.195553   1.000000
  174        4.208432   1.000000
  175        4.225320   1.000000
  176        4.237999   1.000000
  177        4.256665   1.000000
  178        4.278800   1.000000
  179        4.291232   1.000000
  180        4.316725   1.000000
  181        4.328660   1.000000
  182        4.344504   1.000000
  183        4.359832   1.000000
  184        4.372397   1.000000
  185        4.383441   1.000000
  186        4.409443   1.000000
  187        4.419516   1.000000
  188        4.433491   1.000000
  189        4.444670   1.000000
  190        4.452673   1.000000
  191        4.463919   1.000000
  192        4.479926   1.000000
  193        4.488941   1.000000
  194        4.500682   1.000000
  195        4.532698   1.000000
  196        4.555819   1.000000
  197        4.567690   1.000000
  198        4.581463   1.000000
  199        4.585469   1.000000
  200        4.601666   1.000000
  201        4.629227   1.000000
  202        4.632340   1.000000
  203        4.648038   1.000000
  204        4.655497   1.000000
  205        4.662888   1.000000
  206        4.672280   1.000000
  207        4.677438   1.000000
  208        4.696609   1.000000
  209        4.699469   1.000000
  210        4.715149   1.000000
  211        4.724416   1.000000
  212        4.738146   1.000000
  213        4.753189   1.000000
  214        4.758154   1.000000
  215        4.766576   1.000000
  216        4.780221   1.000000
  217        4.792395   1.000000
  218        4.809892   1.000000
  219        4.820048   1.000000
  220        4.825437   1.000000
  221        4.842734   1.000000
  222        4.860775   1.000000
  223        4.875259   1.000000
  224        4.882400   1.000000
  225        4.897532   1.000000
  226        4.919459   1.000000
  227        4.928935   1.000000
  228        4.935954   1.000000
  229        4.952037   1.000000
  230        4.960818   1.000000
  231        4.972620   1.000000
  232        4.983556   1.000000
  233        4.992177   1.000000
  234        5.004111   1.000000
  235        5.014996   1.000000
  236        5.022560   1.000000
  237        5.026578   1.000000
  238        5.037175   1.000000
  239        5.040538   1.000000
  240        5.050674   1.000000
  241        5.058146   1.000000
  242        5.065323   1.000000
  243        5.078535   1.000000
  244        5.082854   1.000000
  245        5.100229   1.000000
  246        5.103073   1.000000
  247        5.110088   1.000000
  248        5.119289   1.000000
  249        5.130096   1.000000
  250        5.130921   1.000000
  251        5.142164   1.000000
  252        5.153524   1.000000
  253        5.161419   1.000000
  254        5.167598   1.000000
  255        5.177905   1.000000
  256        5.186522   1.000000
  257        5.199917   1.000000
  258        5.208059   1.000000
  259        5.217324   1.000000
  260        5.223699   1.000000
  261        5.231517   1.000000
  262        5.253366   1.000000
  263        5.262845   1.000000
  264        5.268994   1.000000
  265        5.285562   1.000000
  266        5.299404   1.000000
  267        5.301963   1.000000
  268        5.308358   1.000000
  269        5.315813   1.000000
  270        5.335845   1.000000
  271        5.340230   1.000000
  272        5.346575   1.000000
  273        5.354010   1.000000
  274        5.361203   1.000000
  275        5.367959   1.000000
  276        5.381175   1.000000
  277        5.389286   1.000000
  278        5.399076   1.000000
  279        5.410876   1.000000
  280        5.415766   1.000000
  281        5.423560   1.000000
  282        5.431187   1.000000
  283        5.440754   1.000000
  284        5.448089   1.000000
  285        5.450377   1.000000
  286        5.458546   1.000000
  287        5.465679   1.000000
  288        5.474174   1.000000
  289        5.488271   1.000000
  290        5.488926   1.000000
  291        5.500576   1.000000
  292        5.505331   1.000000
  293        5.518132   1.000000
  294        5.523381   1.000000
  295        5.531175   1.000000
  296        5.535659   1.000000
  297        5.545079   1.000000
  298        5.546849   1.000000
  299        5.557207   1.000000
  300        5.563953   1.000000
  301        5.572851   1.000000
  302        5.577035   1.000000
  303        5.586316   1.000000
  304        5.597764   1.000000
  305        5.602882   1.000000
  306        5.607243   1.000000
  307        5.616468   1.000000
  308        5.623345   1.000000
  309        5.626499   1.000000
  310        5.635304   1.000000
  311        5.641089   1.000000
  312        5.650692   1.000000
  313        5.653119   1.000000
  314        5.662275   1.000000
  315        5.676788   1.000000
  316        5.686664   1.000000
  317        5.688116   1.000000
  318        5.691490   1.000000
  319        5.701125   1.000000
  320        5.704723   1.000000
  321        5.713889   1.000000
  322        5.721154   1.000000
  323        5.735363   1.000000
  324        5.751794   1.000000
  325        5.755802   1.000000
  326        5.764942   1.000000
  327        5.768740   1.000000
  328        5.779614   1.000000
  329        5.793550   1.000000
  330        5.796023   1.000000
  331        5.819559   1.000000
  332        5.825223   1.000000
  333        5.844362   1.000000
  334        5.854275   1.000000
  335        5.863208   1.000000
  336        5.871985   1.000000
  337        5.892190   1.000000
  338        5.899850   1.000000
  339        5.915859   1.000000
  340        5.925261   1.000000
  341        5.930140   1.000000
  342        5.954138   1.000000
  343        5.959814   1.000000
  344        5.971903   1.000000
  345        5.982529   1.000000
  346        5.996351   1.000000
  347        6.022753   1.000000
  348        6.040874   1.000000
  349        6.059806   1.000000
  350        6.080564   1.000000
  351        6.112450   1.000000
  352        6.128752   1.000000
  353        6.142837   1.000000
  354        6.160420   1.000000
  355        6.179162   1.000001
  356        6.192865   1.000001
  357        6.199427   1.000001
  358        6.211067   1.000002
  359        6.227214   1.000003
  360        6.231219   1.000004
  361        6.252522   1.000007
  362        6.265903   1.000011
  363        6.276029   1.000015
  364        6.281058   1.000018
  365        6.300540   1.000032
  366        6.314279   1.000049
  367        6.322337   1.000061
  368        6.332189   1.000081
  369        6.340930   1.000104
  370        6.347915   1.000126
  371        6.359154   1.000170
  372        6.369362   1.000223
  373        6.376756   1.000271
  374        6.382310   1.000312
  375        6.393237   1.000411
  376        6.395536   1.000435
  377        6.414294   1.000684
  378        6.416839   1.000727
  379        6.427002   1.000920
  380        6.434753   1.001097
  381        6.440293   1.001242
  382        6.452364   1.001615
  383        6.459454   1.001878
  384        6.464113   1.002070
  385        6.474577   1.002563
  386        6.483443   1.003057