 running on   12 total cores
 distrk:  each k-point on   12 cores,    1 groups
 distr:  one band on    4 cores,    3 groups
 using from now: INCAR     
 vasp.5.4.1 24Jun15 (build Jun 21 2019 17:19:10) complex                        
  
 POSCAR found type information on POSCAR  Fe Te
 POSCAR found :  2 types and     107 ions
 scaLAPACK will be used
 LDA part: xc-table for Pade appr. of Perdew
 POSCAR found type information on POSCAR  Fe Te
 POSCAR found :  2 types and     107 ions
 POSCAR, INCAR and KPOINTS ok, starting setup
 FFT: planning ...
 WAVECAR not read
 entering main loop
       N       E                     dE             d eps       ncg     rms          rms(c)
DAV:   1     0.750387186434E+04    0.75039E+04   -0.28527E+05 32922   0.182E+03
DAV:   2    -0.133578268490E+02   -0.75172E+04   -0.73485E+04 32832   0.456E+02
DAV:   3    -0.832947785863E+03   -0.81959E+03   -0.70099E+03 33048   0.191E+02
DAV:   4    -0.100639244469E+04   -0.17344E+03   -0.16252E+03 59895   0.571E+01
DAV:   5    -0.102114774865E+04   -0.14755E+02   -0.13936E+02 52776   0.216E+01    0.922E+01
RMM:   6    -0.880965619307E+03    0.14018E+03   -0.14074E+03 32832   0.112E+02    0.475E+01
RMM:   7    -0.116814278809E+04   -0.28718E+03   -0.60900E+02 40715   0.467E+01    0.176E+02
RMM:   8    -0.902291145715E+03    0.26585E+03   -0.26570E+02 32832   0.469E+01    0.718E+01
RMM:   9    -0.862551452935E+03    0.39740E+02   -0.68553E+01 32862   0.196E+01    0.240E+01
RMM:  10    -0.862713121403E+03   -0.16167E+00   -0.36431E+01 45276   0.800E+00    0.124E+01
RMM:  11    -0.863779508910E+03   -0.10664E+01   -0.12799E+01 38710   0.602E+00    0.198E+01
RMM:  12    -0.861865323746E+03    0.19142E+01   -0.39569E+00 34840   0.447E+00    0.748E+00
RMM:  13    -0.861925242845E+03   -0.59919E-01   -0.30141E+00 42707   0.253E+00    0.946E+00
RMM:  14    -0.861483567964E+03    0.44167E+00   -0.10941E+00 34607   0.249E+00    0.719E+00
RMM:  15    -0.861409678815E+03    0.73889E-01   -0.72776E-01 42754   0.117E+00    0.628E+00
RMM:  16    -0.861262317096E+03    0.14736E+00   -0.30235E-01 34870   0.131E+00    0.444E+00
RMM:  17    -0.861170352968E+03    0.91964E-01   -0.23094E-01 35771   0.101E+00    0.168E+00
RMM:  18    -0.861200709782E+03   -0.30357E-01   -0.24910E-01 44263   0.705E-01    0.254E+00
RMM:  19    -0.861181660308E+03    0.19049E-01   -0.11647E-01 37622   0.617E-01    0.161E+00
RMM:  20    -0.861179548059E+03    0.21122E-02   -0.64778E-02 45843   0.318E-01    0.139E+00
RMM:  21    -0.861174794266E+03    0.47538E-02   -0.19436E-02 34682   0.335E-01    0.108E+00
RMM:  22    -0.861170824497E+03    0.39698E-02   -0.10204E-02 35198   0.227E-01    0.588E-01
RMM:  23    -0.861170848238E+03   -0.23741E-04   -0.70673E-03 43670   0.129E-01    0.560E-01
RMM:  24    -0.861169315500E+03    0.15327E-02   -0.24357E-03 35874   0.110E-01    0.145E-01
RMM:  25    -0.861169443839E+03   -0.12834E-03   -0.19916E-03 47254   0.492E-02    0.162E-01
RMM:  26    -0.861169357821E+03    0.86017E-04   -0.60565E-04 40207   0.395E-02    0.126E-01
RMM:  27    -0.861169293395E+03    0.64426E-04   -0.20105E-04 40554   0.277E-02    0.762E-02
RMM:  28    -0.861169282418E+03    0.10977E-04   -0.75916E-05 40240   0.203E-02    0.845E-02
RMM:  29    -0.861169228807E+03    0.53611E-04    0.18780E-05 34830   0.167E-02    0.302E-02
RMM:  30    -0.861169221206E+03    0.76013E-05    0.14993E-05 42856   0.955E-03    0.317E-02
RMM:  31    -0.861169199954E+03    0.21251E-04    0.31604E-05 36726   0.823E-03    0.170E-02
RMM:  32    -0.861169193635E+03    0.63194E-05    0.36338E-05 26655   0.383E-03    0.696E-03
RMM:  33    -0.861169189628E+03    0.40068E-05    0.34580E-05 21324   0.328E-03    0.103E-02
RMM:  34    -0.861169185273E+03    0.43551E-05    0.31673E-05 20430   0.385E-03    0.420E-03
RMM:  35    -0.861169182552E+03    0.27213E-05    0.27909E-05 19814   0.177E-03    0.426E-03
RMM:  36    -0.861169180628E+03    0.19236E-05    0.27907E-05 19601   0.219E-03    0.293E-03
RMM:  37    -0.861169178167E+03    0.24609E-05    0.24913E-05 19372   0.111E-03    0.122E-03
RMM:  38    -0.861169176166E+03    0.20018E-05    0.21607E-05 18284   0.932E-04    0.180E-03
RMM:  39    -0.861169174442E+03    0.17233E-05    0.19319E-05 17842   0.811E-04    0.606E-04
RMM:  40    -0.861169172657E+03    0.17858E-05    0.17942E-05 13184   0.591E-04    0.551E-04
RMM:  41    -0.861169171178E+03    0.14782E-05    0.16102E-05 13098   0.593E-04    0.533E-04
RMM:  42    -0.861169169624E+03    0.15541E-05    0.15795E-05  9406   0.434E-04    0.265E-04
RMM:  43    -0.861169168297E+03    0.13268E-05    0.13319E-05  9434   0.454E-04    0.432E-04
RMM:  44    -0.861169167072E+03    0.12256E-05    0.12282E-05  8159   0.396E-04    0.178E-04
RMM:  45    -0.861169165952E+03    0.11202E-05    0.11071E-05  7452   0.385E-04    0.182E-04
RMM:  46    -0.861169164919E+03    0.10324E-05    0.10178E-05  7186   0.364E-04    0.130E-04
RMM:  47    -0.861169163990E+03    0.92894E-06    0.91952E-06  6614   0.355E-04
   1 F= -.86116916E+03 E0= -.86116449E+03  d E =-.861169E+03
 curvature:   0.00 expect dE= 0.000E+00 dE for cont linesearch  0.000E+00
 trial: gam= 0.00000 g(F)=  0.240E+01 g(S)=  0.000E+00 ort = 0.000E+00 (trialstep = 0.100E+01)
 search vector abs. value=  0.240E+01
 bond charge predicted
       N       E                     dE             d eps       ncg     rms          rms(c)
DAV:   1    -0.862217216716E+03   -0.10481E+01   -0.47374E+02 32832   0.313E+01    0.119E+01
RMM:   2    -0.912818899628E+03   -0.50602E+02   -0.24433E+02 39098   0.343E+01    0.639E+01
RMM:   3    -0.865247281152E+03    0.47572E+02   -0.43808E+01 32832   0.204E+01    0.248E+01
RMM:   4    -0.862998233427E+03    0.22490E+01   -0.65984E+00 36992   0.442E+00    0.118E+01
RMM:   5    -0.862885328774E+03    0.11290E+00   -0.28386E+00 46960   0.190E+00    0.795E+00
RMM:   6    -0.862740932398E+03    0.14440E+00   -0.23003E+00 42372   0.222E+00    0.468E+00
RMM:   7    -0.862808744169E+03   -0.67812E-01   -0.83419E-01 47232   0.121E+00    0.591E+00
RMM:   8    -0.862637705210E+03    0.17104E+00   -0.24679E-01 33651   0.114E+00    0.294E+00
RMM:   9    -0.862611627844E+03    0.26077E-01   -0.18520E-01 34212   0.907E-01    0.187E+00
RMM:  10    -0.862692953236E+03   -0.81325E-01   -0.43331E-01 43570   0.102E+00    0.435E+00
RMM:  11    -0.862628528614E+03    0.64425E-01   -0.11170E-01 32961   0.789E-01    0.261E+00
RMM:  12    -0.862617596634E+03    0.10932E-01   -0.76550E-02 45261   0.371E-01    0.224E+00
RMM:  13    -0.862593434304E+03    0.24162E-01   -0.27706E-02 34158   0.365E-01    0.921E-01
RMM:  14    -0.862593504775E+03   -0.70471E-04   -0.22236E-02 49034   0.140E-01    0.651E-01
RMM:  15    -0.862592373986E+03    0.11308E-02   -0.93946E-03 42808   0.138E-01    0.371E-01
RMM:  16    -0.862591992964E+03    0.38102E-03   -0.40282E-03 42817   0.951E-02    0.182E-01
RMM:  17    -0.862592287542E+03   -0.29458E-03   -0.19170E-03 46196   0.537E-02    0.298E-01
RMM:  18    -0.862592019804E+03    0.26774E-03   -0.38483E-04 35520   0.422E-02    0.200E-01
RMM:  19    -0.862591989726E+03    0.30078E-04   -0.25459E-04 44015   0.225E-02    0.187E-01
RMM:  20    -0.862591838198E+03    0.15153E-03   -0.22416E-04 35334   0.307E-02    0.770E-02
RMM:  21    -0.862591827407E+03    0.10791E-04   -0.15295E-04 47431   0.150E-02    0.355E-02
RMM:  22    -0.862591830198E+03   -0.27907E-05   -0.53984E-05 43384   0.102E-02    0.378E-02
RMM:  23    -0.862591825435E+03    0.47631E-05   -0.19373E-05 36959   0.846E-03    0.206E-02
RMM:  24    -0.862591826184E+03   -0.74894E-06   -0.88879E-06 34088   0.450E-03
   2 F= -.86259183E+03 E0= -.86258817E+03  d E =-.142266E+01
 trial-energy change:   -1.422662  1 .order   -1.431906   -2.398802   -0.465010
 step:   1.2494(harm=  1.2405)  dis= 0.08568  next Energy=  -862.649670 (dE=-0.148E+01)
 bond charge predicted
       N       E                     dE             d eps       ncg     rms          rms(c)
DAV:   1    -0.862636120015E+03   -0.44295E-01   -0.28580E+01 32904   0.755E+00    0.212E+00
RMM:   2    -0.864716517596E+03   -0.20804E+01   -0.60792E+00 35222   0.564E+00    0.180E+01
RMM:   3    -0.862688935980E+03    0.20276E+01   -0.14124E+00 32832   0.367E+00    0.297E+00
RMM:   4    -0.862652823105E+03    0.36113E-01   -0.29880E-01 45480   0.682E-01    0.106E+00
RMM:   5    -0.862667947477E+03   -0.15124E-01   -0.12305E-01 42058   0.530E-01    0.187E+00
RMM:   6    -0.862652263180E+03    0.15684E-01   -0.49966E-02 36173   0.429E-01    0.735E-01
RMM:   7    -0.862656880139E+03   -0.46170E-02   -0.38577E-02 43857   0.279E-01    0.117E+00
RMM:   8    -0.862652406413E+03    0.44737E-02   -0.12400E-02 33416   0.248E-01    0.813E-01
RMM:   9    -0.862649401009E+03    0.30054E-02   -0.63814E-03 34133   0.179E-01    0.302E-01
RMM:  10    -0.862649927408E+03   -0.52640E-03   -0.54256E-03 43453   0.108E-01    0.428E-01
RMM:  11    -0.862649015040E+03    0.91237E-03   -0.13440E-03 34262   0.867E-02    0.110E-01
RMM:  12    -0.862649086410E+03   -0.71370E-04   -0.11243E-03 46426   0.397E-02    0.123E-01
RMM:  13    -0.862649071558E+03    0.14852E-04   -0.27568E-04 38465   0.272E-02    0.107E-01
RMM:  14    -0.862649019588E+03    0.51970E-04   -0.11831E-04 36095   0.220E-02    0.368E-02
RMM:  15    -0.862649037492E+03   -0.17904E-04   -0.12058E-04 42893   0.173E-02    0.659E-02
RMM:  16    -0.862649018497E+03    0.18995E-04   -0.33015E-05 34362   0.136E-02    0.261E-02
RMM:  17    -0.862649019732E+03   -0.12353E-05   -0.25920E-05 42099   0.687E-03    0.273E-02
RMM:  18    -0.862649017045E+03    0.26873E-05   -0.69075E-06 30124   0.605E-03    0.124E-02
RMM:  19    -0.862649016547E+03    0.49784E-06   -0.21256E-06 21111   0.386E-03
   3 F= -.86264902E+03 E0= -.86264492E+03  d E =-.147985E+01
 curvature:  -0.62 expect dE=-0.722E-01 dE for cont linesearch -0.424E-04
 trial: gam= 0.05391 g(F)=  0.117E+00 g(S)=  0.000E+00 ort =-0.128E-01 (trialstep = 0.105E+01)
 search vector abs. value=  0.122E+00
 bond charge predicted
       N       E                     dE             d eps       ncg     rms          rms(c)
DAV:   1    -0.862730272601E+03   -0.81256E-01   -0.25168E+01 32832   0.715E+00    0.195E+00
RMM:   2    -0.865306506821E+03   -0.25762E+01   -0.57489E+00 36565   0.491E+00    0.215E+01
RMM:   3    -0.862802010652E+03    0.25045E+01   -0.13997E+00 32832   0.341E+00    0.344E+00
RMM:   4    -0.862736346924E+03    0.65664E-01   -0.47259E-01 40688   0.841E-01    0.113E+00
RMM:   5    -0.862758114298E+03   -0.21767E-01   -0.20058E-01 46588   0.515E-01    0.190E+00
RMM:   6    -0.862742463420E+03    0.15651E-01   -0.48896E-02 36842   0.373E-01    0.752E-01
RMM:   7    -0.862744365895E+03   -0.19025E-02   -0.35046E-02 45587   0.249E-01    0.907E-01
RMM:   8    -0.862741633465E+03    0.27324E-02   -0.12202E-02 33562   0.241E-01    0.727E-01
RMM:   9    -0.862739180440E+03    0.24530E-02   -0.58568E-03 33057   0.191E-01    0.318E-01
RMM:  10    -0.862740394967E+03   -0.12145E-02   -0.63088E-03 38618   0.143E-01    0.568E-01
RMM:  11    -0.862738763729E+03    0.16312E-02   -0.18450E-03 33119   0.113E-01    0.128E-01
RMM:  12    -0.862738778081E+03   -0.14352E-04   -0.10886E-03 45918   0.403E-02    0.110E-01
RMM:  13    -0.862738792222E+03   -0.14141E-04   -0.33527E-04 38362   0.313E-02    0.115E-01
RMM:  14    -0.862738726730E+03    0.65492E-04   -0.11655E-04 34979   0.255E-02    0.312E-02
RMM:  15    -0.862738739994E+03   -0.13265E-04   -0.10285E-04 42231   0.150E-02    0.536E-02
RMM:  16    -0.862738730157E+03    0.98372E-05   -0.31371E-05 35630   0.117E-02    0.274E-02
RMM:  17    -0.862738729941E+03    0.21615E-06   -0.20774E-05 39455   0.696E-03    0.242E-02
RMM:  18    -0.862738728394E+03    0.15474E-05   -0.63761E-06 29331   0.590E-03    0.160E-02
RMM:  19    -0.862738727295E+03    0.10984E-05   -0.19903E-06 20518   0.416E-03    0.718E-03
RMM:  20    -0.862738727579E+03   -0.28338E-06   -0.14716E-06 19284   0.286E-03
   4 F= -.86273873E+03 E0= -.86273369E+03  d E =-.897110E-01
 trial-energy change:   -0.089711  1 .order   -0.089809   -0.121600   -0.058018
 step:   2.0079(harm=  2.0079)  dis= 0.05478  next Energy=  -862.765296 (dE=-0.116E+00)
 bond charge predicted
       N       E                     dE             d eps       ncg     rms          rms(c)
DAV:   1    -0.862758156023E+03   -0.19429E-01   -0.20948E+01 32832   0.652E+00    0.175E+00
RMM:   2    -0.864860073714E+03   -0.21019E+01   -0.46519E+00 36583   0.440E+00    0.195E+01
RMM:   3    -0.862811567432E+03    0.20485E+01   -0.11329E+00 32832   0.307E+00    0.290E+00
RMM:   4    -0.862763651743E+03    0.47916E-01   -0.39428E-01 41445   0.742E-01    0.991E-01
RMM:   5    -0.862781422823E+03   -0.17771E-01   -0.16147E-01 46831   0.458E-01    0.173E+00
RMM:   6    -0.862768215163E+03    0.13208E-01   -0.39301E-02 36745   0.341E-01    0.645E-01
RMM:   7    -0.862770372329E+03   -0.21572E-02   -0.29398E-02 45651   0.229E-01    0.873E-01
RMM:   8    -0.862767027699E+03    0.33446E-02   -0.85455E-03 33456   0.204E-01    0.561E-01
RMM:   9    -0.862765713634E+03    0.13141E-02   -0.45018E-03 33589   0.160E-01    0.290E-01
RMM:  10    -0.862766571049E+03   -0.85741E-03   -0.46751E-03 38862   0.121E-01    0.484E-01
RMM:  11    -0.862765379305E+03    0.11917E-02   -0.12632E-03 33171   0.916E-02    0.118E-01
RMM:  12    -0.862765379833E+03   -0.52784E-06   -0.87822E-04 45581   0.365E-02    0.913E-02
RMM:  13    -0.862765396595E+03   -0.16762E-04   -0.26726E-04 38232   0.283E-02    0.102E-01
RMM:  14    -0.862765345990E+03    0.50605E-04   -0.89603E-05 35050   0.222E-02    0.280E-02
RMM:  15    -0.862765356455E+03   -0.10465E-04   -0.77618E-05 41629   0.133E-02    0.482E-02
RMM:  16    -0.862765347990E+03    0.84651E-05   -0.23255E-05 35356   0.105E-02    0.230E-02
RMM:  17    -0.862765347986E+03    0.35652E-08   -0.14891E-05 36436   0.606E-03    0.208E-02
RMM:  18    -0.862765346992E+03    0.99469E-06   -0.43389E-06 25561   0.505E-03
   5 F= -.86276535E+03 E0= -.86275954E+03  d E =-.116330E+00
 curvature:  -1.06 expect dE=-0.157E-01 dE for cont linesearch -0.434E-05
 trial: gam= 0.14432 g(F)=  0.148E-01 g(S)=  0.000E+00 ort = 0.708E-03 (trialstep = 0.124E+01)
 search vector abs. value=  0.176E-01
 bond charge predicted
       N       E                     dE             d eps       ncg     rms          rms(c)
DAV:   1    -0.862775715139E+03   -0.10367E-01   -0.45433E+00 33336   0.301E+00    0.726E-01
RMM:   2    -0.863103894663E+03   -0.32818E+00   -0.75669E-01 36286   0.184E+00    0.779E+00
RMM:   3    -0.862788209386E+03    0.31569E+00   -0.18213E-01 32832   0.125E+00    0.123E+00
RMM:   4    -0.862778397413E+03    0.98120E-02   -0.59234E-02 41223   0.313E-01    0.392E-01
RMM:   5    -0.862781678899E+03   -0.32815E-02   -0.26207E-02 46213   0.197E-01    0.786E-01
RMM:   6    -0.862778956988E+03    0.27219E-02   -0.72521E-03 36333   0.153E-01    0.270E-01
RMM:   7    -0.862779483865E+03   -0.52688E-03   -0.58402E-03 45488   0.106E-01    0.407E-01
RMM:   8    -0.862779003107E+03    0.48076E-03   -0.20132E-03 33581   0.998E-02    0.316E-01
RMM:   9    -0.862778504012E+03    0.49909E-03   -0.99284E-04 32919   0.804E-02    0.115E-01
RMM:  10    -0.862778614816E+03   -0.11080E-03   -0.83367E-04 40373   0.490E-02    0.175E-01
RMM:  11    -0.862778460171E+03    0.15464E-03   -0.21825E-04 33802   0.359E-02    0.441E-02
RMM:  12    -0.862778465549E+03   -0.53772E-05   -0.16614E-04 47608   0.141E-02    0.382E-02
RMM:  13    -0.862778467439E+03   -0.18905E-05   -0.36952E-05 37411   0.109E-02    0.413E-02
RMM:  14    -0.862778459253E+03    0.81858E-05   -0.13515E-05 33010   0.850E-03    0.126E-02
RMM:  15    -0.862778461006E+03   -0.17528E-05   -0.12388E-05 35516   0.585E-03    0.207E-02
RMM:  16    -0.862778459104E+03    0.19018E-05   -0.33613E-06 22632   0.500E-03    0.710E-03
RMM:  17    -0.862778459180E+03   -0.75466E-07   -0.15633E-06 19016   0.297E-03
   6 F= -.86277846E+03 E0= -.86277265E+03  d E =-.131122E-01
 trial-energy change:   -0.013112  1 .order   -0.013174   -0.018521   -0.007828
 step:   2.2104(harm=  2.1503)  dis= 0.02675  next Energy=  -862.781484 (dE=-0.161E-01)
 bond charge predicted
       N       E                     dE             d eps       ncg     rms          rms(c)
DAV:   1    -0.862779566477E+03   -0.11074E-02   -0.27671E+00 33012   0.235E+00    0.559E-01
RMM:   2    -0.862975274897E+03   -0.19571E+00   -0.45240E-01 36376   0.141E+00    0.602E+00
RMM:   3    -0.862786650313E+03    0.18862E+00   -0.10916E-01 32832   0.964E-01    0.919E-01
RMM:   4    -0.862781215403E+03    0.54349E-02   -0.36374E-02 41854   0.238E-01    0.299E-01
RMM:   5    -0.862783161530E+03   -0.19461E-02   -0.15516E-02 45903   0.152E-01    0.608E-01
RMM:   6    -0.862781525116E+03    0.16364E-02   -0.43624E-03 36366   0.119E-01    0.204E-01
RMM:   7    -0.862781877727E+03   -0.35261E-03   -0.35566E-03 45181   0.832E-02    0.324E-01
RMM:   8    -0.862781541476E+03    0.33625E-03   -0.11531E-03 33485   0.758E-02    0.238E-01
RMM:   9    -0.862781260022E+03    0.28145E-03   -0.58239E-04 33010   0.612E-02    0.878E-02
RMM:  10    -0.862781324741E+03   -0.64719E-04   -0.49760E-04 40730   0.374E-02    0.133E-01
RMM:  11    -0.862781235433E+03    0.89308E-04   -0.13028E-04 33898   0.275E-02    0.324E-02
RMM:  12    -0.862781239402E+03   -0.39689E-05   -0.98684E-05 47354   0.106E-02    0.301E-02
RMM:  13    -0.862781240009E+03   -0.60753E-06   -0.20699E-05 36403   0.812E-03    0.310E-02
RMM:  14    -0.862781235506E+03    0.45029E-05   -0.75915E-06 29510   0.638E-03    0.102E-02
RMM:  15    -0.862781236387E+03   -0.88085E-06   -0.55802E-06 27596   0.462E-03
   7 F= -.86278124E+03 E0= -.86277543E+03  d E =-.158894E-01
 curvature:  -1.26 expect dE=-0.465E-02 dE for cont linesearch -0.253E-04
 trial: gam= 0.29154 g(F)=  0.369E-02 g(S)=  0.000E+00 ort =-0.594E-03 (trialstep = 0.144E+01)
 search vector abs. value=  0.484E-02
 bond charge predicted
       N       E                     dE             d eps       ncg     rms          rms(c)
DAV:   1    -0.862783884535E+03   -0.26490E-02   -0.18261E+00 33228   0.189E+00    0.365E-01
RMM:   2    -0.862843023088E+03   -0.59139E-01   -0.16014E-01 34573   0.925E-01    0.327E+00
RMM:   3    -0.862786671186E+03    0.56352E-01   -0.41349E-02 32832   0.617E-01    0.429E-01
RMM:   4    -0.862785340058E+03    0.13311E-02   -0.75464E-03 44827   0.122E-01    0.211E-01
RMM:   5    -0.862785631268E+03   -0.29121E-03   -0.34003E-03 42658   0.856E-02    0.351E-01
RMM:   6    -0.862785030686E+03    0.60058E-03   -0.11276E-03 34972   0.690E-02    0.127E-01
RMM:   7    -0.862785436422E+03   -0.40574E-03   -0.22285E-03 40155   0.810E-02    0.311E-01
RMM:   8    -0.862784980440E+03    0.45598E-03   -0.61489E-04 32866   0.623E-02    0.126E-01
RMM:   9    -0.862784912818E+03    0.67622E-04   -0.29001E-04 37349   0.333E-02    0.538E-02
RMM:  10    -0.862784939202E+03   -0.26384E-04   -0.20578E-04 40889   0.227E-02    0.812E-02
RMM:  11    -0.862784905626E+03    0.33576E-04   -0.53639E-05 34225   0.173E-02    0.186E-02
RMM:  12    -0.862784907987E+03   -0.23616E-05   -0.40095E-05 42189   0.576E-03    0.198E-02
RMM:  13    -0.862784907361E+03    0.62673E-06   -0.59485E-06 27095   0.518E-03
   8 F= -.86278491E+03 E0= -.86277895E+03  d E =-.367097E-02
 trial-energy change:   -0.003671  1 .order   -0.003689   -0.005050   -0.002328
 step:   2.7656(harm=  2.6626)  dis= 0.01945  next Energy=  -862.785972 (dE=-0.474E-02)
 bond charge predicted
       N       E                     dE             d eps       ncg     rms          rms(c)
DAV:   1    -0.862785004492E+03   -0.96504E-04   -0.15686E+00 32832   0.175E+00    0.339E-01
RMM:   2    -0.862836532513E+03   -0.51528E-01   -0.13829E-01 34631   0.857E-01    0.307E+00
RMM:   3    -0.862787419420E+03    0.49113E-01   -0.35787E-02 32832   0.573E-01    0.401E-01
RMM:   4    -0.862786253694E+03    0.11657E-02   -0.65936E-03 44814   0.114E-01    0.196E-01
RMM:   5    -0.862786534200E+03   -0.28051E-03   -0.29180E-03 42895   0.784E-02    0.330E-01
RMM:   6    -0.862785992045E+03    0.54216E-03   -0.98036E-04 35124   0.634E-02    0.119E-01
RMM:   7    -0.862786327222E+03   -0.33518E-03   -0.18963E-03 39563   0.764E-02    0.282E-01
RMM:   8    -0.862785945740E+03    0.38148E-03   -0.53132E-04 32896   0.581E-02    0.115E-01
RMM:   9    -0.862785890253E+03    0.55486E-04   -0.24047E-04 37271   0.306E-02    0.495E-02
RMM:  10    -0.862785912496E+03   -0.22243E-04   -0.17212E-04 40747   0.209E-02    0.746E-02
RMM:  11    -0.862785884027E+03    0.28469E-04   -0.45012E-05 34298   0.159E-02    0.169E-02
RMM:  12    -0.862785886021E+03   -0.19938E-05   -0.33196E-05 40870   0.527E-03    0.180E-02
RMM:  13    -0.862785885591E+03    0.42995E-06   -0.47064E-06 24976   0.479E-03
   9 F= -.86278589E+03 E0= -.86277978E+03  d E =-.464920E-02
 curvature:  -1.82 expect dE=-0.366E-02 dE for cont linesearch -0.582E-05
 trial: gam= 0.50844 g(F)=  0.202E-02 g(S)=  0.000E+00 ort =-0.124E-03 (trialstep = 0.170E+01)
 search vector abs. value=  0.314E-02
 bond charge predicted
       N       E                     dE             d eps       ncg     rms          rms(c)
DAV:   1    -0.862786595914E+03   -0.70989E-03   -0.14582E+00 32850   0.172E+00    0.296E-01
RMM:   2    -0.862837089973E+03   -0.50494E-01   -0.12776E-01 36187   0.776E-01    0.299E+00
RMM:   3    -0.862789394253E+03    0.47696E-01   -0.28768E-02 32840   0.494E-01    0.451E-01
RMM:   4    -0.862788135839E+03    0.12584E-02   -0.95305E-03 43790   0.121E-01    0.176E-01
RMM:   5    -0.862788506980E+03   -0.37114E-03   -0.37126E-03 44150   0.807E-02    0.313E-01
RMM:   6    -0.862787986557E+03    0.52042E-03   -0.12854E-03 36113   0.663E-02    0.107E-01
RMM:   7    -0.862788287456E+03   -0.30090E-03   -0.16175E-03 41266   0.638E-02    0.269E-01
RMM:   8    -0.862787965022E+03    0.32243E-03   -0.51938E-04 32941   0.524E-02    0.134E-01
RMM:   9    -0.862787877749E+03    0.87274E-04   -0.20220E-04 34567   0.324E-02    0.509E-02
RMM:  10    -0.862787906075E+03   -0.28326E-04   -0.20295E-04 42343   0.214E-02    0.848E-02
RMM:  11    -0.862787872566E+03    0.33509E-04   -0.53171E-05 34476   0.163E-02    0.202E-02
RMM:  12    -0.862787873938E+03   -0.13717E-05   -0.38002E-05 41303   0.620E-03    0.186E-02
RMM:  13    -0.862787874490E+03   -0.55195E-06   -0.72450E-06 28368   0.501E-03
  10 F= -.86278787E+03 E0= -.86278163E+03  d E =-.198890E-02
 trial-energy change:   -0.001989  1 .order   -0.001957   -0.003322   -0.000591
 step:   2.0405(harm=  2.0694)  dis= 0.00682  next Energy=  -862.787934 (dE=-0.205E-02)
 bond charge predicted
       N       E                     dE             d eps       ncg     rms          rms(c)
DAV:   1    -0.862787893840E+03   -0.19903E-04   -0.57967E-02 34020   0.342E-01    0.629E-02
RMM:   2    -0.862790168601E+03   -0.22748E-02   -0.56665E-03 36198   0.162E-01    0.638E-01
RMM:   3    -0.862788013265E+03    0.21553E-02   -0.13062E-03 32836   0.105E-01    0.989E-02
RMM:   4    -0.862787952915E+03    0.60350E-04   -0.43476E-04 43143   0.264E-02    0.367E-02
RMM:   5    -0.862787971138E+03   -0.18223E-04   -0.17106E-04 45035   0.169E-02    0.662E-02
RMM:   6    -0.862787948471E+03    0.22667E-04   -0.56631E-05 36215   0.137E-02    0.223E-02
RMM:   7    -0.862787959999E+03   -0.11528E-04   -0.65523E-05 41952   0.126E-02    0.530E-02
RMM:   8    -0.862787947943E+03    0.12055E-04   -0.21345E-05 33119   0.105E-02    0.282E-02
RMM:   9    -0.862787944151E+03    0.37922E-05   -0.81460E-06 30454   0.658E-03    0.109E-02
RMM:  10    -0.862787945043E+03   -0.89138E-06   -0.58562E-06 28138   0.447E-03
  11 F= -.86278795E+03 E0= -.86278167E+03  d E =-.205945E-02
 curvature:  -1.65 expect dE=-0.647E-03 dE for cont linesearch -0.140E-05
 trial: gam= 0.14445 g(F)=  0.391E-03 g(S)=  0.000E+00 ort = 0.516E-04 (trialstep = 0.177E+01)
 search vector abs. value=  0.472E-03
 bond charge predicted
       N       E                     dE             d eps       ncg     rms          rms(c)
DAV:   1    -0.862788163963E+03   -0.21981E-03   -0.26882E-01 33372   0.737E-01    0.132E-01
RMM:   2    -0.862798647304E+03   -0.10483E-01   -0.23717E-02 36142   0.339E-01    0.140E+00
RMM:   3    -0.862788762077E+03    0.98852E-02   -0.54586E-03 32841   0.217E-01    0.227E-01
RMM:   4    -0.862788397837E+03    0.36424E-03   -0.17207E-03 40542   0.588E-02    0.752E-02
RMM:   5    -0.862788481960E+03   -0.84123E-04   -0.88327E-04 46624   0.380E-02    0.148E-01
RMM:   6    -0.862788377325E+03    0.10464E-03   -0.27619E-04 35621   0.337E-02    0.481E-02
RMM:   7    -0.862788457897E+03   -0.80572E-04   -0.40344E-04 41698   0.326E-02    0.135E-01
RMM:   8    -0.862788373986E+03    0.83912E-04   -0.96920E-05 32867   0.238E-02    0.583E-02
RMM:   9    -0.862788361344E+03    0.12642E-04   -0.64060E-05 41144   0.134E-02    0.274E-02
RMM:  10    -0.862788363240E+03   -0.18963E-05   -0.27804E-05 39455   0.888E-03    0.316E-02
RMM:  11    -0.862788358363E+03    0.48769E-05   -0.78410E-06 29583   0.631E-03    0.786E-03
RMM:  12    -0.862788358322E+03    0.41349E-07   -0.31692E-06 23076   0.277E-03
  12 F= -.86278836E+03 E0= -.86278207E+03  d E =-.413279E-03
 trial-energy change:   -0.000413  1 .order   -0.000410   -0.000705   -0.000115
 step:   2.1150(harm=  2.1150)  dis= 0.00177  next Energy=  -862.788367 (dE=-0.422E-03)
 reached required accuracy - stopping structural energy minimisation
