<?xml version="1.0" encoding="ISO-8859-1"?>
<modeling>
 <generator>
  <i name="program" type="string">vasp </i>
  <i name="version" type="string">5.4.1  </i>
  <i name="subversion" type="string">24Jun15 (build Jun 21 2019 17:19:10) complex                          parallel </i>
  <i name="platform" type="string">IFC91_ompi </i>
  <i name="date" type="string">2019 08 27 </i>
  <i name="time" type="string">00:54:12 </i>
 </generator>
 <incar>
  <i type="string" name="SYSTEM">Opt</i>
  <i type="int" name="ISTART">     0</i>
  <i type="string" name="PREC">normal</i>
  <i type="string" name="ALGO"> Fast</i>
  <i type="int" name="ISPIN">     1</i>
  <i type="int" name="ICHARG">     2</i>
  <i type="int" name="NELM">   400</i>
  <i type="int" name="IBRION">     2</i>
  <i name="EDIFF">      0.00000100</i>
  <i name="EDIFFG">     -0.01000000</i>
  <i type="int" name="NSW">   100</i>
  <i type="int" name="ISIF">     2</i>
  <i type="int" name="ISYM">     0</i>
  <i name="ENCUT">    400.00000000</i>
  <i type="int" name="NGX">    72</i>
  <i type="int" name="NGY">    72</i>
  <i type="int" name="NGZ">    72</i>
  <i name="POTIM">      0.50000000</i>
  <i type="string" name="LREAL">Auto</i>
  <i type="logical" name="LWAVE"> F  </i>
  <i type="logical" name="LCHARG"> F  </i>
  <v type="int" name="KPOINT_BSE">    -1     0     0     0</v>
  <i type="int" name="NELM">   400</i>
 </incar>
 <kpoints>
  <generation param="Monkhorst-Pack">
   <v type="int" name="divisions">       4        4        4 </v>
   <v name="usershift">      0.00000000       0.00000000       0.00000000 </v>
   <v name="genvec1">      0.25000000       0.00000000       0.00000000 </v>
   <v name="genvec2">      0.00000000       0.25000000       0.00000000 </v>
   <v name="genvec3">      0.00000000       0.00000000       0.25000000 </v>
   <v name="shift">      0.50000000       0.50000000       0.50000000 </v>
  </generation>
  <varray name="kpointlist" >
   <v>       0.12500000       0.12500000       0.12500000 </v>
   <v>       0.37500000       0.12500000       0.12500000 </v>
   <v>      -0.37500000       0.12500000       0.12500000 </v>
   <v>      -0.12500000       0.12500000       0.12500000 </v>
   <v>       0.12500000       0.37500000       0.12500000 </v>
   <v>       0.37500000       0.37500000       0.12500000 </v>
   <v>      -0.37500000       0.37500000       0.12500000 </v>
   <v>      -0.12500000       0.37500000       0.12500000 </v>
   <v>       0.12500000      -0.37500000       0.12500000 </v>
   <v>       0.37500000      -0.37500000       0.12500000 </v>
   <v>      -0.37500000      -0.37500000       0.12500000 </v>
   <v>      -0.12500000      -0.37500000       0.12500000 </v>
   <v>       0.12500000      -0.12500000       0.12500000 </v>
   <v>       0.37500000      -0.12500000       0.12500000 </v>
   <v>      -0.37500000      -0.12500000       0.12500000 </v>
   <v>      -0.12500000      -0.12500000       0.12500000 </v>
   <v>       0.12500000       0.12500000       0.37500000 </v>
   <v>       0.37500000       0.12500000       0.37500000 </v>
   <v>      -0.37500000       0.12500000       0.37500000 </v>
   <v>      -0.12500000       0.12500000       0.37500000 </v>
   <v>       0.12500000       0.37500000       0.37500000 </v>
   <v>       0.37500000       0.37500000       0.37500000 </v>
   <v>      -0.37500000       0.37500000       0.37500000 </v>
   <v>      -0.12500000       0.37500000       0.37500000 </v>
   <v>       0.12500000      -0.37500000       0.37500000 </v>
   <v>       0.37500000      -0.37500000       0.37500000 </v>
   <v>      -0.37500000      -0.37500000       0.37500000 </v>
   <v>      -0.12500000      -0.37500000       0.37500000 </v>
   <v>       0.12500000      -0.12500000       0.37500000 </v>
   <v>       0.37500000      -0.12500000       0.37500000 </v>
   <v>      -0.37500000      -0.12500000       0.37500000 </v>
   <v>      -0.12500000      -0.12500000       0.37500000 </v>
  </varray>
  <varray name="weights" >
   <v>       0.03125000 </v>
   <v>       0.03125000 </v>
   <v>       0.03125000 </v>
   <v>       0.03125000 </v>
   <v>       0.03125000 </v>
   <v>       0.03125000 </v>
   <v>       0.03125000 </v>
   <v>       0.03125000 </v>
   <v>       0.03125000 </v>
   <v>       0.03125000 </v>
   <v>       0.03125000 </v>
   <v>       0.03125000 </v>
   <v>       0.03125000 </v>
   <v>       0.03125000 </v>
   <v>       0.03125000 </v>
   <v>       0.03125000 </v>
   <v>       0.03125000 </v>
   <v>       0.03125000 </v>
   <v>       0.03125000 </v>
   <v>       0.03125000 </v>
   <v>       0.03125000 </v>
   <v>       0.03125000 </v>
   <v>       0.03125000 </v>
   <v>       0.03125000 </v>
   <v>       0.03125000 </v>
   <v>       0.03125000 </v>
   <v>       0.03125000 </v>
   <v>       0.03125000 </v>
   <v>       0.03125000 </v>
   <v>       0.03125000 </v>
   <v>       0.03125000 </v>
   <v>       0.03125000 </v>
  </varray>
 </kpoints>
 <parameters>
  <separator name="general" >
   <i type="string" name="SYSTEM">Opt</i>
   <i type="logical" name="LCOMPAT"> F  </i>
  </separator>
  <separator name="electronic" >
   <i type="string" name="PREC">normal</i>
   <i name="ENMAX">    400.00000000</i>
   <i name="ENAUG">    511.36800000</i>
   <i name="EDIFF">      0.00000100</i>
   <i type="int" name="IALGO">    68</i>
   <i type="int" name="IWAVPR">    11</i>
   <i type="int" name="NBANDS">   513</i>
   <i name="NELECT">    854.00000000</i>
   <i type="int" name="TURBO">     0</i>
   <i type="int" name="IRESTART">     0</i>
   <i type="int" name="NREBOOT">     0</i>
   <i type="int" name="NMIN">     0</i>
   <i name="EREF">      0.00000000</i>
   <separator name="electronic smearing" >
    <i type="int" name="ISMEAR">     1</i>
    <i name="SIGMA">      0.20000000</i>
    <i name="KSPACING">      0.50000000</i>
    <i type="logical" name="KGAMMA"> T  </i>
   </separator>
   <separator name="electronic projectors" >
    <i type="logical" name="LREAL"> T  </i>
    <v name="ROPT">     -0.00050000     -0.00050000</v>
    <i type="int" name="LMAXPAW">  -100</i>
    <i type="int" name="LMAXMIX">     2</i>
    <i type="logical" name="NLSPLINE"> F  </i>
   </separator>
   <separator name="electronic startup" >
    <i type="int" name="ISTART">     0</i>
    <i type="int" name="ICHARG">     2</i>
    <i type="int" name="INIWAV">     1</i>
   </separator>
   <separator name="electronic spin" >
    <i type="int" name="ISPIN">     1</i>
    <i type="logical" name="LNONCOLLINEAR"> F  </i>
    <v name="MAGMOM">      1.00000000      1.00000000      1.00000000      1.00000000      1.00000000      1.00000000      1.00000000      1.00000000      1.00000000      1.00000000      1.00000000      1.00000000      1.00000000      1.00000000      1.00000000      1.00000000      1.00000000      1.00000000      1.00000000      1.00000000
      1.00000000      1.00000000      1.00000000      1.00000000      1.00000000      1.00000000      1.00000000      1.00000000      1.00000000      1.00000000      1.00000000      1.00000000      1.00000000      1.00000000      1.00000000      1.00000000      1.00000000      1.00000000      1.00000000      1.00000000
      1.00000000      1.00000000      1.00000000      1.00000000      1.00000000      1.00000000      1.00000000      1.00000000      1.00000000      1.00000000      1.00000000      1.00000000      1.00000000      1.00000000      1.00000000      1.00000000      1.00000000      1.00000000      1.00000000      1.00000000
      1.00000000      1.00000000      1.00000000      1.00000000      1.00000000      1.00000000      1.00000000      1.00000000      1.00000000      1.00000000      1.00000000      1.00000000      1.00000000      1.00000000      1.00000000      1.00000000      1.00000000      1.00000000      1.00000000      1.00000000
      1.00000000      1.00000000      1.00000000      1.00000000      1.00000000      1.00000000      1.00000000      1.00000000      1.00000000      1.00000000      1.00000000      1.00000000      1.00000000      1.00000000      1.00000000      1.00000000      1.00000000      1.00000000      1.00000000      1.00000000
      1.00000000      1.00000000      1.00000000      1.00000000      1.00000000      1.00000000      1.00000000</v>
    <i name="NUPDOWN">     -1.00000000</i>
    <i type="logical" name="LSORBIT"> F  </i>
    <v name="SAXIS">      0.00000000      0.00000000      1.00000000</v>
    <i type="logical" name="LSPIRAL"> F  </i>
    <v name="QSPIRAL">      0.00000000      0.00000000      0.00000000</v>
    <i type="logical" name="LZEROZ"> F  </i>
   </separator>
   <separator name="electronic exchange-correlation" >
    <i type="logical" name="LASPH"> F  </i>
    <i type="logical" name="LMETAGGA"> F  </i>
   </separator>
   <separator name="electronic convergence" >
    <i type="int" name="NELM">   400</i>
    <i type="int" name="NELMDL">    -5</i>
    <i type="int" name="NELMIN">     2</i>
    <i name="ENINI">    400.00000000</i>
    <separator name="electronic convergence detail" >
     <i type="logical" name="LDIAG"> T  </i>
     <i type="logical" name="LSUBROT"> F  </i>
     <i name="WEIMIN">      0.00100000</i>
     <i name="EBREAK">      0.00000000</i>
     <i name="DEPER">      0.30000000</i>
     <i type="int" name="NRMM">     4</i>
     <i name="TIME">      0.40000000</i>
    </separator>
   </separator>
   <separator name="electronic mixer" >
    <i name="AMIX">      0.40000000</i>
    <i name="BMIX">      1.00000000</i>
    <i name="AMIN">      0.10000000</i>
    <i name="AMIX_MAG">      1.60000000</i>
    <i name="BMIX_MAG">      1.00000000</i>
    <separator name="electronic mixer details" >
     <i type="int" name="IMIX">     4</i>
     <i type="logical" name="MIXFIRST"> F  </i>
     <i type="int" name="MAXMIX">   -45</i>
     <i name="WC">    100.00000000</i>
     <i type="int" name="INIMIX">     1</i>
     <i type="int" name="MIXPRE">     1</i>
     <i type="int" name="MREMOVE">     5</i>
    </separator>
   </separator>
   <separator name="electronic dipolcorrection" >
    <i type="logical" name="LDIPOL"> F  </i>
    <i type="logical" name="LMONO"> F  </i>
    <i type="int" name="IDIPOL">     0</i>
    <i name="EPSILON">      1.00000000</i>
    <v name="DIPOL">   -100.00000000   -100.00000000   -100.00000000</v>
    <i name="EFIELD">      0.00000000</i>
   </separator>
  </separator>
  <separator name="grids" >
   <i type="int" name="NGX">    72</i>
   <i type="int" name="NGY">    72</i>
   <i type="int" name="NGZ">    72</i>
   <i type="int" name="NGXF">   144</i>
   <i type="int" name="NGYF">   144</i>
   <i type="int" name="NGZF">   144</i>
   <i type="logical" name="ADDGRID"> F  </i>
  </separator>
  <separator name="ionic" >
   <i type="int" name="NSW">   100</i>
   <i type="int" name="IBRION">     2</i>
   <i type="int" name="ISIF">     2</i>
   <i name="PSTRESS">      0.00000000</i>
   <i name="EDIFFG">     -0.01000000</i>
   <i type="int" name="NFREE">     1</i>
   <i name="POTIM">      0.50000000</i>
   <i name="SMASS">     -3.00000000</i>
   <i name="SCALEE">      1.00000000</i>
  </separator>
  <separator name="ionic md" >
   <i name="TEBEG">      0.00010000</i>
   <i name="TEEND">      0.00010000</i>
   <i type="int" name="NBLOCK">     1</i>
   <i type="int" name="KBLOCK">   100</i>
   <i type="int" name="NPACO">   256</i>
   <i name="APACO">     16.00000000</i>
  </separator>
  <separator name="symmetry" >
   <i type="int" name="ISYM">     0</i>
   <i name="SYMPREC">      0.00001000</i>
  </separator>
  <separator name="dos" >
   <i type="logical" name="LORBIT"> F  </i>
   <v name="RWIGS">     -1.00000000     -1.00000000</v>
   <i type="int" name="NEDOS">   301</i>
   <i name="EMIN">     10.00000000</i>
   <i name="EMAX">    -10.00000000</i>
   <i name="EFERMI">      0.00000000</i>
  </separator>
  <separator name="writing" >
   <i type="int" name="NWRITE">     2</i>
   <i type="logical" name="LWAVE"> F  </i>
   <i type="logical" name="LCHARG"> F  </i>
   <i type="logical" name="LPARD"> F  </i>
   <i type="logical" name="LVTOT"> F  </i>
   <i type="logical" name="LVHAR"> F  </i>
   <i type="logical" name="LELF"> F  </i>
   <i type="logical" name="LOPTICS"> F  </i>
   <v name="STM">      0.00000000      0.00000000      0.00000000      0.00000000      0.00000000      0.00000000      0.00000000</v>
  </separator>
  <separator name="performance" >
   <i type="int" name="NPAR">     3</i>
   <i type="int" name="NSIM">     4</i>
   <i type="int" name="NBLK">    -1</i>
   <i type="logical" name="LPLANE"> T  </i>
   <i type="logical" name="LSCALAPACK"> T  </i>
   <i type="logical" name="LSCAAWARE"> F  </i>
   <i type="logical" name="LSCALU"> F  </i>
   <i type="logical" name="LASYNC"> F  </i>
   <i type="logical" name="LORBITALREAL"> F  </i>
  </separator>
  <separator name="miscellaneous" >
   <i type="int" name="IDIOT">     3</i>
   <i type="logical" name="LMUSIC"> F  </i>
   <v name="POMASS">     55.84700000    127.60000000</v>
   <v name="DARWINR">      0.00000000      0.00000000</v>
   <v name="DARWINV">      1.00000000      1.00000000</v>
   <i type="logical" name="LCORR"> T  </i>
  </separator>
  <i type="logical" name="GGA_COMPAT"> T  </i>
  <i type="logical" name="LBERRY"> F  </i>
  <i type="int" name="ICORELEVEL">     0</i>
  <i type="logical" name="LDAU"> F  </i>
  <i type="int" name="I_CONSTRAINED_M">     0</i>
  <separator name="electronic exchange-correlation" >
   <i type="string" name="GGA">--</i>
   <i type="int" name="VOSKOWN">     0</i>
   <i type="logical" name="LHFCALC"> F  </i>
   <i type="string" name="PRECFOCK"></i>
   <i type="logical" name="LSYMGRAD"> F  </i>
   <i type="logical" name="LHFONE"> F  </i>
   <i type="logical" name="LRHFCALC"> F  </i>
   <i type="logical" name="LTHOMAS"> F  </i>
   <i type="logical" name="LMODELHF"> F  </i>
   <i name="ENCUT4O">     -1.00000000</i>
   <i type="int" name="EXXOEP">     0</i>
   <i type="int" name="FOURORBIT">     0</i>
   <i name="AEXX">      0.00000000</i>
   <i name="HFALPHA">      0.00000000</i>
   <i name="MCALPHA">      0.00000000</i>
   <i name="ALDAX">      1.00000000</i>
   <i name="AGGAX">      1.00000000</i>
   <i name="ALDAC">      1.00000000</i>
   <i name="AGGAC">      1.00000000</i>
   <i type="int" name="NKREDX">     1</i>
   <i type="int" name="NKREDY">     1</i>
   <i type="int" name="NKREDZ">     1</i>
   <i type="logical" name="SHIFTRED"> F  </i>
   <i type="logical" name="ODDONLY"> F  </i>
   <i type="logical" name="EVENONLY"> F  </i>
   <i type="int" name="LMAXFOCK">     0</i>
   <i type="int" name="NMAXFOCKAE">     0</i>
   <i type="logical" name="LFOCKAEDFT"> F  </i>
   <i name="HFSCREEN">      0.00000000</i>
   <i name="HFSCREENC">      0.00000000</i>
   <i type="int" name="NBANDSGWLOW">     0</i>
  </separator>
  <separator name="vdW DFT" >
   <i type="logical" name="LUSE_VDW"> F  </i>
   <i name="Zab_VDW">     -0.84910000</i>
   <i name="PARAM1">      0.12340000</i>
   <i name="PARAM2">      1.00000000</i>
   <i name="PARAM3">      0.00000000</i>
  </separator>
  <separator name="model GW" >
   <i type="int" name="MODEL_GW">     0</i>
   <i name="MODEL_EPS0">      6.18984300</i>
   <i name="MODEL_ALPHA">      1.00000000</i>
  </separator>
  <separator name="linear response parameters" >
   <i type="logical" name="LEPSILON"> F  </i>
   <i type="logical" name="LRPA"> F  </i>
   <i type="logical" name="LNABLA"> F  </i>
   <i type="logical" name="LVEL"> F  </i>
   <i type="int" name="KINTER">     0</i>
   <i name="CSHIFT">      0.10000000</i>
   <i name="OMEGAMAX">     -1.00000000</i>
   <i name="DEG_THRESHOLD">      0.00200000</i>
  </separator>
  <separator name="orbital magnetization" >
   <i type="logical" name="NUCIND"> F  </i>
   <v name="MAGPOS">      0.00000000      0.00000000      0.00000000</v>
   <i type="logical" name="LNICSALL"> T  </i>
   <i type="logical" name="ORBITALMAG"> F  </i>
   <i type="logical" name="LMAGBLOCH"> F  </i>
   <i type="logical" name="LCHIMAG"> F  </i>
   <i type="logical" name="LGAUGE"> T  </i>
   <i type="int" name="MAGATOM">     0</i>
   <v name="MAGDIPOL">      0.00000000      0.00000000      0.00000000</v>
   <v name="AVECCONST">      0.00000000      0.00000000      0.00000000</v>
  </separator>
  <separator name="response functions" >
   <i type="logical" name="LADDER"> F  </i>
   <i type="logical" name="LFXC"> F  </i>
   <i type="logical" name="LHARTREE"> T  </i>
   <i type="int" name="IBSE">     0</i>
   <v type="int" name="KPOINT">    -1     0     0     0</v>
   <i type="logical" name="LTCTE"> F  </i>
   <i type="logical" name="LTETE"> F  </i>
   <i type="logical" name="LTRIPLET"> F  </i>
   <i type="logical" name="LFXCEPS"> F  </i>
   <i type="logical" name="LFXHEG"> F  </i>
   <i type="int" name="NATURALO">     0</i>
   <i type="logical" name="L2ORDER"> F  </i>
   <i type="logical" name="LUSEW"> F  </i>
   <i name="ENCUTGW">     -2.00000000</i>
   <i name="ENCUTGWSOFT">     -2.00000000</i>
   <i name="ENCUTLF">     -1.00000000</i>
   <i type="int" name="LMAXMP2">    -1</i>
   <i name="SCISSOR">      0.00000000</i>
   <i type="int" name="NOMEGA">     0</i>
   <i type="int" name="NOMEGAR">     0</i>
   <i type="int" name="NBANDSGW">    -1</i>
   <i type="int" name="NBANDSO">    -1</i>
   <i type="int" name="NBANDSV">    -1</i>
   <i type="int" name="NELM">   400</i>
   <i type="int" name="NELMHF">     1</i>
   <i type="int" name="DIM">     3</i>
   <i type="int" name="ANTIRES">     0</i>
   <i name="OMEGAMAX">    -30.00000000</i>
   <i name="OMEGAMIN">    -30.00000000</i>
   <i name="OMEGATL">   -200.00000000</i>
   <i type="int" name="OMEGAGRID">     0</i>
   <i name="CSHIFT">     -0.10000000</i>
   <i type="logical" name="SELFENERGY"> F  </i>
   <i type="logical" name="LSPECTRAL"> F  </i>
   <i type="logical" name="LSPECTRALGW"> F  </i>
   <i type="logical" name="LSINGLES"> F  </i>
   <i type="logical" name="LFERMIGW"> F  </i>
   <i type="logical" name="ODDONLYGW"> F  </i>
   <i type="logical" name="EVENONLYGW"> F  </i>
   <i type="int" name="NKREDLFX">     1</i>
   <i type="int" name="NKREDLFY">     1</i>
   <i type="int" name="NKREDLFZ">     1</i>
   <i type="int" name="MAXMEM">  1800</i>
   <i type="int" name="TELESCOPE">     0</i>
   <i type="int" name="TAUPAR">     1</i>
   <i type="int" name="OMEGAPAR">    -1</i>
   <i name="LAMBDA">      1.00000000</i>
  </separator>
  <separator name="External order field" >
   <i name="OFIELD_KAPPA">      0.00000000</i>
   <v name="OFIELD_K">      0.00000000      0.00000000      0.00000000</v>
   <i name="OFIELD_Q6_NEAR">      0.00000000</i>
   <i name="OFIELD_Q6_FAR">      0.00000000</i>
   <i name="OFIELD_A">      0.00000000</i>
  </separator>
 </parameters>
 <atominfo>
  <atoms>     107 </atoms>
  <types>       2 </types>
  <array name="atoms" >
   <dimension dim="1">ion</dimension>
   <field type="string">element</field>
   <field type="int">atomtype</field>
   <set>
    <rc><c>Fe</c><c>   1</c></rc>
    <rc><c>Fe</c><c>   1</c></rc>
    <rc><c>Fe</c><c>   1</c></rc>
    <rc><c>Fe</c><c>   1</c></rc>
    <rc><c>Fe</c><c>   1</c></rc>
    <rc><c>Fe</c><c>   1</c></rc>
    <rc><c>Fe</c><c>   1</c></rc>
    <rc><c>Fe</c><c>   1</c></rc>
    <rc><c>Fe</c><c>   1</c></rc>
    <rc><c>Fe</c><c>   1</c></rc>
    <rc><c>Fe</c><c>   1</c></rc>
    <rc><c>Fe</c><c>   1</c></rc>
    <rc><c>Fe</c><c>   1</c></rc>
    <rc><c>Fe</c><c>   1</c></rc>
    <rc><c>Fe</c><c>   1</c></rc>
    <rc><c>Fe</c><c>   1</c></rc>
    <rc><c>Fe</c><c>   1</c></rc>
    <rc><c>Fe</c><c>   1</c></rc>
    <rc><c>Fe</c><c>   1</c></rc>
    <rc><c>Fe</c><c>   1</c></rc>
    <rc><c>Fe</c><c>   1</c></rc>
    <rc><c>Fe</c><c>   1</c></rc>
    <rc><c>Fe</c><c>   1</c></rc>
    <rc><c>Fe</c><c>   1</c></rc>
    <rc><c>Fe</c><c>   1</c></rc>
    <rc><c>Fe</c><c>   1</c></rc>
    <rc><c>Fe</c><c>   1</c></rc>
    <rc><c>Fe</c><c>   1</c></rc>
    <rc><c>Fe</c><c>   1</c></rc>
    <rc><c>Fe</c><c>   1</c></rc>
    <rc><c>Fe</c><c>   1</c></rc>
    <rc><c>Fe</c><c>   1</c></rc>
    <rc><c>Fe</c><c>   1</c></rc>
    <rc><c>Fe</c><c>   1</c></rc>
    <rc><c>Fe</c><c>   1</c></rc>
    <rc><c>Fe</c><c>   1</c></rc>
    <rc><c>Fe</c><c>   1</c></rc>
    <rc><c>Fe</c><c>   1</c></rc>
    <rc><c>Fe</c><c>   1</c></rc>
    <rc><c>Fe</c><c>   1</c></rc>
    <rc><c>Fe</c><c>   1</c></rc>
    <rc><c>Fe</c><c>   1</c></rc>
    <rc><c>Fe</c><c>   1</c></rc>
    <rc><c>Fe</c><c>   1</c></rc>
    <rc><c>Fe</c><c>   1</c></rc>
    <rc><c>Fe</c><c>   1</c></rc>
    <rc><c>Fe</c><c>   1</c></rc>
    <rc><c>Fe</c><c>   1</c></rc>
    <rc><c>Fe</c><c>   1</c></rc>
    <rc><c>Fe</c><c>   1</c></rc>
    <rc><c>Fe</c><c>   1</c></rc>
    <rc><c>Fe</c><c>   1</c></rc>
    <rc><c>Fe</c><c>   1</c></rc>
    <rc><c>Fe</c><c>   1</c></rc>
    <rc><c>Fe</c><c>   1</c></rc>
    <rc><c>Fe</c><c>   1</c></rc>
    <rc><c>Fe</c><c>   1</c></rc>
    <rc><c>Fe</c><c>   1</c></rc>
    <rc><c>Fe</c><c>   1</c></rc>
    <rc><c>Fe</c><c>   1</c></rc>
    <rc><c>Fe</c><c>   1</c></rc>
    <rc><c>Fe</c><c>   1</c></rc>
    <rc><c>Fe</c><c>   1</c></rc>
    <rc><c>Fe</c><c>   1</c></rc>
    <rc><c>Fe</c><c>   1</c></rc>
    <rc><c>Fe</c><c>   1</c></rc>
    <rc><c>Fe</c><c>   1</c></rc>
    <rc><c>Fe</c><c>   1</c></rc>
    <rc><c>Fe</c><c>   1</c></rc>
    <rc><c>Fe</c><c>   1</c></rc>
    <rc><c>Fe</c><c>   1</c></rc>
    <rc><c>Fe</c><c>   1</c></rc>
    <rc><c>Fe</c><c>   1</c></rc>
    <rc><c>Fe</c><c>   1</c></rc>
    <rc><c>Fe</c><c>   1</c></rc>
    <rc><c>Fe</c><c>   1</c></rc>
    <rc><c>Fe</c><c>   1</c></rc>
    <rc><c>Fe</c><c>   1</c></rc>
    <rc><c>Fe</c><c>   1</c></rc>
    <rc><c>Fe</c><c>   1</c></rc>
    <rc><c>Fe</c><c>   1</c></rc>
    <rc><c>Fe</c><c>   1</c></rc>
    <rc><c>Fe</c><c>   1</c></rc>
    <rc><c>Fe</c><c>   1</c></rc>
    <rc><c>Fe</c><c>   1</c></rc>
    <rc><c>Fe</c><c>   1</c></rc>
    <rc><c>Fe</c><c>   1</c></rc>
    <rc><c>Fe</c><c>   1</c></rc>
    <rc><c>Fe</c><c>   1</c></rc>
    <rc><c>Fe</c><c>   1</c></rc>
    <rc><c>Fe</c><c>   1</c></rc>
    <rc><c>Fe</c><c>   1</c></rc>
    <rc><c>Fe</c><c>   1</c></rc>
    <rc><c>Fe</c><c>   1</c></rc>
    <rc><c>Fe</c><c>   1</c></rc>
    <rc><c>Fe</c><c>   1</c></rc>
    <rc><c>Fe</c><c>   1</c></rc>
    <rc><c>Fe</c><c>   1</c></rc>
    <rc><c>Fe</c><c>   1</c></rc>
    <rc><c>Fe</c><c>   1</c></rc>
    <rc><c>Fe</c><c>   1</c></rc>
    <rc><c>Fe</c><c>   1</c></rc>
    <rc><c>Fe</c><c>   1</c></rc>
    <rc><c>Fe</c><c>   1</c></rc>
    <rc><c>Fe</c><c>   1</c></rc>
    <rc><c>Fe</c><c>   1</c></rc>
    <rc><c>Te</c><c>   2</c></rc>
   </set>
  </array>
  <array name="atomtypes" >
   <dimension dim="1">type</dimension>
   <field type="int">atomspertype</field>
   <field type="string">element</field>
   <field>mass</field>
   <field>valence</field>
   <field type="string">pseudopotential</field>
   <set>
    <rc><c> 106</c><c>Fe</c><c>     55.84700000</c><c>      8.00000000</c><c> PAW_PBE Fe 06Sep2000                   </c></rc>
    <rc><c>   1</c><c>Te</c><c>    127.60000000</c><c>      6.00000000</c><c> PAW_PBE Te 08Apr2002                   </c></rc>
   </set>
  </array>
 </atominfo>
 <structure name="initialpos" >
  <crystal>
   <varray name="basis" >
    <v>      10.33484705       0.00000000       0.00000000 </v>
    <v>       0.00000000      10.33484705       0.00000000 </v>
    <v>       0.00000000       0.00000000      10.33484705 </v>
   </varray>
   <i name="volume">   1103.85533447 </i>
   <varray name="rec_basis" >
    <v>       0.09676002       0.00000000       0.00000000 </v>
    <v>       0.00000000       0.09676002       0.00000000 </v>
    <v>       0.00000000       0.00000000       0.09676002 </v>
   </varray>
  </crystal>
  <varray name="positions" >
   <v>       0.00000000       0.00000000       0.00000000 </v>
   <v>       0.00000000       0.16666893       0.16666893 </v>
   <v>       0.00000000       0.33333106       0.00000000 </v>
   <v>       0.00000000       0.50000000       0.16666894 </v>
   <v>       0.00000000       0.66666897       0.00000000 </v>
   <v>       0.00000000       0.83333104       0.16666893 </v>
   <v>       0.00000000       0.00000000       0.33333106 </v>
   <v>       0.00000000       0.16666894       0.50000000 </v>
   <v>       0.00000000       0.33333107       0.33333107 </v>
   <v>       0.00000000       0.50000000       0.50000000 </v>
   <v>       0.00000000       0.66666896       0.33333107 </v>
   <v>       0.00000000       0.83333103       0.50000000 </v>
   <v>       0.00000000       0.00000000       0.66666897 </v>
   <v>       0.00000000       0.16666893       0.83333104 </v>
   <v>       0.00000000       0.33333107       0.66666896 </v>
   <v>       0.00000000       0.50000000       0.83333103 </v>
   <v>       0.00000000       0.66666896       0.66666896 </v>
   <v>       0.00000000       0.83333104       0.83333104 </v>
   <v>       0.16666893       0.00000000       0.16666893 </v>
   <v>       0.16666893       0.16666893       0.00000000 </v>
   <v>       0.16666893       0.83333104       0.00000000 </v>
   <v>       0.16666893       0.33333107       0.50000000 </v>
   <v>       0.16666893       0.50000000       0.33333107 </v>
   <v>       0.16666893       0.66666896       0.50000000 </v>
   <v>       0.16666893       0.00000000       0.83333104 </v>
   <v>       0.16666893       0.50000000       0.66666896 </v>
   <v>       0.16666893       0.33333107       0.16666893 </v>
   <v>       0.16666893       0.66666896       0.16666893 </v>
   <v>       0.16666893       0.16666893       0.33333107 </v>
   <v>       0.16666893       0.83333104       0.33333107 </v>
   <v>       0.16666893       0.16666893       0.66666896 </v>
   <v>       0.16666893       0.33333107       0.83333104 </v>
   <v>       0.16666893       0.66666896       0.83333104 </v>
   <v>       0.16666893       0.83333104       0.66666896 </v>
   <v>       0.16666894       0.50000000       0.00000000 </v>
   <v>       0.16666894       0.00000000       0.50000000 </v>
   <v>       0.33333106       0.00000000       0.00000000 </v>
   <v>       0.33333107       0.16666893       0.16666893 </v>
   <v>       0.33333107       0.83333104       0.16666893 </v>
   <v>       0.33333107       0.33333107       0.33333107 </v>
   <v>       0.33333107       0.66666896       0.33333107 </v>
   <v>       0.33333107       0.16666893       0.83333104 </v>
   <v>       0.33333107       0.33333107       0.66666896 </v>
   <v>       0.33333107       0.66666896       0.66666896 </v>
   <v>       0.33333107       0.83333104       0.83333104 </v>
   <v>       0.33333107       0.33333107       0.00000000 </v>
   <v>       0.33333107       0.50000000       0.16666893 </v>
   <v>       0.33333107       0.66666896       0.00000000 </v>
   <v>       0.33333107       0.00000000       0.33333107 </v>
   <v>       0.33333107       0.16666893       0.50000000 </v>
   <v>       0.33333107       0.83333104       0.50000000 </v>
   <v>       0.33333107       0.00000000       0.66666896 </v>
   <v>       0.33333107       0.50000000       0.83333104 </v>
   <v>       0.50000000       0.00000000       0.16666894 </v>
   <v>       0.50000000       0.16666894       0.00000000 </v>
   <v>       0.50000000       0.33333107       0.16666893 </v>
   <v>       0.50000000       0.50000000       0.00000000 </v>
   <v>       0.50000000       0.66666896       0.16666893 </v>
   <v>       0.50000000       0.83333103       0.00000000 </v>
   <v>       0.50000000       0.00000000       0.50000000 </v>
   <v>       0.50000000       0.16666893       0.33333107 </v>
   <v>       0.50000000       0.33333106       0.50000000 </v>
   <v>       0.50000000       0.50000000       0.33333106 </v>
   <v>       0.50000000       0.66666897       0.50000000 </v>
   <v>       0.50000000       0.83333104       0.33333107 </v>
   <v>       0.50000000       0.00000000       0.83333103 </v>
   <v>       0.50000000       0.16666893       0.66666896 </v>
   <v>       0.50000000       0.33333107       0.83333104 </v>
   <v>       0.50000000       0.66666896       0.83333104 </v>
   <v>       0.50000000       0.83333104       0.66666896 </v>
   <v>       0.66666896       0.33333107       0.00000000 </v>
   <v>       0.66666896       0.50000000       0.16666893 </v>
   <v>       0.66666896       0.66666896       0.00000000 </v>
   <v>       0.66666896       0.00000000       0.33333107 </v>
   <v>       0.66666896       0.16666893       0.50000000 </v>
   <v>       0.50000000       0.50000000       0.66666667 </v>
   <v>       0.66666896       0.00000000       0.66666896 </v>
   <v>       0.66666896       0.50000000       0.83333104 </v>
   <v>       0.66666896       0.16666893       0.16666893 </v>
   <v>       0.66666896       0.83333104       0.16666893 </v>
   <v>       0.66666896       0.33333107       0.33333107 </v>
   <v>       0.66666896       0.66666896       0.33333107 </v>
   <v>       0.66666896       0.16666893       0.83333104 </v>
   <v>       0.66666896       0.33333107       0.66666896 </v>
   <v>       0.66666896       0.66666896       0.66666896 </v>
   <v>       0.66666896       0.83333104       0.83333104 </v>
   <v>       0.66666897       0.00000000       0.00000000 </v>
   <v>       0.66666897       0.50000000       0.50000000 </v>
   <v>       0.83333103       0.50000000       0.00000000 </v>
   <v>       0.83333103       0.00000000       0.50000000 </v>
   <v>       0.83333104       0.33333107       0.16666893 </v>
   <v>       0.83333104       0.66666896       0.16666893 </v>
   <v>       0.83333104       0.16666893       0.33333107 </v>
   <v>       0.83333104       0.83333104       0.33333107 </v>
   <v>       0.83333104       0.16666893       0.66666896 </v>
   <v>       0.83333104       0.33333107       0.83333104 </v>
   <v>       0.83333104       0.66666896       0.83333104 </v>
   <v>       0.83333104       0.83333104       0.66666896 </v>
   <v>       0.83333104       0.00000000       0.16666893 </v>
   <v>       0.83333104       0.16666893       0.00000000 </v>
   <v>       0.83333104       0.83333104       0.00000000 </v>
   <v>       0.83333104       0.33333107       0.50000000 </v>
   <v>       0.83333104       0.50000000       0.33333107 </v>
   <v>       0.83333104       0.66666896       0.50000000 </v>
   <v>       0.83333104       0.00000000       0.83333104 </v>
   <v>       0.83333104       0.50000000       0.66666896 </v>
   <v>       0.33333106       0.50000000       0.50000000 </v>
  </varray>
 </structure>
 <calculation>
  <scstep>
   <time name="dav">  233.69  233.78</time>
   <time name="total">  233.96  234.05</time>
   <energy>
    <i name="alphaZ">   7085.54738553 </i>
    <i name="ewald"> -64840.65143562 </i>
    <i name="hartreedc"> -11372.53220283 </i>
    <i name="XCdc">    411.95226121 </i>
    <i name="pawpsdc">  50869.49801454 </i>
    <i name="pawaedc"> -51640.13888436 </i>
    <i name="eentropy">      0.01124137 </i>
    <i name="bandstr">  13754.16344629 </i>
    <i name="atom">  63236.02203821 </i>
    <i name="e_fr_energy">   7503.87186434 </i>
    <i name="e_wo_entrp">   7503.86062297 </i>
    <i name="e_0_energy">   7503.86811722 </i>
   </energy>
  </scstep>
  <scstep>
   <time name="dav">  233.64  233.71</time>
   <time name="total">  233.68  233.75</time>
   <energy>
    <i name="e_fr_energy">    -13.35782685 </i>
    <i name="e_wo_entrp">    -13.35890414 </i>
    <i name="e_0_energy">    -13.35818594 </i>
   </energy>
  </scstep>
  <scstep>
   <time name="dav">  234.27  234.34</time>
   <time name="total">  234.30  234.38</time>
   <energy>
    <i name="e_fr_energy">   -832.94778586 </i>
    <i name="e_wo_entrp">   -832.96580666 </i>
    <i name="e_0_energy">   -832.95379280 </i>
   </energy>
  </scstep>
  <scstep>
   <time name="dav">  382.31  382.39</time>
   <time name="total">  382.34  382.43</time>
   <energy>
    <i name="e_fr_energy">  -1006.39244469 </i>
    <i name="e_wo_entrp">  -1006.39456524 </i>
    <i name="e_0_energy">  -1006.39315154 </i>
   </energy>
  </scstep>
  <scstep>
   <time name="dav">  341.07  341.12</time>
   <time name="total">  350.99  351.04</time>
   <energy>
    <i name="e_fr_energy">  -1021.14774865 </i>
    <i name="e_wo_entrp">  -1021.13810567 </i>
    <i name="e_0_energy">  -1021.14453432 </i>
   </energy>
  </scstep>
  <scstep>
   <time name="diag">   29.44   29.45</time>
   <time name="diis">  132.89  132.93</time>
   <time name="orth">    6.00    6.00</time>
   <time name="total">  178.49  178.56</time>
   <energy>
    <i name="e_fr_energy">   -880.96561931 </i>
    <i name="e_wo_entrp">   -880.94376064 </i>
    <i name="e_0_energy">   -880.95833309 </i>
   </energy>
  </scstep>
  <scstep>
   <time name="diag">   29.48   29.49</time>
   <time name="diis">  162.10  162.19</time>
   <time name="orth">    6.17    6.18</time>
   <time name="total">  208.22  208.33</time>
   <energy>
    <i name="e_fr_energy">  -1168.14278809 </i>
    <i name="e_wo_entrp">  -1168.15889881 </i>
    <i name="e_0_energy">  -1168.14815833 </i>
   </energy>
  </scstep>
  <scstep>
   <time name="diag">   30.79   30.80</time>
   <time name="diis">  139.22  139.27</time>
   <time name="orth">    6.23    6.23</time>
   <time name="total">  187.06  187.13</time>
   <energy>
    <i name="e_fr_energy">   -902.29114572 </i>
    <i name="e_wo_entrp">   -902.26997446 </i>
    <i name="e_0_energy">   -902.28408863 </i>
   </energy>
  </scstep>
  <scstep>
   <time name="diag">   30.79   30.80</time>
   <time name="diis">  139.38  139.46</time>
   <time name="orth">    6.22    6.22</time>
   <time name="total">  187.25  187.34</time>
   <energy>
    <i name="e_fr_energy">   -862.55145294 </i>
    <i name="e_wo_entrp">   -862.50703865 </i>
    <i name="e_0_energy">   -862.53664817 </i>
   </energy>
  </scstep>
  <scstep>
   <time name="diag">   30.81   30.84</time>
   <time name="diis">  188.12  188.18</time>
   <time name="orth">    6.22    6.23</time>
   <time name="total">  236.02  236.12</time>
   <energy>
    <i name="e_fr_energy">   -862.71312140 </i>
    <i name="e_wo_entrp">   -862.71034425 </i>
    <i name="e_0_energy">   -862.71219569 </i>
   </energy>
  </scstep>
  <scstep>
   <time name="diag">   30.78   30.81</time>
   <time name="diis">  162.54  162.63</time>
   <time name="orth">    6.25    6.25</time>
   <time name="total">  210.35  210.48</time>
   <energy>
    <i name="e_fr_energy">   -863.77950891 </i>
    <i name="e_wo_entrp">   -863.76494548 </i>
    <i name="e_0_energy">   -863.77465443 </i>
   </energy>
  </scstep>
  <scstep>
   <time name="diag">   30.70   30.71</time>
   <time name="diis">  147.04  147.11</time>
   <time name="orth">    6.22    6.22</time>
   <time name="total">  194.78  194.87</time>
   <energy>
    <i name="e_fr_energy">   -861.86532375 </i>
    <i name="e_wo_entrp">   -861.85732644 </i>
    <i name="e_0_energy">   -861.86265798 </i>
   </energy>
  </scstep>
  <scstep>
   <time name="diag">   30.80   30.81</time>
   <time name="diis">  177.72  177.83</time>
   <time name="orth">    6.23    6.24</time>
   <time name="total">  225.56  225.69</time>
   <energy>
    <i name="e_fr_energy">   -861.92524285 </i>
    <i name="e_wo_entrp">   -861.91610802 </i>
    <i name="e_0_energy">   -861.92219790 </i>
   </energy>
  </scstep>
  <scstep>
   <time name="diag">   30.79   30.80</time>
   <time name="diis">  146.45  146.50</time>
   <time name="orth">    6.22    6.24</time>
   <time name="total">  194.24  194.32</time>
   <energy>
    <i name="e_fr_energy">   -861.48356796 </i>
    <i name="e_wo_entrp">   -861.46572409 </i>
    <i name="e_0_energy">   -861.47762001 </i>
   </energy>
  </scstep>
  <scstep>
   <time name="diag">   30.93   30.94</time>
   <time name="diis">  179.07  179.15</time>
   <time name="orth">    6.21    6.21</time>
   <time name="total">  227.08  227.18</time>
   <energy>
    <i name="e_fr_energy">   -861.40967881 </i>
    <i name="e_wo_entrp">   -861.38892473 </i>
    <i name="e_0_energy">   -861.40276079 </i>
   </energy>
  </scstep>
  <scstep>
   <time name="diag">   30.82   30.84</time>
   <time name="diis">  146.56  146.65</time>
   <time name="orth">    6.23    6.23</time>
   <time name="total">  194.55  194.66</time>
   <energy>
    <i name="e_fr_energy">   -861.26231710 </i>
    <i name="e_wo_entrp">   -861.24454867 </i>
    <i name="e_0_energy">   -861.25639429 </i>
   </energy>
  </scstep>
  <scstep>
   <time name="diag">   30.99   31.00</time>
   <time name="diis">  151.00  151.08</time>
   <time name="orth">    6.24    6.24</time>
   <time name="total">  199.14  199.23</time>
   <energy>
    <i name="e_fr_energy">   -861.17035297 </i>
    <i name="e_wo_entrp">   -861.15291535 </i>
    <i name="e_0_energy">   -861.16454043 </i>
   </energy>
  </scstep>
  <scstep>
   <time name="diag">   30.99   31.01</time>
   <time name="diis">  184.68  184.77</time>
   <time name="orth">    6.16    6.16</time>
   <time name="total">  231.68  231.79</time>
   <energy>
    <i name="e_fr_energy">   -861.20070978 </i>
    <i name="e_wo_entrp">   -861.18266807 </i>
    <i name="e_0_energy">   -861.19469588 </i>
   </energy>
  </scstep>
  <scstep>
   <time name="diag">   30.51   30.52</time>
   <time name="diis">  158.28  158.38</time>
   <time name="orth">    6.24    6.24</time>
   <time name="total">  206.00  206.12</time>
   <energy>
    <i name="e_fr_energy">   -861.18166031 </i>
    <i name="e_wo_entrp">   -861.16678711 </i>
    <i name="e_0_energy">   -861.17670258 </i>
   </energy>
  </scstep>
  <scstep>
   <time name="diag">   30.94   30.95</time>
   <time name="diis">  191.32  191.41</time>
   <time name="orth">    6.23    6.23</time>
   <time name="total">  239.41  239.52</time>
   <energy>
    <i name="e_fr_energy">   -861.17954806 </i>
    <i name="e_wo_entrp">   -861.16504372 </i>
    <i name="e_0_energy">   -861.17471328 </i>
   </energy>
  </scstep>
  <scstep>
   <time name="diag">   30.62   30.62</time>
   <time name="diis">  145.91  145.98</time>
   <time name="orth">    6.23    6.24</time>
   <time name="total">  193.69  193.78</time>
   <energy>
    <i name="e_fr_energy">   -861.17479427 </i>
    <i name="e_wo_entrp">   -861.15946170 </i>
    <i name="e_0_energy">   -861.16968341 </i>
   </energy>
  </scstep>
  <scstep>
   <time name="diag">   30.76   30.77</time>
   <time name="diis">  149.09  149.15</time>
   <time name="orth">    6.23    6.23</time>
   <time name="total">  196.95  197.02</time>
   <energy>
    <i name="e_fr_energy">   -861.17082450 </i>
    <i name="e_wo_entrp">   -861.15558749 </i>
    <i name="e_0_energy">   -861.16574550 </i>
   </energy>
  </scstep>
  <scstep>
   <time name="diag">   30.96   30.99</time>
   <time name="diis">  182.44  182.53</time>
   <time name="orth">    6.22    6.22</time>
   <time name="total">  230.54  230.68</time>
   <energy>
    <i name="e_fr_energy">   -861.17084824 </i>
    <i name="e_wo_entrp">   -861.15591652 </i>
    <i name="e_0_energy">   -861.16587100 </i>
   </energy>
  </scstep>
  <scstep>
   <time name="diag">   31.10   31.11</time>
   <time name="diis">  150.80  150.87</time>
   <time name="orth">    6.21    6.21</time>
   <time name="total">  198.95  199.03</time>
   <energy>
    <i name="e_fr_energy">   -861.16931550 </i>
    <i name="e_wo_entrp">   -861.15418526 </i>
    <i name="e_0_energy">   -861.16427209 </i>
   </energy>
  </scstep>
  <scstep>
   <time name="diag">   30.99   31.02</time>
   <time name="diis">  196.98  197.08</time>
   <time name="orth">    6.22    6.22</time>
   <time name="total">  245.06  245.20</time>
   <energy>
    <i name="e_fr_energy">   -861.16944384 </i>
    <i name="e_wo_entrp">   -861.15440036 </i>
    <i name="e_0_energy">   -861.16442935 </i>
   </energy>
  </scstep>
  <scstep>
   <time name="diag">   31.13   31.16</time>
   <time name="diis">  168.14  168.21</time>
   <time name="orth">    5.86    5.86</time>
   <time name="total">  215.62  215.74</time>
   <energy>
    <i name="e_fr_energy">   -861.16935782 </i>
    <i name="e_wo_entrp">   -861.15433195 </i>
    <i name="e_0_energy">   -861.16434920 </i>
   </energy>
  </scstep>
  <scstep>
   <time name="diag">   31.16   31.17</time>
   <time name="diis">  169.87  169.96</time>
   <time name="orth">    6.22    6.22</time>
   <time name="total">  218.09  218.19</time>
   <energy>
    <i name="e_fr_energy">   -861.16929340 </i>
    <i name="e_wo_entrp">   -861.15435745 </i>
    <i name="e_0_energy">   -861.16431475 </i>
   </energy>
  </scstep>
  <scstep>
   <time name="diag">   31.27   31.28</time>
   <time name="diis">  168.76  168.87</time>
   <time name="orth">    6.21    6.22</time>
   <time name="total">  217.16  217.28</time>
   <energy>
    <i name="e_fr_energy">   -861.16928242 </i>
    <i name="e_wo_entrp">   -861.15449094 </i>
    <i name="e_0_energy">   -861.16435193 </i>
   </energy>
  </scstep>
  <scstep>
   <time name="diag">   31.25   31.28</time>
   <time name="diis">  146.41  146.48</time>
   <time name="orth">    6.24    6.24</time>
   <time name="total">  194.80  194.90</time>
   <energy>
    <i name="e_fr_energy">   -861.16922881 </i>
    <i name="e_wo_entrp">   -861.15455372 </i>
    <i name="e_0_energy">   -861.16433711 </i>
   </energy>
  </scstep>
  <scstep>
   <time name="diag">   31.34   31.37</time>
   <time name="diis">  179.04  179.16</time>
   <time name="orth">    6.23    6.23</time>
   <time name="total">  227.48  227.64</time>
   <energy>
    <i name="e_fr_energy">   -861.16922121 </i>
    <i name="e_wo_entrp">   -861.15461777 </i>
    <i name="e_0_energy">   -861.16435339 </i>
   </energy>
  </scstep>
  <scstep>
   <time name="diag">   30.97   30.99</time>
   <time name="diis">  154.89  154.96</time>
   <time name="orth">    6.25    6.25</time>
   <time name="total">  203.02  203.11</time>
   <energy>
    <i name="e_fr_energy">   -861.16919995 </i>
    <i name="e_wo_entrp">   -861.15467545 </i>
    <i name="e_0_energy">   -861.16435845 </i>
   </energy>
  </scstep>
  <scstep>
   <time name="diag">   30.83   30.87</time>
   <time name="diis">  114.97  115.07</time>
   <time name="orth">    6.23    6.23</time>
   <time name="total">  162.89  163.03</time>
   <energy>
    <i name="e_fr_energy">   -861.16919364 </i>
    <i name="e_wo_entrp">   -861.15472764 </i>
    <i name="e_0_energy">   -861.16437164 </i>
   </energy>
  </scstep>
  <scstep>
   <time name="diag">   30.86   30.87</time>
   <time name="diis">   95.13   95.17</time>
   <time name="orth">    6.26    6.26</time>
   <time name="total">  143.16  143.22</time>
   <energy>
    <i name="e_fr_energy">   -861.16918963 </i>
    <i name="e_wo_entrp">   -861.15477527 </i>
    <i name="e_0_energy">   -861.16438484 </i>
   </energy>
  </scstep>
  <scstep>
   <time name="diag">   30.84   30.85</time>
   <time name="diis">   91.47   91.50</time>
   <time name="orth">    6.24    6.24</time>
   <time name="total">  139.39  139.43</time>
   <energy>
    <i name="e_fr_energy">   -861.16918527 </i>
    <i name="e_wo_entrp">   -861.15482023 </i>
    <i name="e_0_energy">   -861.16439692 </i>
   </energy>
  </scstep>
  <scstep>
   <time name="diag">   30.88   30.89</time>
   <time name="diis">   88.95   89.00</time>
   <time name="orth">    6.23    6.23</time>
   <time name="total">  136.90  136.97</time>
   <energy>
    <i name="e_fr_energy">   -861.16918255 </i>
    <i name="e_wo_entrp">   -861.15486059 </i>
    <i name="e_0_energy">   -861.16440856 </i>
   </energy>
  </scstep>
  <scstep>
   <time name="diag">   30.90   30.93</time>
   <time name="diis">   86.93   86.96</time>
   <time name="orth">    6.22    6.22</time>
   <time name="total">  135.00  135.06</time>
   <energy>
    <i name="e_fr_energy">   -861.16918063 </i>
    <i name="e_wo_entrp">   -861.15489926 </i>
    <i name="e_0_energy">   -861.16442017 </i>
   </energy>
  </scstep>
  <scstep>
   <time name="diag">   31.22   31.23</time>
   <time name="diis">   87.03   87.08</time>
   <time name="orth">    6.23    6.23</time>
   <time name="total">  135.52  135.58</time>
   <energy>
    <i name="e_fr_energy">   -861.16917817 </i>
    <i name="e_wo_entrp">   -861.15493188 </i>
    <i name="e_0_energy">   -861.16442940 </i>
   </energy>
  </scstep>
  <scstep>
   <time name="diag">   30.99   31.00</time>
   <time name="diis">   85.22   85.25</time>
   <time name="orth">    6.24    6.24</time>
   <time name="total">  133.46  133.50</time>
   <energy>
    <i name="e_fr_energy">   -861.16917617 </i>
    <i name="e_wo_entrp">   -861.15496165 </i>
    <i name="e_0_energy">   -861.16443799 </i>
   </energy>
  </scstep>
  <scstep>
   <time name="diag">   31.13   31.14</time>
   <time name="diis">   84.18   84.21</time>
   <time name="orth">    6.24    6.24</time>
   <time name="total">  132.54  132.60</time>
   <energy>
    <i name="e_fr_energy">   -861.16917444 </i>
    <i name="e_wo_entrp">   -861.15498869 </i>
    <i name="e_0_energy">   -861.16444586 </i>
   </energy>
  </scstep>
  <scstep>
   <time name="diag">   31.02   31.03</time>
   <time name="diis">   76.55   76.59</time>
   <time name="orth">    6.22    6.23</time>
   <time name="total">  124.64  124.69</time>
   <energy>
    <i name="e_fr_energy">   -861.16917266 </i>
    <i name="e_wo_entrp">   -861.15501300 </i>
    <i name="e_0_energy">   -861.16445277 </i>
   </energy>
  </scstep>
  <scstep>
   <time name="diag">   30.91   30.92</time>
   <time name="diis">   77.05   77.07</time>
   <time name="orth">    6.22    6.22</time>
   <time name="total">  124.98  125.02</time>
   <energy>
    <i name="e_fr_energy">   -861.16917118 </i>
    <i name="e_wo_entrp">   -861.15503472 </i>
    <i name="e_0_energy">   -861.16445902 </i>
   </energy>
  </scstep>
  <scstep>
   <time name="diag">   30.92   30.95</time>
   <time name="diis">   72.08   72.10</time>
   <time name="orth">    6.21    6.24</time>
   <time name="total">  120.04  120.12</time>
   <energy>
    <i name="e_fr_energy">   -861.16916962 </i>
    <i name="e_wo_entrp">   -861.15505571 </i>
    <i name="e_0_energy">   -861.16446499 </i>
   </energy>
  </scstep>
  <scstep>
   <time name="diag">   30.96   30.98</time>
   <time name="diis">   71.93   71.97</time>
   <time name="orth">    6.23    6.23</time>
   <time name="total">  119.99  120.05</time>
   <energy>
    <i name="e_fr_energy">   -861.16916830 </i>
    <i name="e_wo_entrp">   -861.15507389 </i>
    <i name="e_0_energy">   -861.16447016 </i>
   </energy>
  </scstep>
  <scstep>
   <time name="diag">   31.08   31.09</time>
   <time name="diis">   70.08   70.12</time>
   <time name="orth">    6.22    6.22</time>
   <time name="total">  118.23  118.28</time>
   <energy>
    <i name="e_fr_energy">   -861.16916707 </i>
    <i name="e_wo_entrp">   -861.15509056 </i>
    <i name="e_0_energy">   -861.16447490 </i>
   </energy>
  </scstep>
  <scstep>
   <time name="diag">   30.26   30.28</time>
   <time name="diis">   68.99   69.00</time>
   <time name="orth">    6.23    6.23</time>
   <time name="total">  116.45  116.47</time>
   <energy>
    <i name="e_fr_energy">   -861.16916595 </i>
    <i name="e_wo_entrp">   -861.15510571 </i>
    <i name="e_0_energy">   -861.16447921 </i>
   </energy>
  </scstep>
  <scstep>
   <time name="diag">   30.96   30.96</time>
   <time name="diis">   68.52   68.52</time>
   <time name="orth">    6.21    6.21</time>
   <time name="total">  116.64  116.64</time>
   <energy>
    <i name="e_fr_energy">   -861.16916492 </i>
    <i name="e_wo_entrp">   -861.15511963 </i>
    <i name="e_0_energy">   -861.16448316 </i>
   </energy>
  </scstep>
  <scstep>
   <time name="diag">   30.96   30.96</time>
   <time name="diis">   67.50   67.54</time>
   <time name="orth">    6.21    6.21</time>
   <time name="total">  104.95  104.99</time>
   <energy>
    <i name="alphaZ">   7085.54738553 </i>
    <i name="ewald"> -64840.65143562 </i>
    <i name="hartreedc">  -9587.80246534 </i>
    <i name="XCdc">    328.89097774 </i>
    <i name="pawpsdc">  57141.25630855 </i>
    <i name="pawaedc"> -58021.80567135 </i>
    <i name="eentropy">     -0.01403168 </i>
    <i name="bandstr">   3797.38772997 </i>
    <i name="atom">  63236.02203821 </i>
    <i name="e_fr_energy">   -861.16916399 </i>
    <i name="e_wo_entrp">   -861.15513231 </i>
    <i name="e_0_energy">   -861.16448676 </i>
   </energy>
  </scstep>
  <structure>
   <crystal>
    <varray name="basis" >
     <v>      10.33484705       0.00000000       0.00000000 </v>
     <v>       0.00000000      10.33484705       0.00000000 </v>
     <v>       0.00000000       0.00000000      10.33484705 </v>
    </varray>
    <i name="volume">   1103.85533447 </i>
    <varray name="rec_basis" >
     <v>       0.09676002       0.00000000       0.00000000 </v>
     <v>       0.00000000       0.09676002       0.00000000 </v>
     <v>       0.00000000       0.00000000       0.09676002 </v>
    </varray>
   </crystal>
   <varray name="positions" >
    <v>       0.00000000       0.00000000       0.00000000 </v>
    <v>       0.00000000       0.16666893       0.16666893 </v>
    <v>       0.00000000       0.33333106       0.00000000 </v>
    <v>       0.00000000       0.50000000       0.16666894 </v>
    <v>       0.00000000       0.66666897       0.00000000 </v>
    <v>       0.00000000       0.83333104       0.16666893 </v>
    <v>       0.00000000       0.00000000       0.33333106 </v>
    <v>       0.00000000       0.16666894       0.50000000 </v>
    <v>       0.00000000       0.33333107       0.33333107 </v>
    <v>       0.00000000       0.50000000       0.50000000 </v>
    <v>       0.00000000       0.66666896       0.33333107 </v>
    <v>       0.00000000       0.83333103       0.50000000 </v>
    <v>       0.00000000       0.00000000       0.66666897 </v>
    <v>       0.00000000       0.16666893       0.83333104 </v>
    <v>       0.00000000       0.33333107       0.66666896 </v>
    <v>       0.00000000       0.50000000       0.83333103 </v>
    <v>       0.00000000       0.66666896       0.66666896 </v>
    <v>       0.00000000       0.83333104       0.83333104 </v>
    <v>       0.16666893       0.00000000       0.16666893 </v>
    <v>       0.16666893       0.16666893       0.00000000 </v>
    <v>       0.16666893       0.83333104       0.00000000 </v>
    <v>       0.16666893       0.33333107       0.50000000 </v>
    <v>       0.16666893       0.50000000       0.33333107 </v>
    <v>       0.16666893       0.66666896       0.50000000 </v>
    <v>       0.16666893       0.00000000       0.83333104 </v>
    <v>       0.16666893       0.50000000       0.66666896 </v>
    <v>       0.16666893       0.33333107       0.16666893 </v>
    <v>       0.16666893       0.66666896       0.16666893 </v>
    <v>       0.16666893       0.16666893       0.33333107 </v>
    <v>       0.16666893       0.83333104       0.33333107 </v>
    <v>       0.16666893       0.16666893       0.66666896 </v>
    <v>       0.16666893       0.33333107       0.83333104 </v>
    <v>       0.16666893       0.66666896       0.83333104 </v>
    <v>       0.16666893       0.83333104       0.66666896 </v>
    <v>       0.16666894       0.50000000       0.00000000 </v>
    <v>       0.16666894       0.00000000       0.50000000 </v>
    <v>       0.33333106       0.00000000       0.00000000 </v>
    <v>       0.33333107       0.16666893       0.16666893 </v>
    <v>       0.33333107       0.83333104       0.16666893 </v>
    <v>       0.33333107       0.33333107       0.33333107 </v>
    <v>       0.33333107       0.66666896       0.33333107 </v>
    <v>       0.33333107       0.16666893       0.83333104 </v>
    <v>       0.33333107       0.33333107       0.66666896 </v>
    <v>       0.33333107       0.66666896       0.66666896 </v>
    <v>       0.33333107       0.83333104       0.83333104 </v>
    <v>       0.33333107       0.33333107       0.00000000 </v>
    <v>       0.33333107       0.50000000       0.16666893 </v>
    <v>       0.33333107       0.66666896       0.00000000 </v>
    <v>       0.33333107       0.00000000       0.33333107 </v>
    <v>       0.33333107       0.16666893       0.50000000 </v>
    <v>       0.33333107       0.83333104       0.50000000 </v>
    <v>       0.33333107       0.00000000       0.66666896 </v>
    <v>       0.33333107       0.50000000       0.83333104 </v>
    <v>       0.50000000       0.00000000       0.16666894 </v>
    <v>       0.50000000       0.16666894       0.00000000 </v>
    <v>       0.50000000       0.33333107       0.16666893 </v>
    <v>       0.50000000       0.50000000       0.00000000 </v>
    <v>       0.50000000       0.66666896       0.16666893 </v>
    <v>       0.50000000       0.83333103       0.00000000 </v>
    <v>       0.50000000       0.00000000       0.50000000 </v>
    <v>       0.50000000       0.16666893       0.33333107 </v>
    <v>       0.50000000       0.33333106       0.50000000 </v>
    <v>       0.50000000       0.50000000       0.33333106 </v>
    <v>       0.50000000       0.66666897       0.50000000 </v>
    <v>       0.50000000       0.83333104       0.33333107 </v>
    <v>       0.50000000       0.00000000       0.83333103 </v>
    <v>       0.50000000       0.16666893       0.66666896 </v>
    <v>       0.50000000       0.33333107       0.83333104 </v>
    <v>       0.50000000       0.66666896       0.83333104 </v>
    <v>       0.50000000       0.83333104       0.66666896 </v>
    <v>       0.66666896       0.33333107       0.00000000 </v>
    <v>       0.66666896       0.50000000       0.16666893 </v>
    <v>       0.66666896       0.66666896       0.00000000 </v>
    <v>       0.66666896       0.00000000       0.33333107 </v>
    <v>       0.66666896       0.16666893       0.50000000 </v>
    <v>       0.50000000       0.50000000       0.66666667 </v>
    <v>       0.66666896       0.00000000       0.66666896 </v>
    <v>       0.66666896       0.50000000       0.83333104 </v>
    <v>       0.66666896       0.16666893       0.16666893 </v>
    <v>       0.66666896       0.83333104       0.16666893 </v>
    <v>       0.66666896       0.33333107       0.33333107 </v>
    <v>       0.66666896       0.66666896       0.33333107 </v>
    <v>       0.66666896       0.16666893       0.83333104 </v>
    <v>       0.66666896       0.33333107       0.66666896 </v>
    <v>       0.66666896       0.66666896       0.66666896 </v>
    <v>       0.66666896       0.83333104       0.83333104 </v>
    <v>       0.66666897       0.00000000       0.00000000 </v>
    <v>       0.66666897       0.50000000       0.50000000 </v>
    <v>       0.83333103       0.50000000       0.00000000 </v>
    <v>       0.83333103       0.00000000       0.50000000 </v>
    <v>       0.83333104       0.33333107       0.16666893 </v>
    <v>       0.83333104       0.66666896       0.16666893 </v>
    <v>       0.83333104       0.16666893       0.33333107 </v>
    <v>       0.83333104       0.83333104       0.33333107 </v>
    <v>       0.83333104       0.16666893       0.66666896 </v>
    <v>       0.83333104       0.33333107       0.83333104 </v>
    <v>       0.83333104       0.66666896       0.83333104 </v>
    <v>       0.83333104       0.83333104       0.66666896 </v>
    <v>       0.83333104       0.00000000       0.16666893 </v>
    <v>       0.83333104       0.16666893       0.00000000 </v>
    <v>       0.83333104       0.83333104       0.00000000 </v>
    <v>       0.83333104       0.33333107       0.50000000 </v>
    <v>       0.83333104       0.50000000       0.33333107 </v>
    <v>       0.83333104       0.66666896       0.50000000 </v>
    <v>       0.83333104       0.00000000       0.83333104 </v>
    <v>       0.83333104       0.50000000       0.66666896 </v>
    <v>       0.33333106       0.50000000       0.50000000 </v>
   </varray>
  </structure>
  <varray name="forces" >
   <v>      -0.07658356      -0.00072266       0.00000777 </v>
   <v>       0.03100033       0.03060120      -0.02834450 </v>
   <v>       0.04652810       0.00784008       0.00000501 </v>
   <v>       0.19998496      -0.02132339       0.14508282 </v>
   <v>      -0.01377742      -0.01013488       0.00000310 </v>
   <v>      -0.18523764      -0.00501464       0.20067430 </v>
   <v>      -0.01021714       0.01076237       0.00310448 </v>
   <v>      -0.05297982      -0.05338579      -0.00000716 </v>
   <v>       0.00566133      -0.03158920      -0.02653349 </v>
   <v>      -0.26741308       0.19360996      -0.00000715 </v>
   <v>       0.00809282       0.01842029      -0.04311706 </v>
   <v>      -0.05379853      -0.15334075      -0.00000625 </v>
   <v>      -0.01021767       0.01076070      -0.00311160 </v>
   <v>       0.03099923       0.03060152       0.02835178 </v>
   <v>       0.00566213      -0.03158767       0.02652369 </v>
   <v>       0.19998333      -0.02132255      -0.14507186 </v>
   <v>       0.00809304       0.01841990       0.04311053 </v>
   <v>      -0.18523691      -0.00501826      -0.20066863 </v>
   <v>       0.01652664      -0.01195698       0.00746530 </v>
   <v>       0.00702896       0.04611647       0.00000771 </v>
   <v>       0.01408585       0.00465787       0.00000675 </v>
   <v>      -1.40322852      -1.40243545      -0.00000426 </v>
   <v>      -1.41552234       0.01661434      -1.41876605 </v>
   <v>      -1.40030825       1.40045406      -0.00000371 </v>
   <v>       0.01652863      -0.01195866      -0.00746095 </v>
   <v>      -1.41551804       0.01661684       1.41875510 </v>
   <v>      -0.03142386      -0.03060432      -0.04002056 </v>
   <v>      -0.04262267       0.04174146       0.02938244 </v>
   <v>      -0.03240716       0.00526862      -0.02653768 </v>
   <v>      -0.03392584      -0.02533621      -0.01881250 </v>
   <v>      -0.03240564       0.00526781       0.02653013 </v>
   <v>      -0.03142487      -0.03060166       0.04002716 </v>
   <v>      -0.04262219       0.04174071      -0.02937653 </v>
   <v>      -0.03392520      -0.02533679       0.01880771 </v>
   <v>      -0.01327046      -0.05518742      -0.00000573 </v>
   <v>      -0.01754435      -0.00927735      -0.00000642 </v>
   <v>       0.01089757      -0.00772606       0.00000383 </v>
   <v>      -0.02090980       0.19957347       0.14509781 </v>
   <v>       0.19420889      -0.15885533       0.35278538 </v>
   <v>       0.01708424      -1.41455881      -1.41863008 </v>
   <v>       0.02074343       1.40440575      -1.42134012 </v>
   <v>      -0.02090796       0.19957366      -0.14509256 </v>
   <v>       0.01708260      -1.41456739       1.41862649 </v>
   <v>       0.02074054       1.40441402       1.42133710 </v>
   <v>       0.19421087      -0.15885844      -0.35278113 </v>
   <v>      -0.05477333      -0.01244433       0.00000144 </v>
   <v>      -0.03212161      -0.03252726      -0.08907784 </v>
   <v>       0.01468840       0.02208447      -0.00000139 </v>
   <v>       0.01003364       0.01656936      -0.02271942 </v>
   <v>       0.19396713      -0.26780926      -0.00000470 </v>
   <v>       0.22865845       0.06303474      -0.00000595 </v>
   <v>       0.01003465       0.01656876       0.02271078 </v>
   <v>      -0.03210275      -0.03252667       0.08907578 </v>
   <v>      -0.01938945       0.01229088       0.00549215 </v>
   <v>      -0.00973152      -0.01415233      -0.00000542 </v>
   <v>       0.04213834      -0.04181800       0.02938298 </v>
   <v>       0.02252378       0.01429122      -0.00000964 </v>
   <v>       0.01793147       0.01752903       0.02557804 </v>
   <v>       0.00853866       0.00489240      -0.00000631 </v>
   <v>       0.05652634      -0.03341009      -0.00000837 </v>
   <v>       0.01882353       0.00769827      -0.04315642 </v>
   <v>       1.40062068      -1.39928474      -0.00002489 </v>
   <v>       1.40474993       0.02031941      -1.42124454 </v>
   <v>       1.39563645       1.39526273      -0.00002472 </v>
   <v>       0.07775975      -0.03862909       0.06131642 </v>
   <v>      -0.01938970       0.01229064      -0.00548206 </v>
   <v>       0.01882351       0.00770780       0.04314216 </v>
   <v>       0.04213898      -0.04179954      -0.02938177 </v>
   <v>       0.01793058       0.01751230      -0.02557529 </v>
   <v>       0.07775674      -0.03864237      -0.06133087 </v>
   <v>       0.00384060       0.01486611      -0.00000190 </v>
   <v>      -0.15965863       0.19382858       0.35277789 </v>
   <v>       0.00409406       0.00815863      -0.00000342 </v>
   <v>      -0.00638665      -0.05599935       0.05868403 </v>
   <v>      -0.15416188      -0.05419517      -0.00000668 </v>
   <v>       1.40480172       0.02032229       1.42151915 </v>
   <v>      -0.00638884      -0.05599813      -0.05869206 </v>
   <v>      -0.15967571       0.19382678      -0.35277820 </v>
   <v>      -0.00582773      -0.18561070       0.20066001 </v>
   <v>      -0.00217250      -0.00136262       0.20367709 </v>
   <v>      -0.02612573      -0.03313133      -0.01881440 </v>
   <v>      -0.03938311       0.07744564       0.06138878 </v>
   <v>      -0.00582842      -0.18560854      -0.20065328 </v>
   <v>      -0.02612420      -0.03313153       0.01880017 </v>
   <v>      -0.03938065       0.07744420      -0.06140127 </v>
   <v>      -0.00217397      -0.00136398      -0.20366963 </v>
   <v>       0.05670357      -0.02380161       0.00000381 </v>
   <v>       0.06218648       0.22829311      -0.00001414 </v>
   <v>      -0.00733022       0.01052101      -0.00000775 </v>
   <v>      -0.04575076      -0.04615050      -0.00000630 </v>
   <v>      -0.01154959       0.01732802       0.00747104 </v>
   <v>       0.01270542      -0.01980585       0.00545816 </v>
   <v>       0.01119204      -0.01057474       0.00310065 </v>
   <v>      -0.05567367      -0.00561811       0.05876070 </v>
   <v>       0.01119169      -0.01057179      -0.00310925 </v>
   <v>      -0.01155229       0.01733060      -0.00746439 </v>
   <v>       0.01270385      -0.01980769      -0.00545152 </v>
   <v>      -0.05567030      -0.00561945      -0.05876893 </v>
   <v>       0.01021221       0.00979679      -0.05422253 </v>
   <v>      -0.00031395      -0.07698916       0.00000702 </v>
   <v>      -0.02341680       0.05752024       0.00000563 </v>
   <v>      -0.00889854      -0.01673967      -0.00000580 </v>
   <v>       0.01697727       0.00964855      -0.02272499 </v>
   <v>      -0.03316294       0.05625660      -0.00000559 </v>
   <v>       0.01021062       0.00979617       0.05423011 </v>
   <v>       0.01696483       0.00964903       0.02270945 </v>
   <v>       0.13933548       0.13827883      -0.00008222 </v>
  </varray>
  <varray name="stress" >
   <v>      18.53450339       0.40365556       0.00007142 </v>
   <v>       0.40365544      18.53430191       0.00000756 </v>
   <v>       0.00007146       0.00000760      17.71129681 </v>
  </varray>
  <energy>
   <i name="e_fr_energy">   -861.16916399 </i>
   <i name="e_wo_entrp">   -861.16448676 </i>
   <i name="e_0_energy">     -0.01403168 </i>
  </energy>
  <time name="totalsc"> 9289.88 9294.05</time>
 </calculation>
 <calculation>
  <scstep>
   <time name="dav">  232.88  232.97</time>
   <time name="total">  243.73  243.83</time>
   <energy>
    <i name="alphaZ">   7085.54738553 </i>
    <i name="ewald"> -64777.80628553 </i>
    <i name="hartreedc">  -9655.61872657 </i>
    <i name="XCdc">    329.14815038 </i>
    <i name="pawpsdc">  57141.25567002 </i>
    <i name="pawaedc"> -58021.80500928 </i>
    <i name="eentropy">      0.01272082 </i>
    <i name="bandstr">   3801.02683972 </i>
    <i name="atom">  63236.02203821 </i>
    <i name="e_fr_energy">   -862.21721672 </i>
    <i name="e_wo_entrp">   -862.22993753 </i>
    <i name="e_0_energy">   -862.22145699 </i>
   </energy>
  </scstep>
  <scstep>
   <time name="diag">   31.13   31.15</time>
   <time name="diis">  163.78  163.85</time>
   <time name="orth">    6.23    6.23</time>
   <time name="total">  212.04  212.12</time>
   <energy>
    <i name="e_fr_energy">   -912.81889963 </i>
    <i name="e_wo_entrp">   -912.78483768 </i>
    <i name="e_0_energy">   -912.80754564 </i>
   </energy>
  </scstep>
  <scstep>
   <time name="diag">   30.17   30.20</time>
   <time name="diis">  138.89  138.95</time>
   <time name="orth">    6.22    6.22</time>
   <time name="total">  186.23  186.32</time>
   <energy>
    <i name="e_fr_energy">   -865.24728115 </i>
    <i name="e_wo_entrp">   -865.22947342 </i>
    <i name="e_0_energy">   -865.24134524 </i>
   </energy>
  </scstep>
  <scstep>
   <time name="diag">   31.02   31.03</time>
   <time name="diis">  155.18  155.25</time>
   <time name="orth">    6.24    6.24</time>
   <time name="total">  203.35  203.44</time>
   <energy>
    <i name="e_fr_energy">   -862.99823343 </i>
    <i name="e_wo_entrp">   -862.97363210 </i>
    <i name="e_0_energy">   -862.99003298 </i>
   </energy>
  </scstep>
  <scstep>
   <time name="diag">   30.99   31.00</time>
   <time name="diis">  193.97  194.10</time>
   <time name="orth">    6.23    6.24</time>
   <time name="total">  242.11  242.25</time>
   <energy>
    <i name="e_fr_energy">   -862.88532877 </i>
    <i name="e_wo_entrp">   -862.86657823 </i>
    <i name="e_0_energy">   -862.87907859 </i>
   </energy>
  </scstep>
  <scstep>
   <time name="diag">   30.95   30.96</time>
   <time name="diis">  176.49  176.57</time>
   <time name="orth">    6.22    6.22</time>
   <time name="total">  224.55  224.64</time>
   <energy>
    <i name="e_fr_energy">   -862.74093240 </i>
    <i name="e_wo_entrp">   -862.73992247 </i>
    <i name="e_0_energy">   -862.74059576 </i>
   </energy>
  </scstep>
  <scstep>
   <time name="diag">   30.97   30.97</time>
   <time name="diis">  188.79  188.87</time>
   <time name="orth">    6.00    6.01</time>
   <time name="total">  235.93  236.03</time>
   <energy>
    <i name="e_fr_energy">   -862.80874417 </i>
    <i name="e_wo_entrp">   -862.80770351 </i>
    <i name="e_0_energy">   -862.80839728 </i>
   </energy>
  </scstep>
  <scstep>
   <time name="diag">   29.47   29.50</time>
   <time name="diis">  135.94  135.98</time>
   <time name="orth">    6.00    6.00</time>
   <time name="total">  181.56  181.63</time>
   <energy>
    <i name="e_fr_energy">   -862.63770521 </i>
    <i name="e_wo_entrp">   -862.62605136 </i>
    <i name="e_0_energy">   -862.63382059 </i>
   </energy>
  </scstep>
  <scstep>
   <time name="diag">   28.90   28.92</time>
   <time name="diis">  140.78  140.83</time>
   <time name="orth">    6.20    6.20</time>
   <time name="total">  186.76  186.84</time>
   <energy>
    <i name="e_fr_energy">   -862.61162784 </i>
    <i name="e_wo_entrp">   -862.60289811 </i>
    <i name="e_0_energy">   -862.60871793 </i>
   </energy>
  </scstep>
  <scstep>
   <time name="diag">   30.90   30.91</time>
   <time name="diis">  181.31  181.40</time>
   <time name="orth">    6.21    6.21</time>
   <time name="total">  229.31  229.42</time>
   <energy>
    <i name="e_fr_energy">   -862.69295324 </i>
    <i name="e_wo_entrp">   -862.67701220 </i>
    <i name="e_0_energy">   -862.68763956 </i>
   </energy>
  </scstep>
  <scstep>
   <time name="diag">   30.89   30.90</time>
   <time name="diis">  138.98  139.05</time>
   <time name="orth">    6.22    6.22</time>
   <time name="total">  186.55  186.63</time>
   <energy>
    <i name="e_fr_energy">   -862.62852861 </i>
    <i name="e_wo_entrp">   -862.61258048 </i>
    <i name="e_0_energy">   -862.62321257 </i>
   </energy>
  </scstep>
  <scstep>
   <time name="diag">   30.29   30.31</time>
   <time name="diis">  187.27  187.36</time>
   <time name="orth">    6.21    6.22</time>
   <time name="total">  234.51  234.62</time>
   <energy>
    <i name="e_fr_energy">   -862.61759663 </i>
    <i name="e_wo_entrp">   -862.60370447 </i>
    <i name="e_0_energy">   -862.61296591 </i>
   </energy>
  </scstep>
  <scstep>
   <time name="diag">   30.82   30.85</time>
   <time name="diis">  143.33  143.37</time>
   <time name="orth">    6.22    6.22</time>
   <time name="total">  191.11  191.18</time>
   <energy>
    <i name="e_fr_energy">   -862.59343430 </i>
    <i name="e_wo_entrp">   -862.58131054 </i>
    <i name="e_0_energy">   -862.58939305 </i>
   </energy>
  </scstep>
  <scstep>
   <time name="diag">   30.82   30.83</time>
   <time name="diis">  201.58  201.64</time>
   <time name="orth">    6.23    6.23</time>
   <time name="total">  249.24  249.31</time>
   <energy>
    <i name="e_fr_energy">   -862.59350477 </i>
    <i name="e_wo_entrp">   -862.58180986 </i>
    <i name="e_0_energy">   -862.58960647 </i>
   </energy>
  </scstep>
  <scstep>
   <time name="diag">   30.42   30.43</time>
   <time name="diis">  177.99  178.07</time>
   <time name="orth">    6.21    6.23</time>
   <time name="total">  225.26  225.38</time>
   <energy>
    <i name="e_fr_energy">   -862.59237399 </i>
    <i name="e_wo_entrp">   -862.58167021 </i>
    <i name="e_0_energy">   -862.58880606 </i>
   </energy>
  </scstep>
  <scstep>
   <time name="diag">   30.55   30.56</time>
   <time name="diis">  177.66  177.78</time>
   <time name="orth">    6.21    6.21</time>
   <time name="total">  225.07  225.20</time>
   <energy>
    <i name="e_fr_energy">   -862.59199296 </i>
    <i name="e_wo_entrp">   -862.58135703 </i>
    <i name="e_0_energy">   -862.58844765 </i>
   </energy>
  </scstep>
  <scstep>
   <time name="diag">   30.55   30.57</time>
   <time name="diis">  190.43  190.51</time>
   <time name="orth">    6.20    6.20</time>
   <time name="total">  237.85  237.94</time>
   <energy>
    <i name="e_fr_energy">   -862.59228754 </i>
    <i name="e_wo_entrp">   -862.58172458 </i>
    <i name="e_0_energy">   -862.58876655 </i>
   </energy>
  </scstep>
  <scstep>
   <time name="diag">   30.64   30.65</time>
   <time name="diis">  148.79  148.86</time>
   <time name="orth">    6.23    6.23</time>
   <time name="total">  196.30  196.39</time>
   <energy>
    <i name="e_fr_energy">   -862.59201980 </i>
    <i name="e_wo_entrp">   -862.58141159 </i>
    <i name="e_0_energy">   -862.58848373 </i>
   </energy>
  </scstep>
  <scstep>
   <time name="diag">   30.62   30.63</time>
   <time name="diis">  181.51  181.57</time>
   <time name="orth">    5.86    5.86</time>
   <time name="total">  228.29  228.38</time>
   <energy>
    <i name="e_fr_energy">   -862.59198973 </i>
    <i name="e_wo_entrp">   -862.58133311 </i>
    <i name="e_0_energy">   -862.58843752 </i>
   </energy>
  </scstep>
  <scstep>
   <time name="diag">   30.66   30.67</time>
   <time name="diis">  147.46  147.50</time>
   <time name="orth">    6.24    6.24</time>
   <time name="total">  195.05  195.10</time>
   <energy>
    <i name="e_fr_energy">   -862.59183820 </i>
    <i name="e_wo_entrp">   -862.58094142 </i>
    <i name="e_0_energy">   -862.58820594 </i>
   </energy>
  </scstep>
  <scstep>
   <time name="diag">   30.59   30.61</time>
   <time name="diis">  195.63  195.67</time>
   <time name="orth">    6.21    6.21</time>
   <time name="total">  243.14  243.19</time>
   <energy>
    <i name="e_fr_energy">   -862.59182741 </i>
    <i name="e_wo_entrp">   -862.58091933 </i>
    <i name="e_0_energy">   -862.58819138 </i>
   </energy>
  </scstep>
  <scstep>
   <time name="diag">   30.61   30.64</time>
   <time name="diis">  178.40  178.45</time>
   <time name="orth">    6.22    6.22</time>
   <time name="total">  225.86  225.93</time>
   <energy>
    <i name="e_fr_energy">   -862.59183020 </i>
    <i name="e_wo_entrp">   -862.58087078 </i>
    <i name="e_0_energy">   -862.58817706 </i>
   </energy>
  </scstep>
  <scstep>
   <time name="diag">   30.57   30.58</time>
   <time name="diis">  154.68  154.73</time>
   <time name="orth">    6.26    6.26</time>
   <time name="total">  202.20  202.25</time>
   <energy>
    <i name="e_fr_energy">   -862.59182543 </i>
    <i name="e_wo_entrp">   -862.58084963 </i>
    <i name="e_0_energy">   -862.58816683 </i>
   </energy>
  </scstep>
  <scstep>
   <time name="diag">   30.61   30.62</time>
   <time name="diis">  143.08  143.15</time>
   <time name="orth">    6.23    6.23</time>
   <time name="total">  180.19  180.26</time>
   <energy>
    <i name="alphaZ">   7085.54738553 </i>
    <i name="ewald"> -64777.80628553 </i>
    <i name="hartreedc">  -9654.60721233 </i>
    <i name="XCdc">    328.81845352 </i>
    <i name="pawpsdc">  57160.58209727 </i>
    <i name="pawaedc"> -58041.56574471 </i>
    <i name="eentropy">     -0.01097133 </i>
    <i name="bandstr">   3800.42841319 </i>
    <i name="atom">  63236.02203821 </i>
    <i name="e_fr_energy">   -862.59182618 </i>
    <i name="e_wo_entrp">   -862.58085485 </i>
    <i name="e_0_energy">   -862.58816907 </i>
   </energy>
  </scstep>
  <structure>
   <crystal>
    <varray name="basis" >
     <v>      10.33484705       0.00000000       0.00000000 </v>
     <v>       0.00000000      10.33484705       0.00000000 </v>
     <v>       0.00000000       0.00000000      10.33484705 </v>
    </varray>
    <i name="volume">   1103.85533447 </i>
    <varray name="rec_basis" >
     <v>       0.09676002       0.00000000       0.00000000 </v>
     <v>       0.00000000       0.09676002       0.00000000 </v>
     <v>       0.00000000       0.00000000       0.09676002 </v>
    </varray>
   </crystal>
   <varray name="positions" >
    <v>      -0.00035749      -0.00000337       0.00000004 </v>
    <v>       0.00014471       0.16681178       0.16653662 </v>
    <v>       0.00021719       0.33336766       0.00000002 </v>
    <v>       0.00093352       0.49990046       0.16734618 </v>
    <v>      -0.00006431       0.66662166       0.00000001 </v>
    <v>      -0.00086468       0.83330763       0.16760567 </v>
    <v>      -0.00004769       0.00005024       0.33334555 </v>
    <v>      -0.00024731       0.16641974       0.49999997 </v>
    <v>       0.00002643       0.33318361       0.33320721 </v>
    <v>      -0.00124827       0.50090376       0.49999997 </v>
    <v>       0.00003778       0.66675495       0.33312980 </v>
    <v>      -0.00025113       0.83261524       0.49999997 </v>
    <v>      -0.00004770       0.00005023       0.66665444 </v>
    <v>       0.00014470       0.16681178       0.83346338 </v>
    <v>       0.00002643       0.33318362       0.66679277 </v>
    <v>       0.00093351       0.49990047       0.83265384 </v>
    <v>       0.00003778       0.66675495       0.66687020 </v>
    <v>      -0.00086468       0.83330761       0.83239432 </v>
    <v>       0.16674608      -0.00005581       0.16670378 </v>
    <v>       0.16670174       0.16688420       0.00000004 </v>
    <v>       0.16673469       0.83335278       0.00000003 </v>
    <v>       0.16011872       0.32678455       0.49999998 </v>
    <v>       0.16006133       0.50007756       0.32670832 </v>
    <v>       0.16013235       0.67320623       0.49999998 </v>
    <v>       0.16674609      -0.00005582       0.83329621 </v>
    <v>       0.16006135       0.50007757       0.67329165 </v>
    <v>       0.16652225       0.33318821       0.16648212 </v>
    <v>       0.16646997       0.66686381       0.16680609 </v>
    <v>       0.16651766       0.16669353       0.33320719 </v>
    <v>       0.16651057       0.83321277       0.33324325 </v>
    <v>       0.16651767       0.16669352       0.66679280 </v>
    <v>       0.16652224       0.33318822       0.83351788 </v>
    <v>       0.16646998       0.66686381       0.83319391 </v>
    <v>       0.16651057       0.83321277       0.66675676 </v>
    <v>       0.16660699       0.49974239      -0.00000003 </v>
    <v>       0.16658704      -0.00004331       0.49999997 </v>
    <v>       0.33338193      -0.00003606       0.00000002 </v>
    <v>       0.33323346       0.16760053       0.16734624 </v>
    <v>       0.33423763       0.83258951       0.16831572 </v>
    <v>       0.33341081       0.32672796       0.32670896 </v>
    <v>       0.33342790       0.67322467       0.32669631 </v>
    <v>       0.33323347       0.16760054       0.83265375 </v>
    <v>       0.33341081       0.32672792       0.67329105 </v>
    <v>       0.33342788       0.67322471       0.67330371 </v>
    <v>       0.33423763       0.83258949       0.83168427 </v>
    <v>       0.33307539       0.33327298       0.00000001 </v>
    <v>       0.33318112       0.49984816       0.16625312 </v>
    <v>       0.33339963       0.66677205      -0.00000001 </v>
    <v>       0.33337790       0.00007735       0.33322501 </v>
    <v>       0.33423650       0.16541881       0.49999998 </v>
    <v>       0.33439844       0.83362528       0.49999997 </v>
    <v>       0.33337791       0.00007734       0.66677497 </v>
    <v>       0.33318121       0.49984817       0.83374684 </v>
    <v>       0.49990949       0.00005737       0.16669458 </v>
    <v>       0.49995457       0.16660288      -0.00000003 </v>
    <v>       0.50019670       0.33313586       0.16680609 </v>
    <v>       0.50010514       0.50006671      -0.00000004 </v>
    <v>       0.50008370       0.66675079       0.16678833 </v>
    <v>       0.50003986       0.83335387      -0.00000003 </v>
    <v>       0.50026386      -0.00015596       0.49999996 </v>
    <v>       0.50008787       0.16670487       0.33312961 </v>
    <v>       0.50653804       0.32679926       0.49999988 </v>
    <v>       0.50655732       0.50009485       0.32669675 </v>
    <v>       0.50651478       0.67318200       0.49999988 </v>
    <v>       0.50036298       0.83315072       0.33361729 </v>
    <v>       0.49990949       0.00005737       0.83330544 </v>
    <v>       0.50008787       0.16670491       0.66687035 </v>
    <v>       0.50019670       0.33313595       0.83319389 </v>
    <v>       0.50008370       0.66675071       0.83321165 </v>
    <v>       0.50036297       0.83315066       0.66638267 </v>
    <v>       0.66668689       0.33340046      -0.00000001 </v>
    <v>       0.66592368       0.50090478       0.16831569 </v>
    <v>       0.66668807       0.66670705      -0.00000002 </v>
    <v>       0.66663915      -0.00026140       0.33360500 </v>
    <v>       0.66594934       0.16641595       0.49999997 </v>
    <v>       0.50655756       0.50009486       0.67330226 </v>
    <v>       0.66663914      -0.00026140       0.66639499 </v>
    <v>       0.66592360       0.50090478       0.83168428 </v>
    <v>       0.66664176       0.16580251       0.16760561 </v>
    <v>       0.66665882       0.83332468       0.16761969 </v>
    <v>       0.66654701       0.33317641       0.33324324 </v>
    <v>       0.66648512       0.66703048       0.33361763 </v>
    <v>       0.66664176       0.16580252       0.83239440 </v>
    <v>       0.66654702       0.33317641       0.66675672 </v>
    <v>       0.66648514       0.66703047       0.66638234 </v>
    <v>       0.66665881       0.83332467       0.83238032 </v>
    <v>       0.66693366      -0.00011110       0.00000002 </v>
    <v>       0.66695925       0.50106566       0.49999993 </v>
    <v>       0.83329682       0.50004911      -0.00000004 </v>
    <v>       0.83311747      -0.00021543       0.49999997 </v>
    <v>       0.83327712       0.33341195       0.16670381 </v>
    <v>       0.83339035       0.66657651       0.16669441 </v>
    <v>       0.83338328       0.16661957       0.33334554 </v>
    <v>       0.83307115       0.83330481       0.33360536 </v>
    <v>       0.83338328       0.16661959       0.66665445 </v>
    <v>       0.83327711       0.33341196       0.83329619 </v>
    <v>       0.83339034       0.66657650       0.83330559 </v>
    <v>       0.83307117       0.83330481       0.66639463 </v>
    <v>       0.83337871       0.00004573       0.16641582 </v>
    <v>       0.83332957       0.16630955       0.00000003 </v>
    <v>       0.83322173       0.83359954       0.00000003 </v>
    <v>       0.83328950       0.33325293       0.49999997 </v>
    <v>       0.83341029       0.50004504       0.33322499 </v>
    <v>       0.83317623       0.66693157       0.49999997 </v>
    <v>       0.83337870       0.00004573       0.83358418 </v>
    <v>       0.83341023       0.50004504       0.66677497 </v>
    <v>       0.33398147       0.50064548       0.49999962 </v>
[...]
       <r>    -6.0793    -0.0000     2.0000 </r>
       <r>    -6.0169    -0.0000     2.0000 </r>
       <r>    -5.9546    -0.0000     2.0000 </r>
       <r>    -5.8922    -0.0000     2.0000 </r>
       <r>    -5.8299    -0.0000     2.0000 </r>
       <r>    -5.7675    -0.0000     2.0000 </r>
       <r>    -5.7052    -0.0000     2.0000 </r>
       <r>    -5.6428    -0.0000     2.0000 </r>
       <r>    -5.5805     0.0000     2.0000 </r>
       <r>    -5.5181     0.0000     2.0000 </r>
       <r>    -5.4557     0.0000     2.0000 </r>
       <r>    -5.3934     0.0000     2.0000 </r>
       <r>    -5.3310     0.0000     2.0000 </r>
       <r>    -5.2687     0.0000     2.0000 </r>
       <r>    -5.2063     0.0000     2.0000 </r>
       <r>    -5.1440     0.0000     2.0000 </r>
       <r>    -5.0816     0.0000     2.0000 </r>
       <r>    -5.0192     0.0000     2.0000 </r>
       <r>    -4.9569     0.0000     2.0000 </r>
       <r>    -4.8945     0.0000     2.0000 </r>
       <r>    -4.8322     0.0000     2.0000 </r>
       <r>    -4.7698     0.0000     2.0000 </r>
       <r>    -4.7075     0.0000     2.0000 </r>
       <r>    -4.6451     0.0000     2.0000 </r>
       <r>    -4.5827     0.0000     2.0000 </r>
       <r>    -4.5204     0.0000     2.0000 </r>
       <r>    -4.4580     0.0000     2.0000 </r>
       <r>    -4.3957     0.0000     2.0000 </r>
       <r>    -4.3333     0.0000     2.0000 </r>
       <r>    -4.2710     0.0000     2.0000 </r>
       <r>    -4.2086     0.0000     2.0000 </r>
       <r>    -4.1462     0.0000     2.0000 </r>
       <r>    -4.0839     0.0000     2.0000 </r>
       <r>    -4.0215     0.0000     2.0000 </r>
       <r>    -3.9592     0.0000     2.0000 </r>
       <r>    -3.8968     0.0000     2.0000 </r>
       <r>    -3.8345     0.0000     2.0000 </r>
       <r>    -3.7721     0.0000     2.0000 </r>
       <r>    -3.7097     0.0000     2.0000 </r>
       <r>    -3.6474     0.0000     2.0000 </r>
       <r>    -3.5850     0.0000     2.0000 </r>
       <r>    -3.5227     0.0000     2.0000 </r>
       <r>    -3.4603     0.0000     2.0000 </r>
       <r>    -3.3980     0.0000     2.0000 </r>
       <r>    -3.3356    -0.0000     2.0000 </r>
       <r>    -3.2732    -0.0000     2.0000 </r>
       <r>    -3.2109    -0.0000     2.0000 </r>
       <r>    -3.1485    -0.0000     2.0000 </r>
       <r>    -3.0862    -0.0000     2.0000 </r>
       <r>    -3.0238    -0.0000     2.0000 </r>
       <r>    -2.9615    -0.0000     2.0000 </r>
       <r>    -2.8991    -0.0000     2.0000 </r>
       <r>    -2.8367    -0.0000     2.0000 </r>
       <r>    -2.7744    -0.0000     2.0000 </r>
       <r>    -2.7120    -0.0000     2.0000 </r>
       <r>    -2.6497    -0.0000     2.0000 </r>
       <r>    -2.5873    -0.0000     2.0000 </r>
       <r>    -2.5250    -0.0000     2.0000 </r>
       <r>    -2.4626    -0.0000     2.0000 </r>
       <r>    -2.4002    -0.0000     2.0000 </r>
       <r>    -2.3379    -0.0001     2.0000 </r>
       <r>    -2.2755    -0.0004     2.0000 </r>
       <r>    -2.2132    -0.0019     1.9999 </r>
       <r>    -2.1508    -0.0075     1.9994 </r>
       <r>    -2.0885    -0.0236     1.9979 </r>
       <r>    -2.0261    -0.0580     1.9943 </r>
       <r>    -1.9637    -0.1062     1.9877 </r>
       <r>    -1.9014    -0.1252     1.9799 </r>
       <r>    -1.8390    -0.0126     1.9791 </r>
       <r>    -1.7767     0.3710     2.0022 </r>
       <r>    -1.7143     1.1219     2.0722 </r>
       <r>    -1.6520     2.1903     2.2088 </r>
       <r>    -1.5896     3.3361     2.4168 </r>
       <r>    -1.5272     4.2196     2.6799 </r>
       <r>    -1.4649     4.6154     2.9677 </r>
       <r>    -1.4025     4.6216     3.2559 </r>
       <r>    -1.3402     4.6820     3.5479 </r>
       <r>    -1.2778     5.2699     3.8765 </r>
       <r>    -1.2155     6.3508     4.2725 </r>
       <r>    -1.1531     7.2399     4.7240 </r>
       <r>    -1.0907     7.3027     5.1793 </r>
       <r>    -1.0284     6.7899     5.6027 </r>
       <r>    -0.9660     6.6661     6.0184 </r>
       <r>    -0.9037     7.5728     6.4906 </r>
       <r>    -0.8413     9.1979     7.0642 </r>
       <r>    -0.7790    10.6793     7.7301 </r>
       <r>    -0.7166    11.4434     8.4437 </r>
       <r>    -0.6542    11.5621     9.1646 </r>
       <r>    -0.5919    11.3625     9.8732 </r>
       <r>    -0.5295    10.9456    10.5557 </r>
       <r>    -0.4672    10.4036    11.2044 </r>
       <r>    -0.4048    10.3164    11.8477 </r>
       <r>    -0.3425    11.2986    12.5523 </r>
       <r>    -0.2801    12.8335    13.3526 </r>
       <r>    -0.2178    13.3440    14.1846 </r>
       <r>    -0.1554    11.9896    14.9323 </r>
       <r>    -0.0930     9.8426    15.5460 </r>
       <r>    -0.0307     8.7220    16.0899 </r>
       <r>     0.0317     9.3348    16.6720 </r>
       <r>     0.0940    11.0757    17.3626 </r>
       <r>     0.1564    13.1194    18.1807 </r>
       <r>     0.2187    14.9989    19.1160 </r>
       <r>     0.2811    16.3733    20.1370 </r>
       <r>     0.3435    16.8697    21.1890 </r>
       <r>     0.4058    16.2695    22.2035 </r>
       <r>     0.4682    14.7466    23.1230 </r>
       <r>     0.5305    12.9613    23.9313 </r>
       <r>     0.5929    11.7745    24.6655 </r>
       <r>     0.6552    11.6188    25.3900 </r>
       <r>     0.7176    12.2269    26.1524 </r>
       <r>     0.7800    13.1249    26.9708 </r>
       <r>     0.8423    14.1801    27.8551 </r>
       <r>     0.9047    15.4973    28.8214 </r>
       <r>     0.9670    17.0796    29.8865 </r>
       <r>     1.0294    18.8273    31.0605 </r>
       <r>     1.0917    20.5491    32.3419 </r>
       <r>     1.1541    21.7690    33.6993 </r>
       <r>     1.2165    21.9242    35.0664 </r>
       <r>     1.2788    20.9935    36.3755 </r>
       <r>     1.3412    19.6472    37.6007 </r>
       <r>     1.4035    18.7712    38.7712 </r>
       <r>     1.4659    19.1453    39.9650 </r>
       <r>     1.5282    21.3101    41.2939 </r>
       <r>     1.5906    25.0218    42.8541 </r>
       <r>     1.6530    28.7754    44.6485 </r>
       <r>     1.7153    30.6559    46.5601 </r>
       <r>     1.7777    30.2995    48.4495 </r>
       <r>     1.8400    29.8845    50.3130 </r>
       <r>     1.9024    32.7600    52.3558 </r>
       <r>     1.9647    40.9257    54.9078 </r>
       <r>     2.0271    53.7641    58.2604 </r>
       <r>     2.0895    68.8288    62.5523 </r>
       <r>     2.1518    83.2763    67.7452 </r>
       <r>     2.2142    94.5671    73.6421 </r>
       <r>     2.2765   100.9582    79.9376 </r>
       <r>     2.3389   102.4964    86.3289 </r>
       <r>     2.4012   101.3353    92.6479 </r>
       <r>     2.4636   100.2931    98.9019 </r>
       <r>     2.5260   101.0208   105.2012 </r>
       <r>     2.5883   103.6411   111.6640 </r>
       <r>     2.6507   107.7199   118.3810 </r>
       <r>     2.7130   113.2330   125.4419 </r>
       <r>     2.7754   120.4826   132.9548 </r>
       <r>     2.8377   129.0056   140.9992 </r>
       <r>     2.9001   137.0653   149.5462 </r>
       <r>     2.9625   143.0903   158.4689 </r>
       <r>     3.0248   147.4899   167.6659 </r>
       <r>     3.0872   152.0653   177.1483 </r>
       <r>     3.1495   157.5399   186.9720 </r>
       <r>     3.2119   162.5285   197.1068 </r>
       <r>     3.2742   165.0440   207.3984 </r>
       <r>     3.3366   164.2664   217.6416 </r>
       <r>     3.3990   160.8198   227.6698 </r>
       <r>     3.4613   156.2170   237.4110 </r>
       <r>     3.5237   152.3024   246.9081 </r>
       <r>     3.5860   150.3428   256.2831 </r>
       <r>     3.6484   149.9347   265.6325 </r>
       <r>     3.7107   149.1433   274.9327 </r>
       <r>     3.7731   146.2630   284.0532 </r>
       <r>     3.8355   141.4286   292.8722 </r>
       <r>     3.8978   136.4665   301.3819 </r>
       <r>     3.9602   133.3401   309.6966 </r>
       <r>     4.0225   132.5215   317.9602 </r>
       <r>     4.0849   132.5337   326.2246 </r>
       <r>     4.1472   131.3708   334.4165 </r>
       <r>     4.2096   128.8641   342.4521 </r>
       <r>     4.2720   127.4603   350.4001 </r>
       <r>     4.3343   130.0828   358.5117 </r>
       <r>     4.3967   137.3136   367.0741 </r>
       <r>     4.4590   147.3165   376.2603 </r>
       <r>     4.5214   158.1499   386.1221 </r>
       <r>     4.5837   168.6525   396.6388 </r>
       <r>     4.6461   176.9053   407.6700 </r>
       <r>     4.7085   180.0388   418.8967 </r>
       <r>     4.7708   177.3261   429.9542 </r>
       <r>     4.8332   172.6627   440.7210 </r>
       <r>     4.8955   172.3763   451.4698 </r>
       <r>     4.9579   180.1502   462.7034 </r>
       <r>     5.0202   194.1671   474.8111 </r>
       <r>     5.0826   208.8417   487.8339 </r>
       <r>     5.1449   219.1156   501.4972 </r>
       <r>     5.2073   223.6269   515.4419 </r>
       <r>     5.2697   224.6897   529.4529 </r>
       <r>     5.3320   225.9549   543.5428 </r>
       <r>     5.3944   230.0681   557.8891 </r>
       <r>     5.4567   237.4615   572.6965 </r>
       <r>     5.5191   245.8626   588.0278 </r>
       <r>     5.5814   250.5960   603.6542 </r>
       <r>     5.6438   246.7538   619.0410 </r>
       <r>     5.7062   232.7761   633.5562 </r>
       <r>     5.7685   212.2504   646.7915 </r>
       <r>     5.8309   191.4162   658.7276 </r>
       <r>     5.8932   174.4974   669.6088 </r>
       <r>     5.9556   161.7949   679.6978 </r>
       <r>     6.0179   152.1052   689.1826 </r>
       <r>     6.0803   145.7195   698.2692 </r>
       <r>     6.1427   144.2668   707.2653 </r>
       <r>     6.2050   148.3627   716.5167 </r>
       <r>     6.2674   156.3708   726.2675 </r>
       <r>     6.3297   165.4139   736.5823 </r>
       <r>     6.3921   173.3933   747.3945 </r>
       <r>     6.4544   180.3537   758.6409 </r>
       <r>     6.5168   187.7969   770.3513 </r>
       <r>     6.5792   196.0800   782.5783 </r>
       <r>     6.6415   202.8514   795.2275 </r>
       <r>     6.7039   205.1643   808.0209 </r>
       <r>     6.7662   202.9434   820.6758 </r>
       <r>     6.8286   198.8693   833.0767 </r>
       <r>     6.8909   194.6507   845.2145 </r>
       <r>     6.9533   189.2172   857.0136 </r>
       <r>     7.0157   181.5736   868.3359 </r>
       <r>     7.0780   173.8984   879.1797 </r>
       <r>     7.1404   170.0216   889.7817 </r>
       <r>     7.2027   171.1902   900.4566 </r>
       <r>     7.2651   174.8274   911.3584 </r>
       <r>     7.3274   177.8008   922.4455 </r>
       <r>     7.3898   179.9895   933.6691 </r>
       <r>     7.4522   184.2501   945.1584 </r>
       <r>     7.5145   193.4628   957.2221 </r>
       <r>     7.5769   207.2739   970.1471 </r>
       <r>     7.6392   219.8271   983.8548 </r>
       <r>     7.7016   220.0161   997.5744 </r>
       <r>     7.7639   196.9285  1009.8542 </r>
       <r>     7.8263   149.1378  1019.1540 </r>
       <r>     7.8887    89.2854  1024.7216 </r>
       <r>     7.9510    36.8741  1027.0209 </r>
       <r>     8.0134     4.8233  1027.3217 </r>
       <r>     8.0757    -7.0854  1026.8799 </r>
       <r>     8.1381    -7.3539  1026.4213 </r>
       <r>     8.2004    -4.2477  1026.1565 </r>
       <r>     8.2628    -1.7660  1026.0463 </r>
       <r>     8.3252    -0.5652  1026.0111 </r>
       <r>     8.3875    -0.1432  1026.0022 </r>
       <r>     8.4499    -0.0291  1026.0003 </r>
       <r>     8.5122    -0.0048  1026.0000 </r>
       <r>     8.5746    -0.0006  1026.0000 </r>
       <r>     8.6369    -0.0001  1026.0000 </r>
       <r>     8.6993    -0.0000  1026.0000 </r>
       <r>     8.7617    -0.0000  1026.0000 </r>
       <r>     8.8240    -0.0000  1026.0000 </r>
       <r>     8.8864    -0.0000  1026.0000 </r>
       <r>     8.9487    -0.0000  1026.0000 </r>
       <r>     9.0111    -0.0000  1026.0000 </r>
       <r>     9.0734    -0.0000  1026.0000 </r>
       <r>     9.1358     0.0000  1026.0000 </r>
       <r>     9.1982     0.0000  1026.0000 </r>
       <r>     9.2605     0.0000  1026.0000 </r>
       <r>     9.3229     0.0000  1026.0000 </r>
       <r>     9.3852     0.0000  1026.0000 </r>
       <r>     9.4476     0.0000  1026.0000 </r>
       <r>     9.5099     0.0000  1026.0000 </r>
       <r>     9.5723     0.0000  1026.0000 </r>
       <r>     9.6347     0.0000  1026.0000 </r>
       <r>     9.6970     0.0000  1026.0000 </r>
       <r>     9.7594     0.0000  1026.0000 </r>
       <r>     9.8217     0.0000  1026.0000 </r>
      </set>
     </set>
    </array>
   </total>
  </dos>
 </calculation>
 <structure name="finalpos" >
  <crystal>
   <varray name="basis" >
    <v>      10.33484705       0.00000000       0.00000000 </v>
    <v>       0.00000000      10.33484705       0.00000000 </v>
    <v>       0.00000000       0.00000000      10.33484705 </v>
   </varray>
   <i name="volume">   1103.85533447 </i>
   <varray name="rec_basis" >
    <v>       0.09676002       0.00000000       0.00000000 </v>
    <v>       0.00000000       0.09676002       0.00000000 </v>
    <v>       0.00000000       0.00000000       0.09676002 </v>
   </varray>
  </crystal>
  <varray name="positions" >
   <v>      -0.00083018      -0.00043874      -0.00000007 </v>
   <v>      -0.00006650       0.16660022       0.16621066 </v>
   <v>      -0.00119903       0.33285949      -0.00000006 </v>
   <v>      -0.00013395       0.49985823       0.16594217 </v>
   <v>      -0.00144180       0.66733433       0.00000001 </v>
   <v>      -0.00242118       0.83351045       0.16862648 </v>
   <v>      -0.00122498       0.00010662       0.33305140 </v>
   <v>      -0.00233860       0.16432809       0.49999974 </v>
   <v>      -0.00106429       0.33253178       0.33308903 </v>
   <v>      -0.00258591       0.50199849       0.50000001 </v>
   <v>      -0.00082852       0.66708540       0.33269315 </v>
   <v>      -0.00225260       0.83354367       0.49999988 </v>
   <v>      -0.00122513       0.00010666       0.66694826 </v>
   <v>      -0.00006656       0.16660019       0.83378920 </v>
   <v>      -0.00106435       0.33253172       0.66691064 </v>
   <v>      -0.00013407       0.49985822       0.83405781 </v>
   <v>      -0.00082854       0.66708542       0.66730675 </v>
   <v>      -0.00242128       0.83351046       0.83137335 </v>
   <v>       0.16613113      -0.00049682       0.16584499 </v>
   <v>       0.16619294       0.16546760      -0.00000004 </v>
   <v>       0.16599964       0.83429716       0.00000007 </v>
   <v>       0.15845155       0.32511838       0.49999990 </v>
   <v>       0.15789632       0.50004568       0.32529049 </v>
   <v>       0.15826113       0.67534624       0.50000005 </v>
   <v>       0.16613112      -0.00049682       0.83415482 </v>
   <v>       0.15789710       0.50004573       0.67470878 </v>
   <v>       0.16599140       0.33265789       0.16569343 </v>
   <v>       0.16600108       0.66774945       0.16629944 </v>
   <v>       0.16586528       0.16560245       0.33308901 </v>
   <v>       0.16642967       0.83402455       0.33313345 </v>
   <v>       0.16586524       0.16560240       0.66691064 </v>
   <v>       0.16599136       0.33265788       0.83430639 </v>
   <v>       0.16600099       0.66774945       0.83370065 </v>
   <v>       0.16642967       0.83402462       0.66686640 </v>
   <v>       0.16647885       0.49979713       0.00000006 </v>
   <v>       0.16640203      -0.00040674       0.49999989 </v>
   <v>       0.33327316      -0.00047176       0.00000017 </v>
   <v>       0.33319164       0.16653288       0.16594217 </v>
   <v>       0.33479327       0.83421816       0.16733062 </v>
   <v>       0.33337880       0.32456165       0.32528895 </v>
   <v>       0.33315870       0.67503143       0.32464923 </v>
   <v>       0.33319163       0.16653277       0.83405778 </v>
   <v>       0.33337879       0.32456248       0.67471028 </v>
   <v>       0.33315874       0.67503036       0.67534999 </v>
   <v>       0.33479333       0.83421830       0.83266971 </v>
   <v>       0.33313064       0.33314533       0.00000006 </v>
   <v>       0.33287126       0.49953791       0.16684749 </v>
   <v>       0.33333233       0.66716326       0.00000017 </v>
   <v>       0.33326263       0.00007705       0.33275387 </v>
   <v>       0.33533176       0.16408037       0.50000001 </v>
   <v>       0.33496031       0.83273091       0.50000003 </v>
   <v>       0.33326267       0.00007705       0.66724596 </v>
   <v>       0.33287122       0.49953792       0.83315210 </v>
   <v>       0.50015959       0.00029911       0.16495515 </v>
   <v>       0.50066775       0.16522512       0.00000003 </v>
   <v>       0.50108286       0.33266765       0.16629960 </v>
   <v>       0.50049672       0.49999887       0.00000017 </v>
   <v>       0.50041128       0.66707771       0.16615990 </v>
   <v>       0.50083095       0.83422324       0.00000018 </v>
   <v>       0.50159951      -0.00243797       0.50000003 </v>
   <v>       0.50041969       0.16583711       0.33269216 </v>
   <v>       0.50868239       0.32492479       0.50000006 </v>
   <v>       0.50836641       0.49982556       0.32464707 </v>
   <v>       0.51862517       0.68529176       0.50000003 </v>
   <v>       0.50161449       0.83427571       0.33205312 </v>
   <v>       0.50015914       0.00029986       0.83504653 </v>
   <v>       0.50041890       0.16583828       0.66730668 </v>
   <v>       0.50108287       0.33266762       0.83370039 </v>
   <v>       0.50041130       0.66707776       0.83384035 </v>
   <v>       0.50161452       0.83427580       0.66794705 </v>
   <v>       0.66763021       0.33266608       0.00000009 </v>
   <v>       0.66755119       0.50145986       0.16733073 </v>
   <v>       0.66755656       0.66749753       0.00000018 </v>
   <v>       0.66768807      -0.00145206       0.33438719 </v>
   <v>       0.66687676       0.16441427       0.49999993 </v>
   <v>       0.50836535       0.49982559       0.67535216 </v>
   <v>       0.66768820      -0.00145214       0.66561275 </v>
   <v>       0.66755121       0.50145977       0.83266948 </v>
   <v>       0.66684363       0.16424556       0.16862664 </v>
   <v>       0.66699007       0.83365688       0.16786822 </v>
   <v>       0.66735765       0.33309616       0.33313350 </v>
   <v>       0.66760878       0.66828105       0.33205314 </v>
   <v>       0.66684368       0.16424553       0.83137320 </v>
   <v>       0.66735765       0.33309620       0.66686642 </v>
   <v>       0.66760888       0.66828099       0.66794713 </v>
   <v>       0.66699012       0.83365695       0.83213182 </v>
   <v>       0.66705297      -0.00021158      -0.00000000 </v>
   <v>       0.66606467       0.50162697       0.50000005 </v>
   <v>       0.83286071       0.49993972       0.00000011 </v>
   <v>       0.83089621      -0.00243616       0.49999976 </v>
   <v>       0.83283605       0.33279768       0.16584517 </v>
   <v>       0.83363199       0.66682619       0.16495495 </v>
   <v>       0.83343947       0.16544177       0.33305146 </v>
   <v>       0.83188086       0.83435493       0.33438698 </v>
   <v>       0.83343942       0.16544164       0.66694823 </v>
   <v>       0.83283600       0.33279759       0.83415471 </v>
   <v>       0.83363193       0.66682627       0.83504511 </v>
   <v>       0.83188077       0.83435501       0.66561284 </v>
   <v>       0.83349807       0.00016503       0.16616588 </v>
   <v>       0.83289423       0.16583666      -0.00000009 </v>
   <v>       0.83312141       0.83371985      -0.00000002 </v>
   <v>       0.83292596       0.33306848       0.49999992 </v>
   <v>       0.83340980       0.49992910       0.33275378 </v>
   <v>       0.83089480       0.66826594       0.50000002 </v>
   <v>       0.83349803       0.00016501       0.83383410 </v>
   <v>       0.83340981       0.49992910       0.66724608 </v>
   <v>       0.33644640       0.50312058       0.50000216 </v>
  </varray>
 </structure>
</modeling>
