Opt                                     
           1
    10.334847    0.000000    0.000000
     0.000000   10.334847    0.000000
     0.000000    0.000000   10.334847
   Fe   Te
 106   1
Direct configuration=     1
   0.00000000  0.00000000  0.00000000
   0.00000000  0.16666893  0.16666893
   0.00000000  0.33333106  0.00000000
   0.00000000  0.50000000  0.16666894
   0.00000000  0.66666897  0.00000000
   0.00000000  0.83333104  0.16666893
   0.00000000  0.00000000  0.33333106
   0.00000000  0.16666894  0.50000000
   0.00000000  0.33333107  0.33333107
   0.00000000  0.50000000  0.50000000
   0.00000000  0.66666896  0.33333107
   0.00000000  0.83333103  0.50000000
   0.00000000  0.00000000  0.66666897
   0.00000000  0.16666893  0.83333104
   0.00000000  0.33333107  0.66666896
   0.00000000  0.50000000  0.83333103
   0.00000000  0.66666896  0.66666896
   0.00000000  0.83333104  0.83333104
   0.16666893  0.00000000  0.16666893
   0.16666893  0.16666893  0.00000000
   0.16666893  0.83333104  0.00000000
   0.16666893  0.33333107  0.50000000
   0.16666893  0.50000000  0.33333107
   0.16666893  0.66666896  0.50000000
   0.16666893  0.00000000  0.83333104
   0.16666893  0.50000000  0.66666896
   0.16666893  0.33333107  0.16666893
   0.16666893  0.66666896  0.16666893
   0.16666893  0.16666893  0.33333107
   0.16666893  0.83333104  0.33333107
   0.16666893  0.16666893  0.66666896
   0.16666893  0.33333107  0.83333104
   0.16666893  0.66666896  0.83333104
   0.16666893  0.83333104  0.66666896
   0.16666894  0.50000000  0.00000000
   0.16666894  0.00000000  0.50000000
   0.33333106  0.00000000  0.00000000
   0.33333107  0.16666893  0.16666893
   0.33333107  0.83333104  0.16666893
   0.33333107  0.33333107  0.33333107
   0.33333107  0.66666896  0.33333107
   0.33333107  0.16666893  0.83333104
   0.33333107  0.33333107  0.66666896
   0.33333107  0.66666896  0.66666896
   0.33333107  0.83333104  0.83333104
   0.33333107  0.33333107  0.00000000
   0.33333107  0.50000000  0.16666893
   0.33333107  0.66666896  0.00000000
   0.33333107  0.00000000  0.33333107
   0.33333107  0.16666893  0.50000000
   0.33333107  0.83333104  0.50000000
   0.33333107  0.00000000  0.66666896
   0.33333107  0.50000000  0.83333104
   0.50000000  0.00000000  0.16666894
   0.50000000  0.16666894  0.00000000
   0.50000000  0.33333107  0.16666893
   0.50000000  0.50000000  0.00000000
   0.50000000  0.66666896  0.16666893
   0.50000000  0.83333103  0.00000000
   0.50000000  0.00000000  0.50000000
   0.50000000  0.16666893  0.33333107
   0.50000000  0.33333106  0.50000000
   0.50000000  0.50000000  0.33333106
   0.50000000  0.66666897  0.50000000
   0.50000000  0.83333104  0.33333107
   0.50000000  0.00000000  0.83333103
   0.50000000  0.16666893  0.66666896
   0.50000000  0.33333107  0.83333104
   0.50000000  0.66666896  0.83333104
   0.50000000  0.83333104  0.66666896
   0.66666896  0.33333107  0.00000000
   0.66666896  0.50000000  0.16666893
   0.66666896  0.66666896  0.00000000
   0.66666896  0.00000000  0.33333107
   0.66666896  0.16666893  0.50000000
   0.50000000  0.50000000  0.66666667
   0.66666896  0.00000000  0.66666896
   0.66666896  0.50000000  0.83333104
   0.66666896  0.16666893  0.16666893
   0.66666896  0.83333104  0.16666893
   0.66666896  0.33333107  0.33333107
   0.66666896  0.66666896  0.33333107
   0.66666896  0.16666893  0.83333104
   0.66666896  0.33333107  0.66666896
   0.66666896  0.66666896  0.66666896
   0.66666896  0.83333104  0.83333104
   0.66666897  0.00000000  0.00000000
   0.66666897  0.50000000  0.50000000
   0.83333103  0.50000000  0.00000000
   0.83333103  0.00000000  0.50000000
   0.83333104  0.33333107  0.16666893
   0.83333104  0.66666896  0.16666893
   0.83333104  0.16666893  0.33333107
   0.83333104  0.83333104  0.33333107
   0.83333104  0.16666893  0.66666896
   0.83333104  0.33333107  0.83333104
   0.83333104  0.66666896  0.83333104
   0.83333104  0.83333104  0.66666896
   0.83333104  0.00000000  0.16666893
   0.83333104  0.16666893  0.00000000
   0.83333104  0.83333104  0.00000000
   0.83333104  0.33333107  0.50000000
   0.83333104  0.50000000  0.33333107
   0.83333104  0.66666896  0.50000000
   0.83333104  0.00000000  0.83333104
   0.83333104  0.50000000  0.66666896
   0.33333106  0.50000000  0.50000000
Direct configuration=     2
  -0.00035749 -0.00000337  0.00000004
   0.00014471  0.16681178  0.16653662
   0.00021719  0.33336766  0.00000002
   0.00093352  0.49990046  0.16734618
  -0.00006431  0.66662166  0.00000001
  -0.00086468  0.83330763  0.16760567
  -0.00004769  0.00005024  0.33334555
  -0.00024731  0.16641974  0.49999997
   0.00002643  0.33318361  0.33320721
  -0.00124827  0.50090376  0.49999997
   0.00003778  0.66675495  0.33312980
  -0.00025113  0.83261524  0.49999997
  -0.00004770  0.00005023  0.66665444
   0.00014470  0.16681178  0.83346338
   0.00002643  0.33318362  0.66679277
   0.00093351  0.49990047  0.83265384
   0.00003778  0.66675495  0.66687020
  -0.00086468  0.83330761  0.83239432
   0.16674608 -0.00005581  0.16670378
   0.16670174  0.16688420  0.00000004
   0.16673469  0.83335278  0.00000003
   0.16011872  0.32678455  0.49999998
   0.16006133  0.50007756  0.32670832
   0.16013235  0.67320623  0.49999998
   0.16674609 -0.00005582  0.83329621
   0.16006135  0.50007757  0.67329165
   0.16652225  0.33318821  0.16648212
   0.16646997  0.66686381  0.16680609
   0.16651766  0.16669353  0.33320719
   0.16651057  0.83321277  0.33324325
   0.16651767  0.16669352  0.66679280
   0.16652224  0.33318822  0.83351788
   0.16646998  0.66686381  0.83319391
   0.16651057  0.83321277  0.66675676
   0.16660699  0.49974239 -0.00000003
   0.16658704 -0.00004331  0.49999997
   0.33338193 -0.00003606  0.00000002
   0.33323346  0.16760053  0.16734624
   0.33423763  0.83258951  0.16831572
   0.33341081  0.32672796  0.32670896
   0.33342790  0.67322467  0.32669631
   0.33323347  0.16760054  0.83265375
   0.33341081  0.32672792  0.67329105
   0.33342788  0.67322471  0.67330371
   0.33423763  0.83258949  0.83168427
   0.33307539  0.33327298  0.00000001
   0.33318112  0.49984816  0.16625312
   0.33339963  0.66677205 -0.00000001
   0.33337790  0.00007735  0.33322501
   0.33423650  0.16541881  0.49999998
   0.33439844  0.83362528  0.49999997
   0.33337791  0.00007734  0.66677497
   0.33318121  0.49984817  0.83374684
   0.49990949  0.00005737  0.16669458
   0.49995457  0.16660288 -0.00000003
   0.50019670  0.33313586  0.16680609
   0.50010514  0.50006671 -0.00000004
   0.50008370  0.66675079  0.16678833
   0.50003986  0.83335387 -0.00000003
   0.50026386 -0.00015596  0.49999996
   0.50008787  0.16670487  0.33312961
   0.50653804  0.32679926  0.49999988
   0.50655732  0.50009485  0.32669675
   0.50651478  0.67318200  0.49999988
   0.50036298  0.83315072  0.33361729
   0.49990949  0.00005737  0.83330544
   0.50008787  0.16670491  0.66687035
   0.50019670  0.33313595  0.83319389
   0.50008370  0.66675071  0.83321165
   0.50036297  0.83315066  0.66638267
   0.66668689  0.33340046 -0.00000001
   0.66592368  0.50090478  0.16831569
   0.66668807  0.66670705 -0.00000002
   0.66663915 -0.00026140  0.33360500
   0.66594934  0.16641595  0.49999997
   0.50655756  0.50009486  0.67330226
   0.66663914 -0.00026140  0.66639499
   0.66592360  0.50090478  0.83168428
   0.66664176  0.16580251  0.16760561
   0.66665882  0.83332468  0.16761969
   0.66654701  0.33317641  0.33324324
   0.66648512  0.66703048  0.33361763
   0.66664176  0.16580252  0.83239440
   0.66654702  0.33317641  0.66675672
   0.66648514  0.66703047  0.66638234
   0.66665881  0.83332467  0.83238032
   0.66693366 -0.00011110  0.00000002
   0.66695925  0.50106566  0.49999993
   0.83329682  0.50004911 -0.00000004
   0.83311747 -0.00021543  0.49999997
   0.83327712  0.33341195  0.16670381
   0.83339035  0.66657651  0.16669441
   0.83338328  0.16661957  0.33334554
   0.83307115  0.83330481  0.33360536
   0.83338328  0.16661959  0.66665445
   0.83327711  0.33341196  0.83329619
   0.83339034  0.66657650  0.83330559
   0.83307117  0.83330481  0.66639463
   0.83337871  0.00004573  0.16641582
   0.83332957  0.16630955  0.00000003
   0.83322173  0.83359954  0.00000003
   0.83328950  0.33325293  0.49999997
   0.83341029  0.50004504  0.33322499
   0.83317623  0.66693157  0.49999997
   0.83337870  0.00004573  0.83358418
   0.83341023  0.50004504  0.66677497
   0.33398147  0.50064548  0.49999962
Direct configuration=     3
  -0.00044665 -0.00000421  0.00000005
   0.00018080  0.16684740  0.16650362
   0.00027136  0.33337679  0.00000003
   0.00116634  0.49987564  0.16751508
  -0.00008035  0.66660986  0.00000002
  -0.00108034  0.83330179  0.16783930
  -0.00005959  0.00006277  0.33334917
  -0.00030899  0.16635758  0.49999996
   0.00003302  0.33314683  0.33317632
  -0.00155960  0.50112916  0.49999996
   0.00004720  0.66677639  0.33307960
  -0.00031376  0.83243673  0.49999996
  -0.00005959  0.00006276  0.66665082
   0.00018079  0.16684741  0.83349639
   0.00003302  0.33314684  0.66682365
   0.00116633  0.49987564  0.83248495
   0.00004720  0.66677639  0.66692039
  -0.00108033  0.83330177  0.83216071
   0.16676532 -0.00006974  0.16671247
   0.16670993  0.16693789  0.00000004
   0.16675108  0.83335820  0.00000004
   0.15848508  0.32515184  0.49999998
   0.15841338  0.50009690  0.32505660
   0.15850211  0.67483663  0.49999998
   0.16676533 -0.00006974  0.83328752
   0.15841340  0.50009691  0.67494337
   0.16648566  0.33315258  0.16643553
   0.16642035  0.66691241  0.16684030
   0.16647993  0.16669966  0.33317629
   0.16647107  0.83318327  0.33322135
   0.16647994  0.16669966  0.66682369
   0.16648566  0.33315259  0.83356448
   0.16642035  0.66691240  0.83315971
   0.16647108  0.83318327  0.66677865
   0.16659154  0.49967814 -0.00000003
   0.16656662 -0.00005411  0.49999996
   0.33339462 -0.00004506  0.00000002
   0.33320912  0.16783288  0.16751517
   0.33446372  0.83240457  0.16872643
   0.33343070  0.32508113  0.32505739
   0.33345204  0.67485968  0.32504158
   0.33320913  0.16783288  0.83248483
   0.33343069  0.32508108  0.67494262
   0.33345203  0.67485973  0.67495843
   0.33446373  0.83240455  0.83127356
   0.33301162  0.33325849  0.00000001
   0.33314373  0.49981030  0.16614942
   0.33341673  0.66679776 -0.00000001
   0.33338958  0.00009664  0.33319856
   0.33446231  0.16510703  0.49999997
   0.33466464  0.83369867  0.49999997
   0.33338959  0.00009663  0.66680141
   0.33314384  0.49981030  0.83385054
   0.49988692  0.00007168  0.16670097
   0.49994324  0.16658640 -0.00000003
   0.50024576  0.33308718  0.16684030
   0.50013136  0.50008335 -0.00000006
   0.50010458  0.66677119  0.16681811
   0.50004980  0.83335957 -0.00000004
   0.50032967 -0.00019485  0.49999995
   0.50010978  0.16671383  0.33307937
   0.50816864  0.32517021  0.49999985
   0.50819273  0.50011851  0.32504214
   0.50813958  0.67480636  0.49999986
   0.50045351  0.83310575  0.33368867
   0.49988692  0.00007168  0.83329906
   0.50010978  0.16671389  0.66692057
   0.50024576  0.33308729  0.83315968
   0.50010457  0.66677110  0.83318188
   0.50045349  0.83310567  0.66631127
   0.66669136  0.33341777 -0.00000001
   0.66573781  0.50113044  0.16872639
   0.66669284  0.66671654 -0.00000002
   0.66663171 -0.00032660  0.33367332
   0.66576987  0.16635286  0.49999996
   0.50819303  0.50011852  0.67495719
   0.66663170 -0.00032659  0.66632666
   0.66573771  0.50113043  0.83127358
   0.66663497  0.16558642  0.16783922
   0.66665629  0.83332309  0.16785681
   0.66651659  0.33313784  0.33322134
   0.66643927  0.66712064  0.33368910
   0.66663497  0.16558644  0.83216079
   0.66651660  0.33313784  0.66677861
   0.66643929  0.66712063  0.66631086
   0.66665628  0.83332308  0.83214320
   0.66699967 -0.00013881  0.00000002
   0.66703165  0.50133144  0.49999992
   0.83328828  0.50006136 -0.00000005
   0.83306421 -0.00026916  0.49999996
   0.83326368  0.33343213  0.16671251
   0.83340514  0.66655345  0.16670077
   0.83339631  0.16660726  0.33334915
   0.83300634  0.83329827  0.33367377
   0.83339631  0.16660728  0.66665083
   0.83326366  0.33343214  0.83328750
   0.83340513  0.66655344  0.83329924
   0.83300636  0.83329826  0.66632621
   0.83339060  0.00005714  0.16635270
   0.83332921  0.16621992  0.00000004
   0.83319447  0.83366651  0.00000003
   0.83327914  0.33323344  0.49999997
   0.83343005  0.50005627  0.33319853
   0.83313763  0.66699706  0.49999997
   0.83339059  0.00005713  0.83364732
   0.83342998  0.50005627  0.66680141
   0.33414369  0.50080646  0.49999952
Direct configuration=     4
  -0.00042060 -0.00009514 -0.00000022
   0.00012918  0.16679596  0.16635691
  -0.00042234  0.33332397 -0.00000020
   0.00026012  0.49985628  0.16649484
  -0.00079898  0.66678845 -0.00000021
  -0.00158758  0.83336310  0.16815484
  -0.00064290  0.00008520  0.33332022
  -0.00140828  0.16525848  0.50000020
  -0.00050281  0.33292648  0.33310867
  -0.00176327  0.50150658  0.50000018
  -0.00031722  0.66693077  0.33284040
  -0.00151192  0.83329634  0.50000024
  -0.00064298  0.00008517  0.66668003
   0.00012916  0.16679594  0.83364288
  -0.00050278  0.33292648  0.66689154
   0.00026012  0.49985628  0.83350499
  -0.00031731  0.66693082  0.66715981
  -0.00158764  0.83336311  0.83184487
   0.16674406 -0.00022774  0.16607084
   0.16665725  0.16624434 -0.00000019
   0.16677006  0.83396143 -0.00000018
   0.15820786  0.32487480  0.50000020
   0.15825043  0.50008337  0.32503299
   0.15829556  0.67520389  0.50000022
   0.16674408 -0.00022774  0.83392896
   0.15825068  0.50008335  0.67496697
   0.16631076  0.33297751  0.16593626
   0.16621816  0.66731067  0.16634091
   0.16625972  0.16616400  0.33310865
   0.16631909  0.83365536  0.33311741
   0.16625974  0.16616401  0.66689157
   0.16631079  0.33297751  0.83406351
   0.16621817  0.66731067  0.83365886
   0.16631909  0.83365539  0.66688281
   0.16649434  0.49966028 -0.00000027
   0.16639026 -0.00007647  0.50000023
   0.33339954 -0.00016774 -0.00000022
   0.33319011  0.16692688  0.16649496
   0.33481148  0.83350689  0.16807006
   0.33341720  0.32491721  0.32503280
   0.33321618  0.67491548  0.32479748
   0.33319012  0.16692688  0.83350485
   0.33341715  0.32491743  0.67496718
   0.33321621  0.67491529  0.67520251
   0.33481150  0.83350690  0.83192969
   0.33299412  0.33316110 -0.00000023
   0.33307458  0.49974088  0.16636076
   0.33340658  0.66703817 -0.00000020
   0.33336749  0.00009154  0.33306446
   0.33484017  0.16490330  0.50000021
   0.33488093  0.83349900  0.50000026
   0.33336756  0.00009153  0.66693575
   0.33307465  0.49974086  0.83363897
   0.49989246  0.00002932  0.16601436
   0.50012213  0.16586784 -0.00000025
   0.50064432  0.33288494  0.16634092
   0.50037196  0.50007277 -0.00000023
   0.50034100  0.66700737  0.16642076
   0.50021167  0.83395662 -0.00000025
   0.50074201 -0.00069158  0.50000026
   0.50026448  0.16634946  0.33284038
   0.50853776  0.32496198  0.50000013
   0.50824841  0.49988288  0.32479723
   0.51091109  0.67757777  0.50000016
   0.50107555  0.83335234  0.33387571
   0.49989250  0.00002930  0.83398534
   0.50026449  0.16634944  0.66715978
   0.50064430  0.33288502  0.83365882
   0.50034104  0.66700732  0.83357893
   0.50107564  0.83335233  0.66612453
   0.66729448  0.33343673 -0.00000022
   0.66683998  0.50147776  0.16807008
   0.66728968  0.66687807 -0.00000024
   0.66726321 -0.00062822  0.33397195
   0.66662932  0.16515474  0.50000024
   0.50824935  0.49988254  0.67520257
   0.66726321 -0.00062834  0.66602831
   0.66683990  0.50147779  0.83192966
   0.66669542  0.16507977  0.16815413
   0.66675471  0.83342180  0.16818279
   0.66698849  0.33298578  0.33311742
   0.66668543  0.66774227  0.33387597
   0.66669544  0.16507972  0.83184559
   0.66698849  0.33298572  0.66688271
   0.66668550  0.66774242  0.66612427
   0.66675476  0.83342183  0.83181681
   0.66690484 -0.00026010 -0.00000023
   0.66683210  0.50154720  0.50000017
   0.83316525  0.50006575 -0.00000024
   0.83259737 -0.00073542  0.50000026
   0.83310538  0.33341081  0.16607091
   0.83336252  0.66655869  0.16601418
   0.83341832  0.16602392  0.33332021
   0.83270450  0.83393012  0.33397219
   0.83341831  0.16602386  0.66668000
   0.83310539  0.33341079  0.83392891
   0.83336248  0.66655876  0.83398551
   0.83270442  0.83393012  0.66602809
   0.83342496  0.00009184  0.16631728
   0.83323803  0.16624611 -0.00000022
   0.83307297  0.83357194 -0.00000023
   0.83325653  0.33305698  0.50000020
   0.83342470  0.50003363  0.33306437
   0.83264094  0.66740885  0.50000026
   0.83342490  0.00009178  0.83368242
   0.83342464  0.50003370  0.66693579
   0.33419664  0.50086362  0.50000023
Direct configuration=     5
  -0.00039684 -0.00017811 -0.00000047
   0.00008208  0.16674902  0.16622303
  -0.00105533  0.33327578 -0.00000041
  -0.00056680  0.49983861  0.16556388
  -0.00145472  0.66695141 -0.00000041
  -0.00205043  0.83341905  0.16844277
  -0.00117517  0.00010568  0.33329381
  -0.00241136  0.16425556  0.50000042
  -0.00099174  0.33272541  0.33304693
  -0.00194912  0.50185097  0.50000039
  -0.00064974  0.66707164  0.33262213
  -0.00260523  0.83408073  0.50000050
  -0.00117532  0.00010562  0.66670669
   0.00008205  0.16674898  0.83377656
  -0.00099170  0.33272540  0.66695349
  -0.00056680  0.49983860  0.83443576
  -0.00064991  0.66707174  0.66737829
  -0.00205055  0.83341908  0.83155667
   0.16672467 -0.00037192  0.16548536
   0.16660918  0.16561149 -0.00000041
   0.16678737  0.83451187 -0.00000039
   0.15795490  0.32462200  0.50000040
   0.15810173  0.50007103  0.32501146
   0.15810709  0.67553901  0.50000044
   0.16672469 -0.00037191  0.83451425
   0.15810219  0.50007098  0.67498851
   0.16615117  0.33281776  0.16548069
   0.16603366  0.66767408  0.16588523
   0.16605879  0.16567522  0.33304693
   0.16618040  0.83408614  0.33302256
   0.16605881  0.16567524  0.66695350
   0.16615122  0.33281776  0.83451887
   0.16603368  0.66767408  0.83411433
   0.16618041  0.83408619  0.66697785
   0.16640564  0.49964399 -0.00000048
   0.16622933 -0.00009688  0.50000047
   0.33340403 -0.00027968 -0.00000044
   0.33317277  0.16610017  0.16556403
   0.33512880  0.83451274  0.16747113
   0.33340487  0.32476764  0.32501036
   0.33300096  0.67496640  0.32457475
   0.33317278  0.16610017  0.83443560
   0.33340479  0.32476809  0.67498958
   0.33300102  0.67496599  0.67542523
   0.33512883  0.83451278  0.83252839
   0.33297814  0.33307223 -0.00000045
   0.33301148  0.49967754  0.16655362
   0.33339731  0.66725754 -0.00000038
   0.33334734  0.00008688  0.33294209
   0.33518496  0.16471740  0.50000043
   0.33507830  0.83331681  0.50000052
   0.33334745  0.00008687  0.66705833
   0.33301151  0.49967749  0.83344592
   0.49989753 -0.00000933  0.16538784
   0.50028536  0.16521217 -0.00000046
   0.50100800  0.33270041  0.16588525
   0.50059150  0.50006311 -0.00000039
   0.50055673  0.66722287  0.16605819
   0.50035938  0.83450142 -0.00000044
   0.50111827 -0.00114484  0.50000055
   0.50040563  0.16601698  0.33262231
   0.50887457  0.32477197  0.50000037
   0.50829922  0.49966788  0.32457376
   0.51344006  0.68010664  0.50000043
   0.50164316  0.83357736  0.33404637
   0.49989760 -0.00000938  0.83461156
   0.50040565  0.16601688  0.66737805
   0.50100795  0.33270045  0.83411428
   0.50055682  0.66722288  0.83394124
   0.50164335  0.83357741  0.66595413
   0.66784482  0.33345402 -0.00000040
   0.66784570  0.50179468  0.16747121
   0.66783428  0.66702547 -0.00000044
   0.66783945 -0.00090345  0.33424444
   0.66741356  0.16406148  0.50000049
   0.50830075  0.49966721  0.67542647
   0.66783946 -0.00090368  0.66575606
   0.66784564  0.50179475  0.83252833
   0.66675058  0.16461745  0.16844149
   0.66684452  0.83351188  0.16848025
   0.66741909  0.33284703  0.33302259
   0.66691005  0.66830950  0.33404649
   0.66675062  0.16461735  0.83155797
   0.66741909  0.33284692  0.66697771
   0.66691016  0.66830979  0.66595401
   0.66684462  0.83351193  0.83151899
   0.66681830 -0.00037077 -0.00000047
   0.66665002  0.50174407  0.50000040
   0.83305298  0.50006976 -0.00000042
   0.83217139 -0.00116088  0.50000054
   0.83296093  0.33339136  0.16548546
   0.83332363  0.66656347  0.16538767
   0.83343840  0.16549163  0.33329381
   0.83242907  0.83450667  0.33424450
   0.83343838  0.16549150  0.66670662
   0.83296097  0.33339131  0.83451418
   0.83332356  0.66656362  0.83461171
   0.83242891  0.83450668  0.66575605
   0.83345632  0.00012351  0.16628496
   0.83315483  0.16627002 -0.00000046
   0.83296211  0.83348565 -0.00000047
   0.83323590  0.33289596  0.50000041
   0.83341982  0.50001298  0.33294194
   0.83218772  0.66778461  0.50000054
   0.83345621  0.00012339  0.83371444
   0.83341977  0.50001311  0.66705841
   0.33424496  0.50091577  0.50000088
Direct configuration=     6
  -0.00061175 -0.00029585 -0.00000012
   0.00001318  0.16667975  0.16618877
  -0.00117178  0.33291440 -0.00000012
  -0.00041624  0.49987641  0.16568614
  -0.00164186  0.66737591 -0.00000018
  -0.00229595  0.83350485  0.16850402
  -0.00123435  0.00010836  0.33297397
  -0.00251001  0.16415663  0.50000000
  -0.00111847  0.33265742  0.33296943
  -0.00210884  0.50196363  0.50000009
  -0.00073648  0.66712266  0.33252604
  -0.00251516  0.83392482  0.50000004
  -0.00123441  0.00010834  0.66702606
   0.00001314  0.16667976  0.83381113
  -0.00111850  0.33265752  0.66703054
  -0.00041624  0.49987640  0.83431365
  -0.00073653  0.66712260  0.66747407
  -0.00229602  0.83350483  0.83149578
   0.16637387 -0.00044852  0.16554241
   0.16624799  0.16549487 -0.00000009
   0.16648485  0.83448211 -0.00000008
   0.15786231  0.32452890  0.50000000
   0.15783413  0.50011139  0.32484449
   0.15812925  0.67569094  0.50000005
   0.16637387 -0.00044853  0.83445748
   0.15783404  0.50011141  0.67515548
   0.16605702  0.33272341  0.16555921
   0.16596331  0.66782420  0.16594273
   0.16599099  0.16554811  0.33296942
   0.16621522  0.83414936  0.33297559
   0.16599103  0.16554812  0.66703052
   0.16605704  0.33272348  0.83444056
   0.16596333  0.66782417  0.83405710
   0.16621529  0.83414928  0.66702445
   0.16642057  0.49975500 -0.00000022
   0.16628876 -0.00020005  0.50000004
   0.33343738 -0.00036630 -0.00000012
   0.33320965  0.16625034  0.16568631
   0.33514420  0.83439466  0.16759616
   0.33344477  0.32450092  0.32484476
   0.33292659  0.67493646  0.32457449
   0.33320970  0.16625040  0.83431356
   0.33344483  0.32450087  0.67515516
   0.33292668  0.67493648  0.67542555
   0.33514428  0.83439456  0.83240375
   0.33308831  0.33308716 -0.00000014
   0.33303078  0.49969751  0.16665819
   0.33346957  0.66727723 -0.00000012
   0.33329441  0.00013943  0.33293885
   0.33529703  0.16455790  0.50000005
   0.33487840  0.83310421  0.50000011
   0.33329450  0.00013946  0.66706117
   0.33303089  0.49969753  0.83334160
   0.50024152  0.00005061  0.16530580
   0.50070901  0.16502474 -0.00000015
   0.50115741  0.33263007  0.16594275
   0.50061052  0.50013616 -0.00000012
   0.50059038  0.66725712  0.16608435
   0.50080329  0.83446628 -0.00000010
   0.50128509 -0.00141716  0.50000009
   0.50045588  0.16592997  0.33252610
   0.50902365  0.32479633  0.50000006
   0.50826868  0.49959357  0.32457474
   0.51489383  0.68156060  0.50000009
   0.50188394  0.83373778  0.33374830
   0.50024158  0.00005062  0.83469400
   0.50045589  0.16593004  0.66747393
   0.50115746  0.33263002  0.83405713
   0.50059042  0.66725707  0.83391547
   0.50188395  0.83373774  0.66625177
   0.66781546  0.33315164 -0.00000012
   0.66772784  0.50181098  0.16759639
   0.66779948  0.66746995 -0.00000011
   0.66783428 -0.00120321  0.33422726
   0.66725807  0.16415126  0.50000006
   0.50827025  0.49959260  0.67542625
   0.66783421 -0.00120323  0.66577273
   0.66772802  0.50181100  0.83240374
   0.66683740  0.16437119  0.16850340
   0.66691341  0.83358021  0.16836733
   0.66748247  0.33288199  0.33297551
   0.66707088  0.66855053  0.33374821
   0.66683739  0.16437118  0.83149636
   0.66748262  0.33288180  0.66702451
   0.66707092  0.66855063  0.66625187
   0.66691341  0.83358020  0.83163250
   0.66696744 -0.00044595 -0.00000011
   0.66643724  0.50154491  0.50000003
   0.83296720  0.50010408 -0.00000014
   0.83173687 -0.00159655  0.50000000
   0.83288485  0.33304042  0.16554237
   0.83338404  0.66690825  0.16530578
   0.83344155  0.16543215  0.33297382
   0.83212983  0.83450106  0.33422755
   0.83344160  0.16543215  0.66702620
   0.83288488  0.33304046  0.83445743
   0.83338409  0.66690823  0.83469401
   0.83212882  0.83450145  0.66577331
   0.83348967  0.00015654  0.16608644
   0.83303762  0.16605478 -0.00000014
   0.83288751  0.83363416 -0.00000013
   0.83313329  0.33295544  0.50000008
   0.83347279  0.49996107  0.33293876
   0.83191612  0.66795191  0.50000007
   0.83348966  0.00015650  0.83391342
   0.83347279  0.49996104  0.66706127
   0.33507600  0.50174166  0.49999979
Direct configuration=     7
  -0.00077947 -0.00038774  0.00000015
  -0.00004058  0.16662569  0.16616203
  -0.00126267  0.33263237  0.00000011
  -0.00029874  0.49990592  0.16578155
  -0.00178791  0.66770720  0.00000001
  -0.00248757  0.83357181  0.16855182
  -0.00128054  0.00011045  0.33272436
  -0.00258701  0.16407942  0.49999966
  -0.00121737  0.33260435  0.33290895
  -0.00223350  0.50205156  0.49999985
  -0.00080418  0.66716248  0.33245104
  -0.00244487  0.83380314  0.49999968
  -0.00128052  0.00011047  0.66727531
  -0.00004064  0.16662574  0.83383811
  -0.00121747  0.33260455  0.66709068
  -0.00029874  0.49990590  0.83421836
  -0.00080413  0.66716230  0.66754882
  -0.00248760  0.83357174  0.83144826
   0.16610010 -0.00050830  0.16558694
   0.16596610  0.16540386  0.00000017
   0.16624875  0.83445889  0.00000016
   0.15779005  0.32445624  0.49999969
   0.15762528  0.50014289  0.32471419
   0.15814655  0.67580951  0.49999974
   0.16610008 -0.00050834  0.83441317
   0.15762477  0.50014297  0.67528580
   0.16598354  0.33264977  0.16562049
   0.16590840  0.66794137  0.16598760
   0.16593808  0.16544891  0.33290893
   0.16624240  0.83419870  0.33293893
   0.16593814  0.16544892  0.66709063
   0.16598354  0.33264990  0.83437945
   0.16590843  0.66794131  0.83401244
   0.16624251  0.83419852  0.66706082
   0.16643222  0.49984164 -0.00000003
   0.16633515 -0.00028057  0.49999971
   0.33346341 -0.00043391  0.00000013
   0.33323843  0.16636755  0.16578173
   0.33515622  0.83430251  0.16769373
   0.33347591  0.32429276  0.32471553
   0.33286855  0.67491310  0.32457430
   0.33323852  0.16636765  0.83421831
   0.33347609  0.32429233  0.67528438
   0.33286865  0.67491344  0.67542579
   0.33515633  0.83430230  0.83230648
   0.33317430  0.33309881  0.00000011
   0.33304585  0.49971309  0.16673980
   0.33352596  0.66729259  0.00000008
   0.33325311  0.00018044  0.33293632
   0.33538450  0.16443341  0.49999975
   0.33472239  0.83293828  0.49999978
   0.33325317  0.00018050  0.66706339
   0.33304601  0.49971317  0.83326018
   0.50051000  0.00009739  0.16524177
   0.50103965  0.16487846  0.00000009
   0.50127401  0.33257517  0.16598763
   0.50062536  0.50019317  0.00000009
   0.50061663  0.66728386  0.16610478
   0.50114974  0.83443886  0.00000017
   0.50141528 -0.00162968  0.49999974
   0.50049510  0.16586207  0.33245101
   0.50914000  0.32481535  0.49999981
   0.50824485  0.49953557  0.32457550
   0.51602841  0.68269534  0.49999982
   0.50207185  0.83386299  0.33351567
   0.50051003  0.00009745  0.83475834
   0.50049509  0.16586226  0.66754876
   0.50127414  0.33257505  0.83401253
   0.50061664  0.66728376  0.83389537
   0.50207171  0.83386286  0.66648407
   0.66779254  0.33291564  0.00000010
   0.66763586  0.50182369  0.16769408
   0.66777233  0.66781685  0.00000014
   0.66783025 -0.00143716  0.33421386
   0.66713672  0.16422133  0.49999973
   0.50824645  0.49953437  0.67542608
   0.66783011 -0.00143701  0.66578574
   0.66763622  0.50182369  0.83230651
   0.66690516  0.16417900  0.16855171
   0.66696718  0.83363354  0.16827920
   0.66753194  0.33290927  0.33293876
   0.66719639  0.66873864  0.33351543
   0.66690511  0.16417907  0.83144827
   0.66753221  0.33290902  0.66706104
   0.66719639  0.66873860  0.66648433
   0.66696711  0.83363348  0.83172109
   0.66708383 -0.00050462  0.00000016
   0.66627118  0.50138947  0.49999974
   0.83290026  0.50013086  0.00000008
   0.83139776 -0.00193657  0.49999957
   0.83282548  0.33276654  0.16558679
   0.83343120  0.66717732  0.16524186
   0.83344401  0.16538572  0.33272409
   0.83189629  0.83449668  0.33421433
   0.83344412  0.16538583  0.66727561
   0.83282548  0.33276664  0.83441314
   0.83343132  0.66717718  0.83475824
   0.83189462  0.83449737  0.66578678
   0.83351570  0.00018233  0.16593150
   0.83294614  0.16588680  0.00000011
   0.83282928  0.83375007  0.00000014
   0.83305320  0.33300185  0.49999982
   0.83351413  0.49992056  0.33293628
   0.83170415  0.66808248  0.49999971
   0.83351576  0.00018233  0.83406871
   0.83351416  0.49992041  0.66706350
   0.33572458  0.50238622  0.49999894
Direct configuration=     8
  -0.00086646 -0.00046209  0.00000005
  -0.00007004  0.16659628  0.16615702
  -0.00128822  0.33266678  0.00000008
  -0.00026836  0.49991857  0.16578045
  -0.00178251  0.66769879  0.00000003
  -0.00253809  0.83359818  0.16851968
  -0.00129365  0.00011494  0.33278353
  -0.00256922  0.16409726  0.49999965
  -0.00122902  0.33256248  0.33296157
  -0.00227327  0.50203468  0.49999985
  -0.00083898  0.66718731  0.33251838
  -0.00234535  0.83366877  0.49999988
  -0.00129368  0.00011489  0.66721614
  -0.00007001  0.16659628  0.83384302
  -0.00122910  0.33256250  0.66703796
  -0.00026843  0.49991858  0.83421951
  -0.00083910  0.66718739  0.66748143
  -0.00253808  0.83359820  0.83148027
   0.16608305 -0.00054596  0.16566297
   0.16600021  0.16537816  0.00000005
   0.16615577  0.83441183  0.00000009
   0.15814711  0.32481378  0.49999973
   0.15779725  0.50012199  0.32500691
   0.15820935  0.67562197  0.49999982
   0.16608300 -0.00054602  0.83433701
   0.15779730  0.50012211  0.67499271
   0.16597758  0.33264420  0.16564671
   0.16593797  0.66793208  0.16607061
   0.16589586  0.16543729  0.33296162