 108 108   0   0
  0.1022088E+02  0.1033485E-08  0.1033485E-08  0.1033485E-08  0.5000000E-15
  1.000000000000000E-004
  CAR 
 Opt                                     
      9.67427365     -3.94027487  301      6.77127721      1.00000000
     -3.940  0.0000E+00  0.0000E+00
     -3.895  0.0000E+00  0.0000E+00
     -3.850  0.0000E+00  0.0000E+00
     -3.804  0.0000E+00  0.0000E+00
     -3.759  0.0000E+00  0.0000E+00
     -3.713  0.0000E+00  0.0000E+00
     -3.668  0.0000E+00  0.0000E+00
     -3.623  0.0000E+00  0.0000E+00
     -3.577 -0.1026E-29 -0.4656E-31
     -3.532 -0.3786E-28 -0.1765E-29
     -3.486 -0.1289E-26 -0.6027E-28
     -3.441 -0.3956E-25 -0.1856E-26
     -3.396 -0.1094E-23 -0.5150E-25
     -3.350 -0.2725E-22 -0.1288E-23
     -3.305 -0.6113E-21 -0.2903E-22
     -3.260 -0.1235E-19 -0.5897E-21
     -3.214 -0.2248E-18 -0.1079E-19
     -3.169 -0.3684E-17 -0.1780E-18
     -3.123 -0.5129E-16 -0.2506E-17
     -3.078 -0.7002E-15 -0.3428E-16
     -3.033 -0.8337E-14 -0.4126E-15
     -2.987 -0.8931E-13 -0.4466E-14
     -2.942 -0.8603E-12 -0.4351E-13
     -2.896 -0.7447E-11 -0.3814E-12
     -2.851 -0.5789E-10 -0.3009E-11
     -2.806 -0.4039E-09 -0.2134E-10
     -2.760 -0.2528E-08 -0.1361E-09
     -2.715 -0.1418E-07 -0.7794E-09
     -2.670 -0.7117E-07 -0.4009E-08
     -2.624 -0.3194E-06 -0.1850E-07
     -2.579 -0.1279E-05 -0.7656E-07
     -2.533 -0.4563E-05 -0.2837E-06
     -2.488 -0.1446E-04 -0.9397E-06
     -2.443 -0.4051E-04 -0.2778E-05
     -2.397 -0.9985E-04 -0.7309E-05
     -2.352 -0.2147E-03 -0.1705E-04
     -2.307 -0.3974E-03 -0.3509E-04
     -2.261 -0.6173E-03 -0.6310E-04
     -2.216 -0.7596E-03 -0.9757E-04
     -2.170 -0.6092E-03 -0.1252E-03
     -2.125  0.1022E-03 -0.1206E-03
     -2.080  0.1592E-02 -0.4832E-04
     -2.034  0.3946E-02  0.1307E-03
     -1.989  0.7140E-02  0.4547E-03
     -1.943  0.1116E-01  0.9614E-03
     -1.898  0.1605E-01  0.1690E-02
     -1.853  0.2169E-01  0.2674E-02
     -1.807  0.2758E-01  0.3926E-02
     -1.762  0.3282E-01  0.5415E-02
     -1.717  0.3658E-01  0.7075E-02
     -1.671  0.3860E-01  0.8827E-02
     -1.626  0.3934E-01  0.1061E-01
     -1.580  0.3964E-01  0.1241E-01
     -1.535  0.4031E-01  0.1424E-01
     -1.490  0.4186E-01  0.1614E-01
     -1.444  0.4460E-01  0.1816E-01
     -1.399  0.4864E-01  0.2037E-01
     -1.354  0.5396E-01  0.2282E-01
     -1.308  0.6023E-01  0.2555E-01
     -1.263  0.6661E-01  0.2858E-01
     -1.217  0.7159E-01  0.3183E-01
     -1.172  0.7331E-01  0.3515E-01
     -1.127  0.7067E-01  0.3836E-01
     -1.081  0.6429E-01  0.4128E-01
     -1.036  0.5672E-01  0.4385E-01
     -0.990  0.5130E-01  0.4618E-01
     -0.945  0.5073E-01  0.4848E-01
     -0.900  0.5599E-01  0.5102E-01
     -0.854  0.6630E-01  0.5403E-01
     -0.809  0.7976E-01  0.5765E-01
     -0.764  0.9395E-01  0.6191E-01
     -0.718  0.1061E+00  0.6673E-01
     -0.673  0.1134E+00  0.7188E-01
     -0.627  0.1130E+00  0.7700E-01
     -0.582  0.1044E+00  0.8174E-01
     -0.537  0.8999E-01  0.8583E-01
     -0.491  0.7490E-01  0.8923E-01
     -0.446  0.6496E-01  0.9217E-01
     -0.400  0.6393E-01  0.9508E-01
     -0.355  0.7207E-01  0.9835E-01
     -0.310  0.8647E-01  0.1023E+00
     -0.264  0.1027E+00  0.1069E+00
     -0.219  0.1165E+00  0.1122E+00
     -0.174  0.1248E+00  0.1179E+00
     -0.128  0.1267E+00  0.1236E+00
     -0.083  0.1231E+00  0.1292E+00
     -0.037  0.1172E+00  0.1345E+00
      0.008  0.1126E+00  0.1396E+00
      0.053  0.1121E+00  0.1447E+00
      0.099  0.1160E+00  0.1500E+00
      0.144  0.1230E+00  0.1556E+00
      0.189  0.1304E+00  0.1615E+00
      0.235  0.1364E+00  0.1677E+00
      0.280  0.1402E+00  0.1740E+00
      0.326  0.1416E+00  0.1805E+00
      0.371  0.1408E+00  0.1869E+00
      0.416  0.1377E+00  0.1931E+00
      0.462  0.1325E+00  0.1991E+00
      0.507  0.1262E+00  0.2049E+00
      0.553  0.1211E+00  0.2104E+00
      0.598  0.1208E+00  0.2158E+00
      0.643  0.1286E+00  0.2217E+00
      0.689  0.1458E+00  0.2283E+00
      0.734  0.1699E+00  0.2360E+00
      0.779  0.1942E+00  0.2448E+00
      0.825  0.2112E+00  0.2544E+00
      0.870  0.2166E+00  0.2642E+00
      0.916  0.2119E+00  0.2738E+00
      0.961  0.2025E+00  0.2830E+00
      1.006  0.1936E+00  0.2918E+00
      1.052  0.1866E+00  0.3003E+00
      1.097  0.1797E+00  0.3084E+00
      1.142  0.1711E+00  0.3162E+00
      1.188  0.1630E+00  0.3236E+00
      1.233  0.1623E+00  0.3310E+00
      1.279  0.1763E+00  0.3390E+00
      1.324  0.2076E+00  0.3484E+00
      1.369  0.2510E+00  0.3598E+00
      1.415  0.2951E+00  0.3732E+00
      1.460  0.3267E+00  0.3880E+00
      1.506  0.3364E+00  0.4033E+00
      1.551  0.3229E+00  0.4179E+00
      1.596  0.2941E+00  0.4313E+00
      1.642  0.2654E+00  0.4433E+00
      1.687  0.2544E+00  0.4549E+00
      1.732  0.2757E+00  0.4674E+00
      1.778  0.3364E+00  0.4826E+00
      1.823  0.4331E+00  0.5023E+00
      1.869  0.5538E+00  0.5274E+00
      1.914  0.6823E+00  0.5584E+00
      1.959  0.8035E+00  0.5948E+00
      2.005  0.9068E+00  0.6360E+00
      2.050  0.9856E+00  0.6807E+00
      2.096  0.1036E+01  0.7277E+00
      2.141  0.1056E+01  0.7757E+00
      2.186  0.1051E+01  0.8233E+00
      2.232  0.1031E+01  0.8701E+00
      2.277  0.1013E+01  0.9161E+00
      2.322  0.1013E+01  0.9621E+00
      2.368  0.1034E+01  0.1009E+01
      2.413  0.1071E+01  0.1058E+01
      2.459  0.1111E+01  0.1108E+01
      2.504  0.1143E+01  0.1160E+01
      2.549  0.1166E+01  0.1213E+01
      2.595  0.1189E+01  0.1267E+01
      2.640  0.1226E+01  0.1322E+01
      2.685  0.1280E+01  0.1381E+01
      2.731  0.1346E+01  0.1442E+01
      2.776  0.1410E+01  0.1506E+01
      2.822  0.1464E+01  0.1572E+01
      2.867  0.1510E+01  0.1640E+01
      2.912  0.1558E+01  0.1711E+01
      2.958  0.1611E+01  0.1784E+01
      3.003  0.1665E+01  0.1860E+01
      3.049  0.1703E+01  0.1937E+01
      3.094  0.1715E+01  0.2015E+01
      3.139  0.1697E+01  0.2092E+01
      3.185  0.1659E+01  0.2167E+01
      3.230  0.1616E+01  0.2241E+01
      3.275  0.1576E+01  0.2312E+01
      3.321  0.1541E+01  0.2382E+01
      3.366  0.1514E+01  0.2451E+01
      3.412  0.1497E+01  0.2519E+01
      3.457  0.1494E+01  0.2587E+01
      3.502  0.1503E+01  0.2655E+01
      3.548  0.1514E+01  0.2723E+01
      3.593  0.1512E+01  0.2792E+01
      3.638  0.1489E+01  0.2860E+01
      3.684  0.1444E+01  0.2925E+01
      3.729  0.1392E+01  0.2988E+01
      3.775  0.1350E+01  0.3050E+01
      3.820  0.1329E+01  0.3110E+01
      3.865  0.1329E+01  0.3170E+01
      3.911  0.1335E+01  0.3231E+01
      3.956  0.1331E+01  0.3291E+01
      4.002  0.1307E+01  0.3351E+01
      4.047  0.1274E+01  0.3408E+01
      4.092  0.1252E+01  0.3465E+01
      4.138  0.1262E+01  0.3522E+01
      4.183  0.1309E+01  0.3582E+01
      4.228  0.1380E+01  0.3644E+01
      4.274  0.1460E+01  0.3711E+01
      4.319  0.1542E+01  0.3781E+01
      4.365  0.1630E+01  0.3855E+01
      4.410  0.1725E+01  0.3933E+01
      4.455  0.1815E+01  0.4015E+01
      4.501  0.1877E+01  0.4100E+01
      4.546  0.1891E+01  0.4186E+01
      4.592  0.1854E+01  0.4270E+01
      4.637  0.1785E+01  0.4351E+01
      4.682  0.1721E+01  0.4430E+01
      4.728  0.1700E+01  0.4507E+01
      4.773  0.1745E+01  0.4586E+01
      4.818  0.1858E+01  0.4670E+01
      4.864  0.2012E+01  0.4762E+01
      4.909  0.2167E+01  0.4860E+01
      4.955  0.2282E+01  0.4963E+01
      5.000  0.2338E+01  0.5070E+01
      5.045  0.2336E+01  0.5176E+01
      5.091  0.2300E+01  0.5280E+01
      5.136  0.2258E+01  0.5382E+01
      5.181  0.2232E+01  0.5484E+01
      5.227  0.2242E+01  0.5585E+01
      5.272  0.2296E+01  0.5690E+01
      5.318  0.2395E+01  0.5798E+01
      5.363  0.2521E+01  0.5913E+01
      5.408  0.2637E+01  0.6032E+01
      5.454  0.2695E+01  0.6155E+01
      5.499  0.2657E+01  0.6275E+01
      5.545  0.2517E+01  0.6390E+01
      5.590  0.2309E+01  0.6494E+01
      5.635  0.2085E+01  0.6589E+01
      5.681  0.1894E+01  0.6675E+01
      5.726  0.1756E+01  0.6755E+01
      5.771  0.1662E+01  0.6830E+01
      5.817  0.1586E+01  0.6902E+01
      5.862  0.1514E+01  0.6971E+01
      5.908  0.1447E+01  0.7036E+01
      5.953  0.1405E+01  0.7100E+01
      5.998  0.1403E+01  0.7164E+01
      6.044  0.1449E+01  0.7230E+01
      6.089  0.1532E+01  0.7299E+01
      6.134  0.1631E+01  0.7373E+01
      6.180  0.1722E+01  0.7451E+01
      6.225  0.1797E+01  0.7533E+01
      6.271  0.1857E+01  0.7617E+01
      6.316  0.1915E+01  0.7704E+01
      6.361  0.1981E+01  0.7794E+01
      6.407  0.2052E+01  0.7887E+01
      6.452  0.2109E+01  0.7983E+01
      6.498  0.2133E+01  0.8080E+01
      6.543  0.2120E+01  0.8176E+01
      6.588  0.2085E+01  0.8270E+01
      6.634  0.2053E+01  0.8364E+01
      6.679  0.2034E+01  0.8456E+01
      6.724  0.2017E+01  0.8547E+01
      6.770  0.1977E+01  0.8637E+01
      6.815  0.1899E+01  0.8723E+01
      6.861  0.1795E+01  0.8805E+01
      6.906  0.1702E+01  0.8882E+01
      6.951  0.1653E+01  0.8957E+01
      6.997  0.1662E+01  0.9033E+01
      7.042  0.1712E+01  0.9110E+01
      7.088  0.1773E+01  0.9191E+01
      7.133  0.1820E+01  0.9273E+01
      7.178  0.1844E+01  0.9357E+01
      7.224  0.1857E+01  0.9441E+01
      7.269  0.1874E+01  0.9526E+01
      7.314  0.1908E+01  0.9613E+01
      7.360  0.1967E+01  0.9702E+01
      7.405  0.2043E+01  0.9795E+01
      7.451  0.2115E+01  0.9891E+01
      7.496  0.2148E+01  0.9988E+01
      7.541  0.2099E+01  0.1008E+02
      7.587  0.1932E+01  0.1017E+02
      7.632  0.1641E+01  0.1025E+02
      7.677  0.1258E+01  0.1030E+02
      7.723  0.8457E+00  0.1034E+02
      7.768  0.4728E+00  0.1036E+02
      7.814  0.1912E+00  0.1037E+02
      7.859  0.1874E-01  0.1037E+02
      7.904 -0.5908E-01  0.1037E+02
      7.950 -0.7432E-01  0.1037E+02
      7.995 -0.5971E-01  0.1036E+02
      8.041 -0.3812E-01  0.1036E+02
      8.086 -0.2056E-01  0.1036E+02
      8.131 -0.9615E-02  0.1036E+02
      8.177 -0.3950E-02  0.1036E+02
      8.222 -0.1436E-02  0.1036E+02
      8.267 -0.4647E-03  0.1036E+02
      8.313 -0.1341E-03  0.1036E+02
      8.358 -0.3463E-04  0.1036E+02
      8.404 -0.8011E-05  0.1036E+02
      8.449 -0.1662E-05  0.1036E+02
      8.494 -0.3097E-06  0.1036E+02
      8.540 -0.5184E-07  0.1036E+02
      8.585 -0.7804E-08  0.1036E+02
      8.630 -0.1057E-08  0.1036E+02
      8.676 -0.1288E-09  0.1036E+02
      8.721 -0.1413E-10  0.1036E+02
      8.767 -0.1396E-11  0.1036E+02
      8.812 -0.1242E-12  0.1036E+02
      8.857 -0.1009E-13  0.1036E+02
      8.903 -0.6850E-15  0.1036E+02
      8.948  0.0000E+00  0.1036E+02
      8.994  0.0000E+00  0.1036E+02
      9.039  0.0000E+00  0.1036E+02
      9.084  0.0000E+00  0.1036E+02
      9.130  0.0000E+00  0.1036E+02
      9.175  0.0000E+00  0.1036E+02
      9.220  0.0000E+00  0.1036E+02
      9.266  0.0000E+00  0.1036E+02
      9.311  0.0000E+00  0.1036E+02
      9.357  0.0000E+00  0.1036E+02
      9.402  0.0000E+00  0.1036E+02
      9.447  0.0000E+00  0.1036E+02
      9.493  0.0000E+00  0.1036E+02
      9.538  0.0000E+00  0.1036E+02
      9.584  0.0000E+00  0.1036E+02
      9.629  0.0000E+00  0.1036E+02
      9.674  0.0000E+00  0.1036E+02
