  108  108  100    1
  0.1022088E+02  0.1033485E-08  0.1033485E-08  0.1033485E-08  0.5000000E-15
  1.000000000000000E-004
  CAR 
 Opt                                     
    864      4    518
 
  0.1250000E+00  0.1250000E+00  0.1250000E+00  0.1250000E+00
    1       -1.940275   1.000000
    2       -0.810000   1.000000
    3       -0.810000   1.000000
    4       -0.810000   1.000000
    5       -0.127596   1.000000
    6       -0.127596   1.000000
    7       -0.127596   1.000000
    8        0.204445   1.000000
    9        0.204445   1.000000
   10        0.204445   1.000000
   11        0.810489   1.000000
   12        0.810489   1.000000
   13        0.810489   1.000000
   14        0.810490   1.000000
   15        0.810490   1.000000
   16        0.810490   1.000000
   17        0.917511   1.000000
   18        1.313192   1.000000
   19        1.313192   1.000000
   20        1.313192   1.000000
   21        1.359319   1.000000
   22        1.359319   1.000000
   23        1.359319   1.000000
   24        1.581601   1.000000
   25        1.581601   1.000000
   26        1.581601   1.000000
   27        1.715421   1.000000
   28        1.786892   1.000000
   29        1.786892   1.000000
   30        1.786892   1.000000
   31        1.889068   1.000000
   32        1.889073   1.000000
   33        1.889073   1.000000
   34        1.983425   1.000000
   35        1.983425   1.000000
   36        1.983425   1.000000
   37        2.340159   1.000000
   38        2.340159   1.000000
   39        2.340160   1.000000
   40        2.462293   1.000000
   41        2.462293   1.000000
   42        2.462294   1.000000
   43        2.462294   1.000000
   44        2.462294   1.000000
   45        2.462294   1.000000
   46        2.476874   1.000000
   47        2.476874   1.000000
   48        2.476874   1.000000
   49        2.522703   1.000000
   50        2.522703   1.000000
   51        2.522704   1.000000
   52        2.522707   1.000000
   53        2.522707   1.000000
   54        2.522707   1.000000
   55        2.545293   1.000000
   56        2.545293   1.000000
   57        2.545293   1.000000
   58        2.545293   1.000000
   59        2.545293   1.000000
   60        2.545293   1.000000
   61        2.622903   1.000000
   62        2.622903   1.000000
   63        2.622903   1.000000
   64        2.624988   1.000000
   65        2.624988   1.000000
   66        2.624988   1.000000
   67        2.716751   1.000000
   68        2.716751   1.000000
   69        2.716751   1.000000
   70        2.716754   1.000000
   71        2.716754   1.000000
   72        2.716754   1.000000
   73        2.756132   1.000000
   74        2.756132   1.000000
   75        2.756132   1.000000
   76        2.756132   1.000000
   77        2.756132   1.000000
   78        2.756132   1.000000
   79        2.759068   1.000000
   80        2.759069   1.000000
   81        2.759069   1.000000
   82        2.814522   1.000000
   83        2.814522   1.000000
   84        2.814522   1.000000
   85        2.814525   1.000000
   86        2.814525   1.000000
   87        2.814525   1.000000
   88        2.924039   1.000000
   89        2.924039   1.000000
   90        2.924039   1.000000
   91        2.924040   1.000000
   92        2.924040   1.000000
   93        2.924040   1.000000
   94        3.039624   1.000000
   95        3.039624   1.000000
   96        3.039624   1.000000
   97        3.057230   1.000000
   98        3.057230   1.000000
   99        3.057230   1.000000
  100        3.088567   1.000000
  101        3.088567   1.000000
  102        3.088567   1.000000
  103        3.088567   1.000000
  104        3.088567   1.000000
  105        3.088567   1.000000
  106        3.150644   1.000000
  107        3.150644   1.000000
  108        3.150644   1.000000
  109        3.150644   1.000000
  110        3.150644   1.000000
  111        3.150644   1.000000
  112        3.314722   1.000000
  113        3.314722   1.000000
  114        3.314722   1.000000
  115        3.314726   1.000000
  116        3.314726   1.000000
  117        3.314727   1.000000
  118        3.323439   1.000000
  119        3.323439   1.000000
  120        3.323439   1.000000
  121        3.426354   1.000000
  122        3.426354   1.000000
  123        3.426354   1.000000
  124        3.429291   1.000000
  125        3.429291   1.000000
  126        3.429291   1.000000
  127        3.474635   1.000000
  128        3.474635   1.000000
  129        3.474635   1.000000
  130        3.474635   1.000000
  131        3.474635   1.000000
  132        3.474635   1.000000
  133        3.499067   1.000000
  134        3.499067   1.000000
  135        3.499067   1.000000
  136        3.499067   1.000000
  137        3.499067   1.000000
  138        3.499067   1.000000
  139        3.552545   1.000000
  140        3.552545   1.000000
  141        3.552545   1.000000
  142        3.552547   1.000000
  143        3.552547   1.000000
  144        3.552547   1.000000
  145        3.671393   1.000000
  146        3.671393   1.000000
  147        3.671393   1.000000
  148        3.671393   1.000000
  149        3.671393   1.000000
  150        3.671393   1.000000
  151        3.709833   1.000000
  152        3.709833   1.000000
  153        3.709834   1.000000
  154        3.733529   1.000000
  155        3.733529   1.000000
  156        3.733529   1.000000
  157        3.733529   1.000000
  158        3.733529   1.000000
  159        3.733529   1.000000
  160        3.886390   1.000000
  161        3.886390   1.000000
  162        3.886390   1.000000
  163        3.886390   1.000000
  164        3.886390   1.000000
  165        3.886390   1.000000
  166        3.903247   1.000000
  167        3.903251   1.000000
  168        3.903251   1.000000
  169        4.094020   1.000000
  170        4.094020   1.000000
  171        4.094020   1.000000
  172        4.094024   1.000000
  173        4.094024   1.000000
  174        4.094024   1.000000
  175        4.233584   1.000000
  176        4.233584   1.000000
  177        4.233584   1.000000
  178        4.252025   1.000000
  179        4.252025   1.000000
  180        4.252025   1.000000
  181        4.285155   1.000000
  182        4.285155   1.000000
  183        4.285155   1.000000
  184        4.299718   1.000000
  185        4.299718   1.000000
  186        4.299718   1.000000
  187        4.299720   1.000000
  188        4.299720   1.000000
  189        4.299720   1.000000
  190        4.308059   1.000000
  191        4.308059   1.000000
  192        4.308059   1.000000
  193        4.432319   1.000000
  194        4.432319   1.000000
  195        4.432319   1.000000
  196        4.432322   1.000000
  197        4.432322   1.000000
  198        4.432322   1.000000
  199        4.452797   1.000000
  200        4.452797   1.000000
  201        4.452797   1.000000
  202        4.459232   1.000000
  203        4.459232   1.000000
  204        4.459232   1.000000
  205        4.459233   1.000000
  206        4.459233   1.000000
  207        4.459233   1.000000
  208        4.471387   1.000000
  209        4.471387   1.000000
  210        4.471387   1.000000
  211        4.471388   1.000000
  212        4.471388   1.000000
  213        4.471388   1.000000
  214        4.589493   1.000000
  215        4.589493   1.000000
  216        4.589493   1.000000
  217        4.614264   1.000000
  218        4.614268   1.000000
  219        4.614268   1.000000
  220        4.628214   1.000000
  221        4.628214   1.000000
  222        4.628214   1.000000
  223        4.718801   1.000000
  224        4.800165   1.000000
  225        4.800165   1.000000
  226        4.800165   1.000000
  227        4.800165   1.000000
  228        4.800165   1.000000
  229        4.800165   1.000000
  230        4.808022   1.000000
  231        4.808022   1.000000
  232        4.808023   1.000000
  233        4.808025   1.000000
  234        4.808025   1.000000
  235        4.808025   1.000000
  236        4.814016   1.000000
  237        4.814016   1.000000
  238        4.814017   1.000000
  239        4.950109   1.000000
  240        4.950110   1.000000
  241        4.950110   1.000000
  242        4.950111   1.000000
  243        4.950111   1.000000
  244        4.950111   1.000000
  245        5.044800   1.000000
  246        5.044800   1.000000
  247        5.044800   1.000000
  248        5.049909   1.000000
  249        5.049909   1.000000
  250        5.049909   1.000000
  251        5.054165   1.000000
  252        5.054165   1.000000
  253        5.054165   1.000000
  254        5.054166   1.000000
  255        5.054166   1.000000
  256        5.054166   1.000000
  257        5.080106   1.000000
  258        5.080106   1.000000
  259        5.080107   1.000000
  260        5.107463   1.000000
  261        5.107463   1.000000
  262        5.107463   1.000000
  263        5.107464   1.000000
  264        5.107464   1.000000
  265        5.107464   1.000000
  266        5.122376   1.000000
  267        5.150853   1.000000
  268        5.150853   1.000000
  269        5.150853   1.000000
  270        5.151110   1.000000
  271        5.151110   1.000000
  272        5.151110   1.000000
  273        5.172471   1.000000
  274        5.172471   1.000000
  275        5.190578   1.000000
  276        5.190578   1.000000
  277        5.207482   1.000000
  278        5.207482   1.000000
  279        5.207482   1.000000
  280        5.207483   1.000000
  281        5.207483   1.000000
  282        5.207483   1.000000
  283        5.223521   1.000000
  284        5.223524   1.000000
  285        5.223524   1.000000
  286        5.269414   1.000000
  287        5.269414   1.000000
  288        5.269441   1.000000
  289        5.271381   1.000000
  290        5.271407   1.000000
  291        5.271407   1.000000
  292        5.288802   1.000000
  293        5.288802   1.000000
  294        5.288802   1.000000
  295        5.288802   1.000000
  296        5.288802   1.000000
  297        5.288802   1.000000
  298        5.316672   1.000000
  299        5.316672   1.000000
  300        5.316672   1.000000
  301        5.347579   1.000000
  302        5.347579   1.000000
  303        5.347580   1.000000
  304        5.360293   1.000000
  305        5.360293   1.000000
  306        5.400886   1.000000
  307        5.400886   1.000000
  308        5.400887   1.000000
  309        5.402961   1.000000
  310        5.402961   1.000000
  311        5.402961   1.000000
  312        5.538536   1.000000
  313        5.554782   1.000000
  314        5.554783   1.000000
  315        5.554783   1.000000
  316        5.570793   1.000000
  317        5.570793   1.000000
  318        5.570793   1.000000
  319        5.578294   1.000000
  320        5.578294   1.000000
  321        5.578295   1.000000
  322        5.578295   1.000000
  323        5.578296   1.000000
  324        5.578296   1.000000
  325        5.580248   1.000000
  326        5.580248   1.000000
  327        5.580248   1.000000
  328        5.604780   1.000000
  329        5.604780   1.000000
  330        5.604780   1.000000
  331        5.720035   1.000000
  332        5.720035   1.000000
  333        5.720035   1.000000
  334        5.722978   1.000000
  335        5.722978   1.000000
  336        5.722978   1.000000
  337        5.729287   1.000000
  338        5.729287   1.000000
  339        5.729287   1.000000
  340        5.729287   1.000000
  341        5.729287   1.000000
  342        5.729287   1.000000
  343        5.747015   1.000000
  344        5.747015   1.000000
  345        5.747015   1.000000
  346        5.796690   1.000000
  347        5.796690   1.000000
  348        5.796690   1.000000
  349        5.796691   1.000000
  350        5.796691   1.000000
  351        5.796691   1.000000
  352        5.840963   1.000000
  353        5.840963   1.000000
  354        5.840963   1.000000
  355        5.878380   1.000000
  356        5.878380   1.000000
  357        5.878380   1.000000
  358        5.878382   1.000000
  359        5.878382   1.000000
  360        5.878382   1.000000
  361        5.910641   1.000000
  362        5.910641   1.000000
  363        5.910641   1.000000
  364        5.956728   1.000000
  365        5.956728   1.000000
  366        5.956729   1.000000
  367        6.058446   1.000003
  368        6.058446   1.000003
  369        6.058447   1.000003
  370        6.085571   1.000007
  371        6.085571   1.000007
  372        6.085571   1.000007
  373        6.219555   1.000338
  374        6.219555   1.000338
  375        6.219555   1.000338
  376        6.219677   1.000339
  377        6.219677   1.000339
  378        6.219677   1.000339
  379        6.221109   1.000351
  380        6.221109   1.000351
  381        6.221109   1.000351
  382        6.224422   1.000382
  383        6.224422   1.000382
  384        6.224422   1.000382
  385        6.226073   1.000398
  386        6.226073   1.000398
  387        6.226073   1.000398
  388        6.303315   1.002298
  389        6.303316   1.002298
  390        6.303316   1.002298
  391        6.406120   1.013460
  392        6.406120   1.013460
  393        6.406121   1.013460
  394        6.406123   1.013461
  395        6.406124   1.013461
  396        6.406124   1.013461
  397        6.473883   1.028228
  398        6.473883   1.028228
  399        6.473883   1.028229
  400        6.473883   1.028229
  401        6.473884   1.028229
  402        6.473884   1.028229
  403        6.598142   1.004994
  404        6.598142   1.004994
  405        6.598142   1.004994
  406        6.598143   1.004994
  407        6.598143   1.004994
  408        6.598143   1.004994
  409        6.618129   0.980756
  410        6.618129   0.980756
  411        6.618129   0.980756
  412        6.618130   0.980755
  413        6.618130   0.980755
  414        6.618130   0.980755
  415        6.664139   0.889067
  416        6.664139   0.889067
  417        6.664155   0.889027
  418        6.674215   0.861923
  419        6.674229   0.861883
  420        6.674229   0.861883
  421        6.693029   0.804674
  422        6.693029   0.804674
  423        6.778512   0.469410
  424        6.778512   0.469410
  425        6.778512   0.469410
  426        6.778513   0.469403
  427        6.778513   0.469403
  428        6.778513   0.469403
  429        6.850791   0.191219
  430        6.850791   0.191219
  431        6.850792   0.191216
  432        6.850793   0.191212
  433        6.850794   0.191209
  434        6.850794   0.191209
  435        6.860275   0.161595
  436        6.860275   0.161593
  437        6.860275   0.161593
  438        6.896703   0.068183
  439        6.896703   0.068183
  440        6.896703   0.068183
  441        7.008158  -0.035193
  442        7.008158  -0.035193
  443        7.008158  -0.035193
  444        7.008159  -0.035193
  445        7.008159  -0.035193
  446        7.008159  -0.035193
  447        7.018760  -0.035434
  448        7.018760  -0.035434
  449        7.018760  -0.035434
  450        7.022856  -0.035296
  451        7.022856  -0.035296
  452        7.047009  -0.032524
  453        7.047009  -0.032524
  454        7.047009  -0.032524
  455        7.047009  -0.032524
  456        7.047009  -0.032524
  457        7.047009  -0.032524
  458        7.072695  -0.027334
  459        7.072695  -0.027334
  460        7.072695  -0.027334
  461        7.072697  -0.027334
  462        7.072697  -0.027334
  463        7.072697  -0.027334
  464        7.110612  -0.018693
  465        7.110612  -0.018693
  466        7.110613  -0.018692
  467        7.122853  -0.016102
  468        7.122853  -0.016102
  469        7.122854  -0.016101
  470        7.185316  -0.006331
  471        7.185318  -0.006330
  472        7.185318  -0.006330
  473        7.204871  -0.004477
  474        7.204871  -0.004477
  475        7.204871  -0.004477
  476        7.232937  -0.002611
  477        7.232937  -0.002611
  478        7.232937  -0.002611
  479        7.237974  -0.002358
  480        7.237975  -0.002358
  481        7.237975  -0.002358
  482        7.295684  -0.000660
  483        7.295686  -0.000660
  484        7.295691  -0.000660
  485        7.334358  -0.000253
  486        7.334360  -0.000253
  487        7.334363  -0.000252
  488        7.334366  -0.000252
  489        7.334375  -0.000252
  490        7.334392  -0.000252
  491        7.366569  -0.000106
  492        7.366573  -0.000106
  493        7.366577  -0.000106
  494        7.366601  -0.000106
  495        7.366634  -0.000106
  496        7.366690  -0.000106
  497        7.428923  -0.000017
  498        7.428926  -0.000017
  499        7.428938  -0.000017
  500        7.428951  -0.000017
  501        7.429003  -0.000017
  502        7.429186  -0.000017
  503        7.446420  -0.000010
  504        7.446525  -0.000010
  505        7.448891  -0.000009
  506        7.448920  -0.000009
  507        7.449248  -0.000009
  508        7.538528  -0.000000
  509        7.538892  -0.000000
  510        7.540337  -0.000000
  511        7.541411  -0.000000
  512        7.541583  -0.000000
  513        7.541674  -0.000000
  514        7.541703  -0.000000
  515        7.542152  -0.000000
  516        7.543569  -0.000000
  517        7.545211  -0.000000
  518        7.569596  -0.000000
 
  0.3750000E+00  0.1250000E+00  0.1250000E+00  0.3750000E+00
    1       -1.744358   1.000000
    2       -1.361110   1.000000
    3       -0.633085   1.000000
    4       -0.633085   1.000000
    5       -0.288322   1.000000
    6       -0.288322   1.000000
    7        0.037579   1.000000
    8        0.037579   1.000000
    9        0.333628   1.000000
   10        0.357640   1.000000
   11        0.357640   1.000000
   12        0.579507   1.000000
   13        0.618647   1.000000
   14        0.904639   1.000000
   15        0.904639   1.000000
   16        1.079672   1.000000
   17        1.079672   1.000000
   18        1.309285   1.000000
   19        1.400548   1.000000
   20        1.472230   1.000000
   21        1.472230   1.000000
   22        1.476652   1.000000
   23        1.727724   1.000000
   24        1.867852   1.000000
   25        1.867855   1.000000
   26        1.883391   1.000000
   27        1.927310   1.000000
   28        1.927310   1.000000
   29        1.933923   1.000000
   30        1.949240   1.000000
   31        1.949240   1.000000
   32        1.990958   1.000000
   33        2.009015   1.000000
   34        2.009018   1.000000
   35        2.091133   1.000000
   36        2.096021   1.000000
   37        2.096021   1.000000
   38        2.118880   1.000000
   39        2.118880   1.000000
   40        2.125249   1.000000
   41        2.163211   1.000000
   42        2.163212   1.000000
   43        2.192094   1.000000
   44        2.192094   1.000000
   45        2.232451   1.000000
   46        2.232454   1.000000
   47        2.275616   1.000000
   48        2.275616   1.000000
   49        2.374503   1.000000
   50        2.374503   1.000000
   51        2.476831   1.000000
   52        2.476831   1.000000
   53        2.504834   1.000000
   54        2.504834   1.000000
   55        2.505581   1.000000
   56        2.505581   1.000000
   57        2.530068   1.000000
   58        2.530068   1.000000
   59        2.531801   1.000000
   60        2.531801   1.000000
   61        2.587274   1.000000
   62        2.587274   1.000000
   63        2.620433   1.000000
   64        2.620433   1.000000
   65        2.625950   1.000000
   66        2.625950   1.000000
   67        2.681693   1.000000
   68        2.681693   1.000000
   69        2.698168   1.000000
   70        2.711173   1.000000
   71        2.711173   1.000000
   72        2.736070   1.000000
   73        2.736072   1.000000
   74        2.752925   1.000000
   75        2.752926   1.000000
   76        2.754090   1.000000
   77        2.754091   1.000000
   78        2.799614   1.000000
   79        2.799614   1.000000
   80        2.801099   1.000000
   81        2.801099   1.000000
   82        2.845264   1.000000
   83        2.887416   1.000000
   84        2.887416   1.000000
   85        2.895201   1.000000
   86        2.895201   1.000000
   87        2.904616   1.000000
   88        2.904616   1.000000
   89        2.915624   1.000000
   90        2.915625   1.000000
   91        2.930270   1.000000
   92        2.950680   1.000000
   93        3.008248   1.000000
   94        3.008252   1.000000
   95        3.021561   1.000000
   96        3.021561   1.000000
   97        3.025667   1.000000
   98        3.025667   1.000000
   99        3.029854   1.000000
  100        3.029854   1.000000
  101        3.035213   1.000000
  102        3.099865   1.000000
  103        3.099865   1.000000
  104        3.127899   1.000000
  105        3.127899   1.000000
  106        3.197830   1.000000
  107        3.197830   1.000000
  108        3.206541   1.000000
  109        3.206541   1.000000
  110        3.223088   1.000000
  111        3.231953   1.000000
  112        3.231960   1.000000
  113        3.238015   1.000000
  114        3.238015   1.000000
  115        3.268193   1.000000
  116        3.268193   1.000000
  117        3.292852   1.000000
  118        3.292852   1.000000
  119        3.316079   1.000000
  120        3.316079   1.000000
  121        3.382856   1.000000
  122        3.382856   1.000000
  123        3.406029   1.000000
  124        3.406029   1.000000
  125        3.406961   1.000000
  126        3.406961   1.000000
  127        3.476654   1.000000
  128        3.498627   1.000000
  129        3.498627   1.000000
  130        3.500142   1.000000
  131        3.500143   1.000000
  132        3.507266   1.000000
  133        3.507266   1.000000
  134        3.538677   1.000000
  135        3.538677   1.000000
  136        3.545616   1.000000
  137        3.545616   1.000000
  138        3.571447   1.000000
  139        3.571448   1.000000
  140        3.612817   1.000000
  141        3.612817   1.000000
  142        3.616113   1.000000
  143        3.616113   1.000000
  144        3.621911   1.000000
  145        3.621912   1.000000
  146        3.629471   1.000000
  147        3.635571   1.000000
  148        3.696342   1.000000
  149        3.696344   1.000000
  150        3.757189   1.000000
  151        3.757189   1.000000
  152        3.778581   1.000000
  153        3.778581   1.000000
  154        3.806065   1.000000
  155        3.806066   1.000000
  156        3.819697   1.000000
  157        3.885627   1.000000
  158        3.885627   1.000000
  159        3.887472   1.000000
  160        3.887472   1.000000
  161        3.901117   1.000000
  162        3.901118   1.000000
  163        3.924622   1.000000
  164        3.924622   1.000000
  165        3.931222   1.000000
  166        3.931222   1.000000
  167        3.957196   1.000000
  168        3.982506   1.000000
  169        3.982506   1.000000
  170        4.009546   1.000000
  171        4.009548   1.000000
  172        4.028413   1.000000
  173        4.035729   1.000000
  174        4.035729   1.000000
  175        4.076588   1.000000
  176        4.076589   1.000000
  177        4.103626   1.000000
  178        4.103626   1.000000
  179        4.161033   1.000000
  180        4.161033   1.000000
  181        4.196308   1.000000
  182        4.196308   1.000000
  183        4.196469   1.000000
  184        4.196473   1.000000
  185        4.210730   1.000000
  186        4.210732   1.000000
  187        4.242153   1.000000
  188        4.242154   1.000000
  189        4.296931   1.000000
  190        4.296931   1.000000
  191        4.308563   1.000000
  192        4.308563   1.000000
  193        4.385116   1.000000
  194        4.385122   1.000000
  195        4.389696   1.000000
  196        4.412736   1.000000
  197        4.412737   1.000000
  198        4.454293   1.000000
  199        4.454293   1.000000
  200        4.457357   1.000000
  201        4.457357   1.000000
  202        4.457857   1.000000
  203        4.457857   1.000000
  204        4.502544   1.000000
  205        4.505226   1.000000
  206        4.505226   1.000000
  207        4.545436   1.000000
  208        4.545436   1.000000
  209        4.560077   1.000000
  210        4.560078   1.000000
  211        4.565646   1.000000
  212        4.582227   1.000000
  213        4.582227   1.000000
  214        4.597854   1.000000
  215        4.615301   1.000000
  216        4.615302   1.000000
  217        4.634204   1.000000
  218        4.634204   1.000000
  219        4.659441   1.000000
  220        4.659441   1.000000
  221        4.670135   1.000000
  222        4.672927   1.000000
  223        4.672927   1.000000
  224        4.715190   1.000000
  225        4.715193   1.000000
  226        4.769100   1.000000
  227        4.769101   1.000000
  228        4.792179   1.000000
  229        4.811153   1.000000
  230        4.845642   1.000000
  231        4.846785   1.000000
  232        4.846785   1.000000
  233        4.866732   1.000000
  234        4.866732   1.000000
  235        4.876260   1.000000
  236        4.876260   1.000000
  237        4.878992   1.000000
  238        4.878993   1.000000
  239        4.880439   1.000000
  240        4.880440   1.000000
  241        4.889704   1.000000
  242        4.905759   1.000000
  243        4.905759   1.000000
  244        4.929369   1.000000
  245        4.929369   1.000000
  246        4.931388   1.000000
  247        4.931388   1.000000
  248        4.938197   1.000000
  249        4.938198   1.000000
  250        4.974434   1.000000
  251        4.974435   1.000000
  252        4.991018   1.000000
  253        4.991019   1.000000
  254        5.010564   1.000000
  255        5.010565   1.000000
  256        5.017732   1.000000
  257        5.017733   1.000000
  258        5.030555   1.000000
  259        5.042486   1.000000
  260        5.042488   1.000000
  261        5.061599   1.000000
  262        5.064759   1.000000
  263        5.079004   1.000000
  264        5.085381   1.000000
  265        5.085381   1.000000
  266        5.086063   1.000000
  267        5.120569   1.000000
  268        5.135035   1.000000
  269        5.174789   1.000000
  270        5.180114   1.000000
  271        5.180114   1.000000
  272        5.186158   1.000000
  273        5.207210   1.000000
  274        5.210289   1.000000
  275        5.210289   1.000000
  276        5.237484   1.000000
  277        5.241652   1.000000
  278        5.248163   1.000000
  279        5.248163   1.000000
  280        5.249419   1.000000
  281        5.249421   1.000000
  282        5.257885   1.000000
  283        5.266338   1.000000
  284        5.266339   1.000000
  285        5.293322   1.000000
  286        5.293322   1.000000
  287        5.294381   1.000000
  288        5.294381   1.000000
  289        5.307669   1.000000
  290        5.307669   1.000000
  291        5.308733   1.000000
  292        5.308733   1.000000
  293        5.375460   1.000000
  294        5.376900   1.000000
  295        5.376900   1.000000
  296        5.378622   1.000000
  297        5.394293   1.000000
  298        5.402503   1.000000
  299        5.405476   1.000000
  300        5.413252   1.000000
  301        5.413252   1.000000
  302        5.414435   1.000000
  303        5.414436   1.000000
  304        5.424551   1.000000
  305        5.438009   1.000000
  306        5.438017   1.000000
  307        5.438599   1.000000
  308        5.438599   1.000000
  309        5.440168   1.000000
  310        5.462140   1.000000
  311        5.462140   1.000000
  312        5.466755   1.000000
  313        5.466756   1.000000
  314        5.499824   1.000000
  315        5.499824   1.000000
  316        5.501147   1.000000
  317        5.501147   1.000000
  318        5.509060   1.000000
  319        5.509060   1.000000
  320        5.520801   1.000000
  321        5.520801   1.000000
  322        5.532005   1.000000
  323        5.544790   1.000000
  324        5.544790   1.000000
  325        5.572056   1.000000
  326        5.572056   1.000000
  327        5.575184   1.000000
  328        5.584912   1.000000
  329        5.584912   1.000000
  330        5.623631   1.000000
  331        5.623631   1.000000
  332        5.633790   1.000000
  333        5.633790   1.000000
  334        5.642002   1.000000
  335        5.648981   1.000000
  336        5.648989   1.000000
  337        5.661850   1.000000
  338        5.661851   1.000000
  339        5.702382   1.000000
  340        5.705008   1.000000
  341        5.705008   1.000000
  342        5.728676   1.000000
  343        5.751466   1.000000
  344        5.803601   1.000000
  345        5.804556   1.000000
  346        5.804557   1.000000
  347        5.823802   1.000000
  348        5.823804   1.000000
  349        5.832106   1.000000
  350        5.832106   1.000000
  351        5.844063   1.000000
  352        5.844063   1.000000
  353        5.851549   1.000000
  354        5.945274   1.000000
  355        5.945274   1.000000
  356        5.984310   1.000000
  357        5.984310   1.000000
  358        6.047933   1.000002
  359        6.047933   1.000002
  360        6.060057   1.000003
  361        6.060057   1.000003
  362        6.071166   1.000004
  363        6.071166   1.000004
  364        6.102365   1.000012
  365        6.102366   1.000012
  366        6.108512   1.000015
  367        6.119015   1.000020
  368        6.119017   1.000020
  369        6.151720   1.000053
  370        6.166795   1.000082
  371        6.166795   1.000082
  372        6.197051   1.000189
  373        6.197051   1.000189
  374        6.199082   1.000199
  375        6.199083   1.000199
  376        6.221470   1.000354
  377        6.237743   1.000530
  378        6.237744   1.000530
  379        6.247049   1.000663
  380        6.247049   1.000663
  381        6.248032   1.000678