       N       E                     dE             d eps       ncg     rms          rms(c)
DAV:   1     0.100485288892E+05    0.10049E+05   -0.43717E+05  4144   0.293E+03
DAV:   2     0.429505960929E+03   -0.96190E+04   -0.94765E+04  4144   0.587E+02
DAV:   3    -0.806520635143E+03   -0.12360E+04   -0.10617E+04  4144   0.268E+02
DAV:   4    -0.102538952495E+04   -0.21887E+03   -0.20578E+03  7520   0.710E+01
DAV:   5    -0.104512255167E+04   -0.19733E+02   -0.18702E+02  6704   0.265E+01    0.934E+01
RMM:   6    -0.877078715602E+03    0.16804E+03   -0.13527E+03  4144   0.112E+02    0.883E+00
RMM:   7    -0.880244411523E+03   -0.31657E+01   -0.11185E+02  4540   0.241E+01    0.471E+00
RMM:   8    -0.881852548560E+03   -0.16081E+01   -0.18404E+01  4596   0.985E+00    0.192E+01
RMM:   9    -0.879509542153E+03    0.23430E+01   -0.53500E+00  4445   0.612E+00    0.273E+00
RMM:  10    -0.879533292836E+03   -0.23751E-01   -0.36269E+00  5972   0.172E+00    0.255E+00
RMM:  11    -0.879527101144E+03    0.61917E-02   -0.25464E-01  5353   0.635E-01    0.801E-01
RMM:  12    -0.879528144499E+03   -0.10434E-02   -0.69696E-02  5284   0.338E-01    0.306E-01
RMM:  13    -0.879527821366E+03    0.32313E-03   -0.15272E-02  5073   0.213E-01    0.107E-01
RMM:  14    -0.879528075653E+03   -0.25429E-03   -0.35620E-03  6124   0.528E-02    0.313E-02
RMM:  15    -0.879528055777E+03    0.19875E-04    0.23460E-04  4880   0.355E-02    0.973E-03
RMM:  16    -0.879527998921E+03    0.56856E-04    0.23198E-04  5864   0.889E-03    0.981E-03
RMM:  17    -0.879527963871E+03    0.35050E-04    0.29581E-04  3514   0.346E-03    0.208E-03
RMM:  18    -0.879527937823E+03    0.26048E-04    0.24675E-04  2817   0.280E-03    0.133E-03
RMM:  19    -0.879527918102E+03    0.19721E-04    0.18412E-04  2679   0.147E-03    0.104E-03
RMM:  20    -0.879527892894E+03    0.25208E-04    0.23018E-04  2630   0.163E-03    0.333E-04
RMM:  21    -0.879527878803E+03    0.14091E-04    0.12828E-04  2389   0.916E-04    0.419E-04
RMM:  22    -0.879527867575E+03    0.11227E-04    0.10734E-04  2532   0.104E-03    0.151E-04
RMM:  23    -0.879527846078E+03    0.21497E-04    0.19558E-04  2310   0.789E-04    0.215E-04
RMM:  24    -0.879527835602E+03    0.10477E-04    0.90187E-05  1843   0.692E-04    0.799E-05
RMM:  25    -0.879527828428E+03    0.71742E-05    0.68010E-05  1647   0.578E-04    0.198E-04
RMM:  26    -0.879527822296E+03    0.61317E-05    0.59198E-05  1523   0.556E-04    0.694E-05
RMM:  27    -0.879527816816E+03    0.54802E-05    0.53164E-05  1352   0.478E-04    0.129E-04
RMM:  28    -0.879527811750E+03    0.50660E-05    0.49261E-05  1233   0.464E-04    0.879E-05
RMM:  29    -0.879527807112E+03    0.46373E-05    0.45086E-05  1111   0.415E-04    0.122E-04
RMM:  30    -0.879527802793E+03    0.43196E-05    0.42062E-05  1071   0.407E-04    0.105E-04
RMM:  31    -0.879527798830E+03    0.39625E-05    0.38656E-05  1031   0.376E-04    0.136E-04
RMM:  32    -0.879527795146E+03    0.36846E-05    0.36024E-05   960   0.367E-04    0.123E-04
RMM:  33    -0.879527791761E+03    0.33849E-05    0.33110E-05   891   0.347E-04    0.139E-04
RMM:  34    -0.879527788624E+03    0.31364E-05    0.30752E-05   859   0.343E-04    0.129E-04
RMM:  35    -0.879527785746E+03    0.28783E-05    0.28221E-05   800   0.330E-04    0.143E-04
RMM:  36    -0.879527783086E+03    0.26599E-05    0.26113E-05   787   0.327E-04    0.135E-04
RMM:  37    -0.879527780652E+03    0.24336E-05    0.23917E-05   735   0.318E-04    0.146E-04
RMM:  38    -0.879527778410E+03    0.22423E-05    0.22052E-05   724   0.316E-04    0.141E-04
RMM:  39    -0.879527776362E+03    0.20486E-05    0.20156E-05   687   0.310E-04    0.150E-04
RMM:  40    -0.879527774482E+03    0.18791E-05    0.18527E-05   682   0.309E-04    0.147E-04
RMM:  41    -0.879527772767E+03    0.17155E-05    0.16906E-05   656   0.305E-04    0.152E-04
RMM:  42    -0.879527771195E+03    0.15720E-05    0.15497E-05   637   0.303E-04    0.154E-04
RMM:  43    -0.879527769762E+03    0.14326E-05    0.14120E-05   673   0.305E-04    0.147E-04
RMM:  44    -0.879527768451E+03    0.13114E-05    0.12915E-05   667   0.303E-04    0.140E-04
RMM:  45    -0.879527767253E+03    0.11983E-05    0.11753E-05   767   0.304E-04    0.129E-04
RMM:  46    -0.879527766166E+03    0.10867E-05    0.10734E-05   653   0.291E-04    0.125E-04
RMM:  47    -0.879527765180E+03    0.98611E-06    0.97596E-06   672   0.287E-04
   1 F= -.87952777E+03 E0= -.87950388E+03  d E =-.879528E+03
       N       E                     dE             d eps       ncg     rms          rms(c)
DAV:   1    -0.879852734415E+03   -0.32497E+00   -0.86106E+00  4728   0.932E+00    0.438E+00
RMM:   2    -0.879528323638E+03    0.32441E+00   -0.28227E+00  4152   0.464E+00    0.540E-01
RMM:   3    -0.879526592582E+03    0.17311E-02   -0.22692E-01  4605   0.869E-01    0.433E-01
RMM:   4    -0.879521762729E+03    0.48299E-02   -0.94372E-02  4144   0.102E+00    0.405E-01
RMM:   5    -0.879519952821E+03    0.18099E-02   -0.19786E-02  4154   0.419E-01    0.377E-01
RMM:   6    -0.879519514050E+03    0.43877E-03   -0.31960E-03  4546   0.981E-02    0.110E-01
RMM:   7    -0.879519356301E+03    0.15775E-03   -0.44891E-04  4178   0.642E-02    0.552E-02
RMM:   8    -0.879519350835E+03    0.54658E-05   -0.22224E-04  4274   0.327E-02    0.215E-02
RMM:   9    -0.879519372679E+03   -0.21845E-04   -0.12149E-04  4267   0.232E-02    0.533E-03
RMM:  10    -0.879519372927E+03   -0.24743E-06   -0.20721E-05  4160   0.528E-03    0.647E-03
RMM:  11    -0.879519372308E+03    0.61825E-06   -0.29239E-07  2252   0.224E-03
   2 F= -.87951937E+03 E0= -.87949694E+03  d E =0.839287E-02
       N       E                     dE             d eps       ncg     rms          rms(c)
DAV:   1    -0.879641903749E+03   -0.12253E+00   -0.28142E+00  4632   0.531E+00    0.249E+00
RMM:   2    -0.879536348657E+03    0.10556E+00   -0.90902E-01  4153   0.264E+00    0.310E-01
RMM:   3    -0.879536434306E+03   -0.85649E-04   -0.75592E-02  4606   0.494E-01    0.262E-01
RMM:   4    -0.879536755581E+03   -0.32127E-03   -0.16647E-02  4149   0.395E-01    0.695E-01
RMM:   5    -0.879534915206E+03    0.18404E-02   -0.10243E-02  4155   0.302E-01    0.234E-01
RMM:   6    -0.879534038261E+03    0.87694E-03   -0.68488E-03  4161   0.241E-01    0.399E-02
RMM:   7    -0.879534076829E+03   -0.38568E-04   -0.76066E-04  5278   0.307E-02    0.567E-02
RMM:   8    -0.879534014804E+03    0.62025E-04   -0.10685E-04  4163   0.307E-02    0.263E-02
RMM:   9    -0.879533982653E+03    0.32151E-04   -0.93126E-05  4205   0.227E-02    0.227E-03
RMM:  10    -0.879533984450E+03   -0.17969E-05   -0.15528E-05  3704   0.393E-03    0.395E-03
RMM:  11    -0.879533986603E+03   -0.21531E-05   -0.13365E-06  2235   0.350E-03    0.137E-03
RMM:  12    -0.879533986173E+03    0.42958E-06   -0.34598E-07  2067   0.984E-04
   3 F= -.87953399E+03 E0= -.87951076E+03  d E =-.622099E-02
