 vasp.5.4.4.18Apr17-6-g9f103f2a35 (build Aug 17 2017 06:00:38) complex          
  
 executed on             LinuxIFC date 2019.07.12  15:21:50
 running on    8 total cores
 distrk:  each k-point on    8 cores,    1 groups
 distr:  one band on NCORES_PER_BAND=   4 cores,    2 groups


--------------------------------------------------------------------------------------------------------


 INCAR:
 POTCAR:   PAW_PBE Fe 06Sep2000                   
 POTCAR:   PAW_PBE Fe 06Sep2000                   
   VRHFIN =Fe:  d7 s1                                                           
   LEXCH  = PE                                                                  
   EATOM  =   594.4687 eV,   43.6922 Ry                                         
                                                                                
   TITEL  = PAW_PBE Fe 06Sep2000                                                
   LULTRA =        F    use ultrasoft PP ?                                      
   IUNSCR =        1    unscreen: 0-lin 1-nonlin 2-no                           
   RPACOR =    2.000    partial core radius                                     
   POMASS =   55.847; ZVAL   =    8.000    mass and valenz                      
   RCORE  =    2.300    outmost cutoff radius                                   
   RWIGS  =    2.460; RWIGS  =    1.302    wigner-seitz radius (au A)           
   ENMAX  =  267.883; ENMIN  =  200.912 eV                                      
   RCLOC  =    1.701    cutoff for local pot                                    
   LCOR   =        T    correct aug charges                                     
   LPAW   =        T    paw PP                                                  
   EAUG   =  511.368                                                            
   DEXC   =    -.022                                                            
   RMAX   =    2.817    core radius for proj-oper                               
   RAUG   =    1.300    factor for augmentation sphere                          
   RDEP   =    2.442    radius for radial grids                                 
   QCUT   =   -4.437; QGAM   =    8.874    optimization parameters              
                                                                                
   Description                                                                  
     l     E      TYP  RCUT    TYP  RCUT                                        
     2   .000     23  2.300                                                     
     2   .000     23  2.300                                                     
     0   .000     23  2.300                                                     
     0   .000     23  2.300                                                     
     1  -.200     23  2.300                                                     
     1   .000     23  2.300                                                     
     3   .000      7   .000                                                     
  local pseudopotential read in
  partial core-charges read in
  atomic valenz-charges read in
  non local Contribution for L=           2  read in
    real space projection operators read in
  non local Contribution for L=           2  read in
    real space projection operators read in
  non local Contribution for L=           0  read in
    real space projection operators read in
  non local Contribution for L=           0  read in
    real space projection operators read in
  non local Contribution for L=           1  read in
    real space projection operators read in
  non local Contribution for L=           1  read in
    real space projection operators read in
    PAW grid and wavefunctions read in
 
   number of l-projection  operators is LMAX  =           6
   number of lm-projection operators is LMMAX =          18
 
 Optimization of the real space projectors (new method)

 maximal supplied QI-value         = 16.25
 optimisation between [QCUT,QGAM] = [ 13.98, 27.95] = [ 54.70,218.80] Ry 
 Optimized for a Real-space Cutoff    1.32 Angstroem

   l    n(q)    QCUT    max X(q) W(low)/X(q) W(high)/X(q)  e(spline) 
   2     10    13.976     4.378    0.13E-04    0.22E-04    0.77E-07
   2     10    13.976    23.237    0.88E-04    0.45E-03    0.79E-06
   0     11    13.976    17.641    0.13E-04    0.26E-05    0.43E-07
   0     11    13.976    50.908    0.70E-04    0.59E-04    0.18E-06
   1     11    13.976     6.148    0.66E-05    0.25E-04    0.12E-06
   1     11    13.976     8.345    0.61E-04    0.76E-04    0.55E-06
 PAW_PBE Fe 06Sep2000                   :
 energy of atom  1       EATOM= -594.4687
 kinetic energy error for atom=    0.0005 (will be added to EATOM!!)
 
 
 POSCAR: fcc_Fe_CON_333                          
  positions in direct lattice
  velocities in cartesian coordinates
 exchange correlation table for  LEXCH =        8
   RHO(1)=    0.500       N(1)  =     2000
   RHO(2)=  100.500       N(2)  =     4000
 


--------------------------------------------------------------------------------------------------------


 ion  position               nearest neighbor table
   1  0.000  0.000  0.000-   2 2.44   3 2.44   4 2.44  11 2.44  12 2.44  26 2.44  28 2.44  74 2.44
                            75 2.44  36 2.44  83 2.44  98 2.44
   2  0.000  0.167  0.167-  49 2.44  37 2.44  13 2.44  40 2.44  15 2.44  48 2.44  23 2.44   3 2.44
                             4 2.44   1 2.44  12 2.44  11 2.44
   3  0.167  0.000  0.167-  41 2.44  37 2.44   5 2.44  40 2.44   6 2.44  30 2.44  64 2.44   2 2.44
                             4 2.44   1 2.44  28 2.44  26 2.44
   4  0.167  0.167  0.000-  17 2.44  13 2.44   5 2.44  15 2.44   6 2.44  78 2.44  87 2.44   2 2.44
                             3 2.44   1 2.44  74 2.44  75 2.44
   5  0.333  0.000  0.000-   3 2.44   4 2.44  28 2.44  75 2.44   6 2.44   7 2.44   8 2.44  30 2.44
                            78 2.44  32 2.44  79 2.44 102 2.44
   6  0.333  0.167  0.167-  15 2.44  40 2.44  53 2.44  17 2.44  19 2.44   4 2.44  41 2.44  44 2.44
                             3 2.44   7 2.44   8 2.44   5 2.44
   7  0.500  0.000  0.167-  41 2.44  44 2.44  45 2.44  68 2.44   6 2.44   5 2.44   8 2.44  10 2.44
                            30 2.44   9 2.44  32 2.44  34 2.44
   8  0.500  0.167  0.000-  17 2.44  19 2.44  21 2.44  91 2.44   6 2.44   5 2.44   7 2.44  78 2.44
                            10 2.44  79 2.44   9 2.44  82 2.44
   9  0.667  0.000  0.000-  11 2.44  12 2.44  36 2.44  83 2.44  10 2.44  82 2.44  34 2.44   8 2.44
                             7 2.44 106 2.44  79 2.44  32 2.44
  10  0.667  0.167  0.167-  23 2.44  48 2.44  57 2.44  12 2.44  11 2.44  21 2.44  45 2.44  44 2.44
                            19 2.44   9 2.44   7 2.44   8 2.44
  11  0.833  0.000  0.167-  45 2.44   9 2.44  10 2.44  34 2.44  48 2.44  37 2.44  72 2.44  12 2.44
                             2 2.44  36 2.44   1 2.44  26 2.44
  12  0.833  0.167  0.000-  21 2.44   9 2.44  10 2.44  82 2.44  23 2.44  13 2.44  95 2.44  11 2.44
                             1 2.44  83 2.44   2 2.44  74 2.44
  13  0.000  0.333  0.000-   2 2.44   4 2.44  12 2.44  74 2.44  15 2.44  16 2.44  14 2.44  23 2.44
                            87 2.44  86 2.44  24 2.44  95 2.44
  14  0.000  0.500  0.167-  49 2.44  52 2.44  60 2.44  61 2.44  15 2.44  13 2.44  16 2.44  23 2.44
                            27 2.44  25 2.44  24 2.44  35 2.44
  15  0.167  0.333  0.167-   6 2.44  40 2.44  53 2.44  17 2.44  18 2.44   4 2.44  49 2.44  52 2.44
                             2 2.44  13 2.44  14 2.44  16 2.44
  16  0.167  0.500  0.000-  17 2.44  18 2.44  29 2.44  90 2.44  15 2.44  14 2.44  13 2.44  87 2.44
                            27 2.44  25 2.44  86 2.44  99 2.44
  17  0.333  0.333  0.000-   4 2.44   8 2.44  16 2.44  15 2.44   6 2.44  78 2.44  87 2.44  20 2.44
                            18 2.44  19 2.44  90 2.44  91 2.44
  18  0.333  0.500  0.167-  52 2.44  16 2.44  56 2.44  53 2.44  15 2.44  27 2.44  65 2.44  20 2.44
                            17 2.44  19 2.44  29 2.44  31 2.44
  19  0.500  0.333  0.167-  44 2.44   8 2.44  56 2.44  53 2.44   6 2.44  10 2.44  57 2.44  18 2.44
                            20 2.44  17 2.44  21 2.44  22 2.44
  20  0.500  0.500  0.000-  17 2.44  18 2.44  19 2.44  21 2.44  22 2.44  29 2.44  31 2.44  90 2.44
                            91 2.44  33 2.44  94 2.44 103 2.44
  21  0.667  0.333  0.000-  12 2.44  24 2.44  23 2.44  95 2.44  10 2.44   8 2.44  82 2.44  22 2.44
                            20 2.44  94 2.44  19 2.44  91 2.44
  22  0.667  0.500  0.167-  60 2.44  24 2.44  23 2.44  35 2.44  57 2.44  56 2.44  69 2.44  21 2.44
                            33 2.44  20 2.44  19 2.44  31 2.44
  23  0.833  0.333  0.167-  10 2.44  57 2.44  48 2.44  21 2.44  22 2.44  12 2.44  60 2.44   2 2.44
                            49 2.44  24 2.44  14 2.44  13 2.44
  24  0.833  0.500  0.000-  21 2.44  22 2.44  33 2.44  94 2.44  23 2.44  35 2.44  95 2.44  14 2.44
                            13 2.44 107 2.44  86 2.44  25 2.44
  25  0.000  0.667  0.000-  26 2.44  28 2.44  36 2.44  98 2.44  27 2.44  35 2.44  99 2.44  16 2.44
                            14 2.44 107 2.44  86 2.44  24 2.44
  26  0.000  0.833  0.167-  61 2.44  25 2.44  27 2.44  35 2.44  64 2.44  37 2.44  72 2.44  28 2.44
                             3 2.44  36 2.44   1 2.44  11 2.44
  27  0.167  0.667  0.167-  30 2.44  64 2.44  65 2.44  28 2.44  26 2.44  29 2.44  61 2.44  52 2.44
                            18 2.44  25 2.44  14 2.44  16 2.44
  28  0.167  0.833  0.000-  29 2.44  25 2.44  27 2.44  99 2.44  30 2.44   5 2.44 102 2.44  26 2.44
                            98 2.44   1 2.44   3 2.44  75 2.44
  29  0.333  0.667  0.000-  28 2.44  32 2.44  30 2.44 102 2.44  27 2.44  16 2.44  99 2.44  31 2.44
                            20 2.44  18 2.44 103 2.44  90 2.44
  30  0.333  0.833  0.167-  27 2.44  65 2.44  64 2.44  29 2.44  31 2.44  28 2.44  68 2.44  41 2.44
                             3 2.44  32 2.44   7 2.44   5 2.44
  31  0.500  0.667  0.167-  68 2.44  32 2.44  30 2.44  34 2.44  65 2.44  56 2.44  69 2.44  29 2.44
                            33 2.44  20 2.44  18 2.44  22 2.44
  32  0.500  0.833  0.000-  29 2.44  31 2.44  33 2.44 103 2.44  30 2.44 102 2.44  34 2.44   7 2.44
                             5 2.44 106 2.44  79 2.44   9 2.44
  33  0.667  0.667  0.000-  36 2.44  35 2.44  34 2.44  32 2.44  24 2.44 106 2.44 107 2.44  22 2.44
                            31 2.44 103 2.44  20 2.44  94 2.44
  34  0.667  0.833  0.167-  35 2.44  69 2.44  72 2.44  33 2.44  36 2.44  31 2.44  11 2.44  45 2.44
                            68 2.44  32 2.44   9 2.44   7 2.44
  35  0.833  0.667  0.167-  34 2.44  69 2.44  72 2.44  33 2.44  36 2.44  26 2.44  22 2.44  60 2.44
                            61 2.44  24 2.44  25 2.44  14 2.44
  36  0.833  0.833  0.000-  33 2.44  34 2.44  35 2.44  25 2.44   9 2.44 106 2.44 107 2.44  26 2.44
                            11 2.44  98 2.44   1 2.44  83 2.44
  37  0.000  0.000  0.333-   2 2.44   3 2.44  11 2.44  26 2.44  40 2.44  39 2.44  38 2.44  48 2.44
                            64 2.44  62 2.44  47 2.44  72 2.44
  38  0.000  0.167  0.500-  49 2.44  51 2.44  59 2.44  85 2.44  40 2.44  39 2.44  37 2.44  76 2.44
                            48 2.44  47 2.44  73 2.44  84 2.44
  39  0.167  0.000  0.500-  41 2.44  42 2.44  66 2.44  77 2.44  40 2.44  38 2.44  37 2.44  76 2.44
                            64 2.44  62 2.44  73 2.44 100 2.44
  40  0.167  0.167  0.333-   6 2.44  15 2.44  53 2.44   3 2.44  41 2.44  42 2.44  49 2.44  51 2.44
                             2 2.44  39 2.44  37 2.44  38 2.44
  41  0.333  0.000  0.333-   3 2.44   7 2.44  39 2.44   6 2.44  40 2.44  30 2.44  64 2.44  43 2.44
                            44 2.44  42 2.44  66 2.44  68 2.44
  42  0.333  0.167  0.500-  51 2.44  39 2.44  55 2.44  53 2.44  40 2.44  76 2.44  89 2.44  44 2.44
                            41 2.44  43 2.44  80 2.44  77 2.44
  43  0.500  0.000  0.500-  41 2.44  42 2.44  44 2.44  45 2.44  46 2.44  66 2.44  68 2.44  77 2.44
                            80 2.44  70 2.44  81 2.44 104 2.44
  44  0.500  0.167  0.333-  19 2.44   7 2.44  55 2.44  53 2.44   6 2.44  10 2.44  57 2.44  41 2.44
                            42 2.44  43 2.44  46 2.44  45 2.44
  45  0.667  0.000  0.333-  11 2.44  47 2.44  48 2.44  72 2.44  10 2.44   7 2.44  34 2.44  46 2.44
                            43 2.44  70 2.44  44 2.44  68 2.44
  46  0.667  0.167  0.500-  59 2.44  47 2.44  48 2.44  84 2.44  57 2.44  55 2.44  93 2.44  45 2.44
                            81 2.44  43 2.44  44 2.44  80 2.44
  47  0.833  0.000  0.500-  45 2.44  46 2.44  70 2.44  81 2.44  48 2.44  72 2.44  84 2.44  38 2.44
                            37 2.44 108 2.44  73 2.44  62 2.44
  48  0.833  0.167  0.333-  10 2.44  57 2.44  23 2.44  46 2.44  45 2.44  11 2.44  59 2.44   2 2.44
                            49 2.44  47 2.44  37 2.44  38 2.44
  49  0.000  0.333  0.333-   2 2.44  14 2.44  38 2.44  15 2.44  40 2.44  23 2.44  48 2.44  50 2.44
                            51 2.44  52 2.44  59 2.44  60 2.44
  50  0.000  0.500  0.500-  49 2.44  51 2.44  52 2.44  59 2.44  60 2.44  61 2.44  63 2.44  85 2.44
                            88 2.44  71 2.44  96 2.44  97 2.44
  51  0.167  0.333  0.500-  42 2.44  38 2.44  54 2.44  53 2.44  40 2.44  76 2.44  89 2.44  50 2.44
                            52 2.44  49 2.44  88 2.44  85 2.44
  52  0.167  0.500  0.333-  18 2.44  14 2.44  54 2.44  53 2.44  15 2.44  27 2.44  65 2.44  49 2.44
                            50 2.44  51 2.44  63 2.44  61 2.44
  53  0.333  0.333  0.333-   6 2.44  15 2.44  40 2.44  19 2.44  18 2.44  42 2.44  44 2.44  51 2.44
                            52 2.44  54 2.44  55 2.44  56 2.44
  54  0.333  0.500  0.500-  51 2.44  52 2.44  63 2.44  88 2.44  53 2.44  55 2.44  56 2.44  65 2.44
                            89 2.44  67 2.44  92 2.44 101 2.44
  55  0.500  0.333  0.500-  42 2.44  44 2.44  46 2.44  80 2.44  53 2.44  56 2.44  54 2.44  57 2.44
                            89 2.44  58 2.44  92 2.44  93 2.44
  56  0.500  0.500  0.333-  18 2.44  19 2.44  22 2.44  31 2.44  53 2.44  54 2.44  55 2.44  57 2.44
                            65 2.44  58 2.44  67 2.44  69 2.44
  57  0.667  0.333  0.333-  23 2.44  48 2.44  10 2.44  59 2.44  60 2.44  46 2.44  22 2.44  19 2.44
                            44 2.44  58 2.44  56 2.44  55 2.44
  58  0.667  0.500  0.500-  59 2.44  60 2.44  71 2.44  96 2.44  57 2.44  93 2.44  69 2.44  56 2.44
                            55 2.44 105 2.44  92 2.44  67 2.44
  59  0.833  0.333  0.500-  46 2.44  58 2.44  57 2.44  93 2.44  48 2.44  38 2.44  84 2.44  60 2.44
                            50 2.44  49 2.44  96 2.44  85 2.44
  60  0.833  0.500  0.333-  22 2.44  58 2.44  57 2.44  69 2.44  23 2.44  14 2.44  35 2.44  59 2.44
                            49 2.44  50 2.44  71 2.44  61 2.44
  61  0.000  0.667  0.333-  26 2.44  62 2.44  64 2.44  72 2.44  27 2.44  14 2.44  35 2.44  63 2.44
                            50 2.44  71 2.44  52 2.44  60 2.44
  62  0.000  0.833  0.500-  61 2.44  63 2.44  71 2.44  97 2.44  64 2.44  72 2.44 100 2.44  39 2.44
                            37 2.44 108 2.44  73 2.44  47 2.44
  63  0.167  0.667  0.500-  66 2.44  62 2.44  64 2.44 100 2.44  65 2.44  54 2.44 101 2.44  61 2.44
                            97 2.44  50 2.44  52 2.44  88 2.44
  64  0.167  0.833  0.333-  27 2.44  65 2.44  30 2.44  63 2.44  61 2.44  26 2.44  66 2.44   3 2.44
                            41 2.44  62 2.44  37 2.44  39 2.44
  65  0.333  0.667  0.333-  30 2.44  64 2.44  27 2.44  66 2.44  68 2.44  63 2.44  31 2.44  18 2.44
                            52 2.44  67 2.44  56 2.44  54 2.44
  66  0.333  0.833  0.500-  63 2.44  67 2.44  65 2.44 101 2.44  64 2.44  39 2.44 100 2.44  68 2.44
                            43 2.44  41 2.44 104 2.44  77 2.44
  67  0.500  0.667  0.500-  66 2.44  68 2.44  70 2.44 104 2.44  65 2.44 101 2.44  69 2.44  56 2.44
                            54 2.44 105 2.44  92 2.44  58 2.44
  68  0.500  0.833  0.333-  31 2.44  67 2.44  65 2.44  69 2.44  30 2.44   7 2.44  34 2.44  66 2.44
                            41 2.44  43 2.44  70 2.44  45 2.44
  69  0.667  0.667  0.333-  72 2.44  35 2.44  34 2.44  71 2.44  70 2.44  68 2.44  60 2.44  31 2.44
                            22 2.44  58 2.44  67 2.44  56 2.44
  70  0.667  0.833  0.500-  71 2.44  69 2.44  72 2.44  67 2.44  47 2.44 105 2.44 108 2.44  68 2.44
                            45 2.44 104 2.44  43 2.44  81 2.44
  71  0.833  0.667  0.500-  70 2.44  69 2.44  72 2.44  62 2.44  58 2.44 105 2.44 108 2.44  60 2.44
                            61 2.44  97 2.44  50 2.44  96 2.44
  72  0.833  0.833  0.333-  69 2.44  35 2.44  34 2.44  70 2.44  71 2.44  61 2.44  45 2.44  26 2.44
                            11 2.44  62 2.44  47 2.44  37 2.44
  73  0.000  0.000  0.667-  74 2.44  75 2.44  83 2.44  98 2.44  76 2.44  84 2.44 100 2.44  39 2.44
                            38 2.44 108 2.44  47 2.44  62 2.44
  74  0.000  0.167  0.833-  85 2.44  73 2.44  76 2.44  84 2.44  87 2.44  13 2.44  95 2.44  75 2.44
                             4 2.44  83 2.44   1 2.44  12 2.44
  75  0.167  0.000  0.833-  77 2.44  73 2.44  76 2.44 100 2.44  78 2.44   5 2.44 102 2.44  74 2.44
                            98 2.44   1 2.44   4 2.44  28 2.44
  76  0.167  0.167  0.667-  78 2.44  87 2.44  89 2.44  75 2.44  74 2.44  77 2.44  85 2.44  51 2.44
                            42 2.44  73 2.44  38 2.44  39 2.44
  77  0.333  0.000  0.667-  75 2.44  79 2.44  78 2.44 102 2.44  76 2.44  39 2.44 100 2.44  80 2.44
                            43 2.44  42 2.44 104 2.44  66 2.44
  78  0.333  0.167  0.833-  76 2.44  89 2.44  87 2.44  77 2.44  80 2.44  75 2.44  91 2.44  17 2.44
                             4 2.44  79 2.44   8 2.44   5 2.44
  79  0.500  0.000  0.833-  77 2.44  80 2.44  81 2.44 104 2.44  78 2.44 102 2.44  82 2.44   8 2.44
                             5 2.44 106 2.44   9 2.44  32 2.44
  80  0.500  0.167  0.667-  91 2.44  79 2.44  78 2.44  82 2.44  89 2.44  55 2.44  93 2.44  77 2.44
                            43 2.44  81 2.44  42 2.44  46 2.44
  81  0.667  0.000  0.667-  83 2.44  82 2.44  84 2.44  79 2.44  47 2.44 106 2.44 108 2.44  80 2.44
                            46 2.44 104 2.44  70 2.44  43 2.44
  82  0.667  0.167  0.833-  84 2.44  93 2.44  95 2.44  83 2.44  81 2.44  80 2.44  12 2.44  21 2.44
                            91 2.44  79 2.44   9 2.44   8 2.44
  83  0.833  0.000  0.833-  81 2.44  82 2.44  84 2.44  73 2.44   9 2.44 106 2.44 108 2.44  74 2.44
                            12 2.44  98 2.44  36 2.44   1 2.44
  84  0.833  0.167  0.667-  82 2.44  93 2.44  95 2.44  81 2.44  83 2.44  74 2.44  46 2.44  59 2.44
                            85 2.44  73 2.44  47 2.44  38 2.44
  85  0.000  0.333  0.667-  74 2.44  86 2.44  87 2.44  95 2.44  76 2.44  38 2.44  84 2.44  88 2.44
                            51 2.44  50 2.44  96 2.44  59 2.44
  86  0.000  0.500  0.833-  85 2.44  88 2.44  96 2.44  97 2.44  87 2.44  95 2.44  99 2.44  16 2.44
                            13 2.44 107 2.44  24 2.44  25 2.44
  87  0.167  0.333  0.833-  76 2.44  89 2.44  78 2.44  88 2.44  85 2.44  74 2.44  90 2.44  17 2.44
                             4 2.44  86 2.44  16 2.44  13 2.44
  88  0.167  0.500  0.667-  90 2.44  86 2.44  87 2.44  99 2.44  89 2.44  54 2.44 101 2.44  85 2.44
                            97 2.44  50 2.44  51 2.44  63 2.44
  89  0.333  0.333  0.667-  78 2.44  87 2.44  76 2.44  90 2.44  91 2.44  80 2.44  88 2.44  51 2.44
                            42 2.44  92 2.44  54 2.44  55 2.44
  90  0.333  0.500  0.833-  88 2.44  92 2.44  89 2.44 101 2.44  87 2.44  16 2.44  99 2.44  91 2.44
                            20 2.44  17 2.44 103 2.44  29 2.44
  91  0.500  0.333  0.833-  80 2.44  92 2.44  89 2.44  93 2.44  78 2.44   8 2.44  82 2.44  90 2.44
                            20 2.44  17 2.44  94 2.44  21 2.44
  92  0.500  0.500  0.667-  90 2.44  91 2.44  94 2.44 103 2.44  89 2.44 101 2.44  93 2.44  55 2.44
                            54 2.44 105 2.44  58 2.44  67 2.44
  93  0.667  0.333  0.667-  95 2.44  84 2.44  82 2.44  94 2.44  96 2.44  91 2.44  59 2.44  46 2.44
                            80 2.44  92 2.44  58 2.44  55 2.44
  94  0.667  0.500  0.833-  96 2.44  95 2.44  93 2.44  92 2.44  24 2.44 105 2.44 107 2.44  21 2.44
                            91 2.44 103 2.44  33 2.44  20 2.44
  95  0.833  0.333  0.833-  93 2.44  84 2.44  82 2.44  94 2.44  96 2.44  85 2.44  21 2.44  12 2.44
                            74 2.44  86 2.44  24 2.44  13 2.44
  96  0.833  0.500  0.667-  94 2.44  93 2.44  95 2.44  86 2.44  58 2.44 105 2.44 107 2.44  59 2.44
                            85 2.44  97 2.44  71 2.44  50 2.44
  97  0.000  0.667  0.667-  98 2.44  99 2.44 100 2.44  86 2.44  62 2.44 107 2.44 108 2.44  88 2.44
                            63 2.44  96 2.44  50 2.44  71 2.44
  98  0.000  0.833  0.833-  97 2.44  99 2.44 100 2.44  73 2.44  25 2.44 107 2.44 108 2.44  75 2.44
                            28 2.44  83 2.44   1 2.44  36 2.44
  99  0.167  0.667  0.833- 100 2.44 101 2.44 102 2.44  98 2.44  97 2.44  88 2.44  28 2.44  90 2.44
                            29 2.44  86 2.44  25 2.44  16 2.44
 100  0.167  0.833  0.667-  99 2.44 101 2.44 102 2.44  98 2.44  97 2.44  75 2.44  63 2.44  77 2.44
                            66 2.44  73 2.44  62 2.44  39 2.44
 101  0.333  0.667  0.667- 102 2.44 100 2.44  99 2.44 103 2.44 104 2.44  90 2.44  66 2.44  63 2.44
                            88 2.44  92 2.44  67 2.44  54 2.44
 102  0.333  0.833  0.833- 101 2.44 100 2.44  99 2.44 103 2.44 104 2.44  77 2.44  29 2.44  28 2.44
                            75 2.44  79 2.44  32 2.44   5 2.44
 103  0.500  0.667  0.833- 104 2.44 102 2.44 101 2.44  92 2.44  32 2.44 105 2.44 106 2.44  29 2.44
                            90 2.44  94 2.44  20 2.44  33 2.44
 104  0.500  0.833  0.667- 103 2.44 102 2.44 101 2.44  79 2.44  67 2.44 105 2.44 106 2.44  66 2.44
                            77 2.44  81 2.44  43 2.44  70 2.44
 105  0.667  0.667  0.667- 106 2.44 107 2.44 108 2.44  96 2.44 103 2.44 104 2.44  70 2.44  71 2.44
                            94 2.44  67 2.44  92 2.44  58 2.44
 106  0.667  0.833  0.833- 105 2.44 107 2.44 108 2.44  83 2.44 103 2.44 104 2.44  33 2.44  36 2.44
                            81 2.44  32 2.44  79 2.44   9 2.44
 107  0.833  0.667  0.833- 105 2.44 106 2.44 108 2.44  96 2.44  97 2.44  98 2.44  33 2.44  36 2.44
                            94 2.44  25 2.44  86 2.44  24 2.44
 108  0.833  0.833  0.667- 105 2.44 106 2.44 107 2.44  83 2.44  97 2.44  98 2.44  70 2.44  71 2.44
                            81 2.44  62 2.44  73 2.44  47 2.44
 
  LATTYP: Found a simple cubic cell.
 ALAT       =    10.3348470474
  
  Lattice vectors:
  
 A1 = (  10.3348470474,   0.0000000000,   0.0000000000)
 A2 = (   0.0000000000,  10.3348470474,   0.0000000000)
 A3 = (   0.0000000000,   0.0000000000,  10.3348470474)


Analysis of symmetry for initial positions (statically):
=====================================================================
 Subroutine PRICEL returns following result:
 
  LATTYP: Found a simple cubic cell.
 ALAT       =     3.4449252899
  
  Lattice vectors:
  
 A1 = (   3.4449252899,   0.0000000000,   0.0000000000)
 A2 = (   0.0000000000,   3.4449252899,   0.0000000000)
 A3 = (   0.0000000000,   0.0000000000,   3.4449252443)
 
  27 primitive cells build up your supercell.
 

 Routine SETGRP: Setting up the symmetry group for a 
 simple cubic supercell.


 Subroutine GETGRP returns: Found 48 space group operations
 (whereof 48 operations were pure point group operations)
 out of a pool of 48 trial point group operations.


The static configuration has the point symmetry O_h .


Analysis of symmetry for dynamics (positions and initial velocities):
=====================================================================
 Subroutine PRICEL returns following result:
 
  LATTYP: Found a simple cubic cell.
 ALAT       =     3.4449252899
  
  Lattice vectors:
  
 A1 = (   3.4449252899,   0.0000000000,   0.0000000000)
 A2 = (   0.0000000000,   3.4449252899,   0.0000000000)
 A3 = (   0.0000000000,   0.0000000000,   3.4449252443)
 
  27 primitive cells build up your supercell.
 

 Routine SETGRP: Setting up the symmetry group for a 
 simple cubic supercell.


 Subroutine GETGRP returns: Found 48 space group operations
 (whereof 48 operations were pure point group operations)
 out of a pool of 48 trial point group operations.


The dynamic configuration has the point symmetry O_h .


 Subroutine INISYM returns: Found 48 space group operations
 (whereof 48 operations are pure point group operations),
 and found    27 'primitive' translations

 
 
 KPOINTS: pymatgen generated KPOINTS with grid den

Automatic generation of k-mesh.
Space group operators:
 irot       det(A)        alpha          n_x          n_y          n_z        tau_x        tau_y        tau_z
    1     1.000000     0.000000     1.000000     0.000000     0.000000     0.000000     0.000000     0.000000
    2    -1.000000     0.000000     1.000000     0.000000     0.000000     0.000000     0.000000     0.000000
    3     1.000000   120.000000    -0.577350    -0.577350    -0.577350     0.000000     0.000000     0.000000
    4    -1.000000   120.000000    -0.577350    -0.577350    -0.577350     0.000000     0.000000     0.000000
    5     1.000000   120.000000     0.577350     0.577350     0.577350     0.000000     0.000000     0.000000
    6    -1.000000   120.000000     0.577350     0.577350     0.577350     0.000000     0.000000     0.000000
    7     1.000000    90.000000     0.000000     0.000000    -1.000000     0.000000     0.000000     0.000000
    8    -1.000000    90.000000     0.000000     0.000000    -1.000000     0.000000     0.000000     0.000000
    9     1.000000   180.000000     0.000000     0.707107     0.707107     0.000000     0.000000     0.000000
   10    -1.000000   180.000000     0.000000     0.707107     0.707107     0.000000     0.000000     0.000000
   11     1.000000    90.000000     0.000000     1.000000     0.000000     0.000000     0.000000     0.000000
   12    -1.000000    90.000000     0.000000     1.000000     0.000000     0.000000     0.000000     0.000000
   13     1.000000   180.000000     0.000000     0.000000     1.000000     0.000000     0.000000     0.000000
   14    -1.000000   180.000000     0.000000     0.000000     1.000000     0.000000     0.000000     0.000000
   15     1.000000   120.000000    -0.577350     0.577350     0.577350     0.000000     0.000000     0.000000
   16    -1.000000   120.000000    -0.577350     0.577350     0.577350     0.000000     0.000000     0.000000
   17     1.000000   120.000000    -0.577350     0.577350    -0.577350     0.000000     0.000000     0.000000
   18    -1.000000   120.000000    -0.577350     0.577350    -0.577350     0.000000     0.000000     0.000000
   19     1.000000    90.000000     0.000000     0.000000     1.000000     0.000000     0.000000     0.000000
   20    -1.000000    90.000000     0.000000     0.000000     1.000000     0.000000     0.000000     0.000000
   21     1.000000    90.000000    -1.000000     0.000000     0.000000     0.000000     0.000000     0.000000
   22    -1.000000    90.000000    -1.000000     0.000000     0.000000     0.000000     0.000000     0.000000
   23     1.000000   180.000000     0.707107     0.000000     0.707107     0.000000     0.000000     0.000000
   24    -1.000000   180.000000     0.707107     0.000000     0.707107     0.000000     0.000000     0.000000
   25     1.000000   120.000000     0.577350    -0.577350     0.577350     0.000000     0.000000     0.000000
   26    -1.000000   120.000000     0.577350    -0.577350     0.577350     0.000000     0.000000     0.000000
   27     1.000000   120.000000    -0.577350    -0.577350     0.577350     0.000000     0.000000     0.000000
   28    -1.000000   120.000000    -0.577350    -0.577350     0.577350     0.000000     0.000000     0.000000
   29     1.000000   180.000000     1.000000     0.000000     0.000000     0.000000     0.000000     0.000000
   30    -1.000000   180.000000     1.000000     0.000000     0.000000     0.000000     0.000000     0.000000
   31     1.000000    90.000000     0.000000    -1.000000     0.000000     0.000000     0.000000     0.000000
   32    -1.000000    90.000000     0.000000    -1.000000     0.000000     0.000000     0.000000     0.000000
   33     1.000000   180.000000     0.707107     0.707107     0.000000     0.000000     0.000000     0.000000
   34    -1.000000   180.000000     0.707107     0.707107     0.000000     0.000000     0.000000     0.000000
   35     1.000000    90.000000     1.000000     0.000000     0.000000     0.000000     0.000000     0.000000
   36    -1.000000    90.000000     1.000000     0.000000     0.000000     0.000000     0.000000     0.000000
   37     1.000000   120.000000     0.577350    -0.577350    -0.577350     0.000000     0.000000     0.000000
   38    -1.000000   120.000000     0.577350    -0.577350    -0.577350     0.000000     0.000000     0.000000
   39     1.000000   180.000000     0.000000     1.000000     0.000000     0.000000     0.000000     0.000000
   40    -1.000000   180.000000     0.000000     1.000000     0.000000     0.000000     0.000000     0.000000
   41     1.000000   120.000000     0.577350     0.577350    -0.577350     0.000000     0.000000     0.000000
   42    -1.000000   120.000000     0.577350     0.577350    -0.577350     0.000000     0.000000     0.000000
   43     1.000000   180.000000     0.000000    -0.707107     0.707107     0.000000     0.000000     0.000000
   44    -1.000000   180.000000     0.000000    -0.707107     0.707107     0.000000     0.000000     0.000000
   45     1.000000   180.000000     0.707107    -0.707107     0.000000     0.000000     0.000000     0.000000
   46    -1.000000   180.000000     0.707107    -0.707107     0.000000     0.000000     0.000000     0.000000
   47     1.000000   180.000000     0.707107     0.000000    -0.707107     0.000000     0.000000     0.000000
   48    -1.000000   180.000000     0.707107     0.000000    -0.707107     0.000000     0.000000     0.000000
 
 Subroutine IBZKPT returns following result:
 ===========================================
 
 Found      4 irreducible k-points:
 
 Following reciprocal coordinates:
            Coordinates               Weight
  0.125000  0.125000  0.125000      8.000000
  0.375000  0.125000  0.125000     24.000000
  0.375000  0.375000  0.125000     24.000000
  0.375000  0.375000  0.375000      8.000000
 
 Following cartesian coordinates:
            Coordinates               Weight
  0.012095  0.012095  0.012095      8.000000
  0.036285  0.012095  0.012095     24.000000
  0.036285  0.036285  0.012095     24.000000
  0.036285  0.036285  0.036285      8.000000
 


--------------------------------------------------------------------------------------------------------




 Dimension of arrays:
   k-points           NKPTS =      4   k-points in BZ     NKDIM =      4   number of bands    NBANDS=    518
   number of dos      NEDOS =    301   number of ions     NIONS =    108
   non local maximal  LDIM  =      6   non local SUM 2l+1 LMDIM =     18
   total plane-waves  NPLWV = 373248
   max r-space proj   IRMAX =   3274   max aug-charges    IRDMAX=  12243
   dimension x,y,z NGX =    72 NGY =   72 NGZ =   72
   dimension x,y,z NGXF=   144 NGYF=  144 NGZF=  144
   support grid    NGXF=   144 NGYF=  144 NGZF=  144
   ions per type =             108
   NGX,Y,Z   is equivalent  to a cutoff of  11.58, 11.58, 11.58 a.u.
   NGXF,Y,Z  is equivalent  to a cutoff of  23.16, 23.16, 23.16 a.u.

 Based on PREC, I would recommend the following setting:
   dimension x,y,z NGX =    70 NGY =   70 NGZ =   70

 SYSTEM =  Opt                                     
 POSCAR =  fcc_Fe_CON_333                          

 Startparameter for this run:
   NWRITE =      2    write-flag & timer
   PREC   = normal    normal or accurate (medium, high low for compatibility)
   ISTART =      0    job   : 0-new  1-cont  2-samecut
   ICHARG =      2    charge: 1-file 2-atom 10-const
   ISPIN  =      1    spin polarized calculation?
   LNONCOLLINEAR =      F non collinear calculations
   LSORBIT =      F    spin-orbit coupling
   INIWAV =      1    electr: 0-lowe 1-rand  2-diag
   LASPH  =      F    aspherical Exc in radial PAW
   METAGGA=      F    non-selfconsistent MetaGGA calc.

 Electronic Relaxation 1
   ENCUT  =  750.0 eV  55.12 Ry    7.42 a.u.  23.08 23.08 23.08*2*pi/ulx,y,z
   ENINI  =  750.0     initial cutoff
   ENAUG  =  511.4 eV  augmentation charge cutoff
   NELM   =    400;   NELMIN=  2; NELMDL= -5     # of ELM steps 
   EDIFF  = 0.1E-05   stopping-criterion for ELM
   LREAL  =      T    real-space projection
   NLSPLINE    = F    spline interpolate recip. space projectors
   LCOMPAT=      F    compatible to vasp.4.4
   GGA_COMPAT  = T    GGA compatible to vasp.4.4-vasp.4.6
   LMAXPAW     = -100 max onsite density
   LMAXMIX     =    2 max onsite mixed and CHGCAR
   VOSKOWN=      0    Vosko Wilk Nusair interpolation
   ROPT   =   -0.00050
 Ionic relaxation
   EDIFFG = -.1E-01   stopping-criterion for IOM
   NSW    =    100    number of steps for IOM
   NBLOCK =      1;   KBLOCK =    100    inner block; outer block 
   IBRION =      2    ionic relax: 0-MD 1-quasi-New 2-CG
   NFREE  =      1    steps in history (QN), initial steepest desc. (CG)
   ISIF   =      3    stress and relaxation
   IWAVPR =     11    prediction:  0-non 1-charg 2-wave 3-comb
   ISYM   =      2    0-nonsym 1-usesym 2-fastsym
   LCORR  =      T    Harris-Foulkes like correction to forces

   POTIM  = 0.5000    time-step for ionic-motion
   TEIN   =    0.0    initial temperature
   TEBEG  =    0.0;   TEEND  =   0.0 temperature during run
   SMASS  =  -3.00    Nose mass-parameter (am)
   estimated Nose-frequenzy (Omega)   =  0.10E-29 period in steps =****** mass=  -0.244E-26a.u.
   SCALEE = 1.0000    scale energy and forces
   NPACO  =    256;   APACO  = 16.0  distance and # of slots for P.C.
   PSTRESS=    0.0 pullay stress

  Mass of Ions in am
   POMASS =  55.85
  Ionic Valenz
   ZVAL   =   8.00
  Atomic Wigner-Seitz radii
   RWIGS  =  -1.00
  virtual crystal weights 
   VCA    =   1.00
   NELECT =     864.0000    total number of electrons
   NUPDOWN=      -1.0000    fix difference up-down

 DOS related values:
   EMIN   =  10.00;   EMAX   =-10.00  energy-range for DOS
   EFERMI =   0.00
   ISMEAR =     1;   SIGMA  =   0.20  broadening in eV -4-tet -1-fermi 0-gaus

 Electronic relaxation 2 (details)
   IALGO  =     68    algorithm
   LDIAG  =      T    sub-space diagonalisation (order eigenvalues)
   LSUBROT=      F    optimize rotation matrix (better conditioning)
   TURBO    =      0    0=normal 1=particle mesh
   IRESTART =      0    0=no restart 2=restart with 2 vectors
   NREBOOT  =      0    no. of reboots
   NMIN     =      0    reboot dimension
   EREF     =   0.00    reference energy to select bands
   IMIX   =      4    mixing-type and parameters
     AMIX     =   0.40;   BMIX     =  1.00
     AMIX_MAG =   1.60;   BMIX_MAG =  1.00
     AMIN     =   0.10
     WC   =   100.;   INIMIX=   1;  MIXPRE=   1;  MAXMIX= -45

 Intra band minimization:
   WEIMIN = 0.0010     energy-eigenvalue tresh-hold
   EBREAK =  0.48E-09  absolut break condition
   DEPER  =   0.30     relativ break condition  

   TIME   =   0.40     timestep for ELM

  volume/ion in A,a.u.               =      10.22        68.97
  Fermi-wavevector in a.u.,A,eV,Ry     =   1.508720  2.851068 30.970078  2.276236
  Thomas-Fermi vector in A             =   2.619137
 
 Write flags
   LWAVE        =      F    write WAVECAR
   LDOWNSAMPLE  =      F    k-point downsampling of WAVECAR
   LCHARG       =      F    write CHGCAR
   LVTOT        =      F    write LOCPOT, total local potential
   LVHAR        =      F    write LOCPOT, Hartree potential only
   LELF         =      F    write electronic localiz. function (ELF)
   LORBIT       =      0    0 simple, 1 ext, 2 COOP (PROOUT), +10 PAW based schemes


 Dipole corrections
   LMONO  =      F    monopole corrections only (constant potential shift)
   LDIPOL =      F    correct potential (dipole corrections)
   IDIPOL =      0    1-x, 2-y, 3-z, 4-all directions 
   EPSILON=  1.0000000 bulk dielectric constant

 Exchange correlation treatment:
   GGA     =    --    GGA type
   LEXCH   =     8    internal setting for exchange type
   VOSKOWN=      0    Vosko Wilk Nusair interpolation
   LHFCALC =     F    Hartree Fock is set to
   LHFONE  =     F    Hartree Fock one center treatment
   AEXX    =    0.0000 exact exchange contribution

 Linear response parameters
   LEPSILON=     F    determine dielectric tensor
   LRPA    =     F    only Hartree local field effects (RPA)
   LNABLA  =     F    use nabla operator in PAW spheres
   LVEL    =     F    velocity operator in full k-point grid
   LINTERFAST=   F  fast interpolation
   KINTER  =     0    interpolate to denser k-point grid
   CSHIFT  =0.1000    complex shift for real part using Kramers Kronig
   OMEGAMAX=  -1.0    maximum frequency
   DEG_THRESHOLD= 0.2000000E-02 threshold for treating states as degnerate
   RTIME   =   -0.100 relaxation time in fs
  (WPLASMAI=    0.000 imaginary part of plasma frequency in eV, 0.658/RTIME)
   DFIELD  = 0.0000000 0.0000000 0.0000000 field for delta impulse in time
 
 Orbital magnetization related:
   ORBITALMAG=     F  switch on orbital magnetization
   LCHIMAG   =     F  perturbation theory with respect to B field
   DQ        =  0.001000  dq finite difference perturbation B field
   LLRAUG    =     F  two centre corrections for induced B field



--------------------------------------------------------------------------------------------------------


 conjugate gradient relaxation of ions
 charge density and potential will be updated during run
 non-spin polarized calculation
 RMM-DIIS sequential band-by-band and
  variant of blocked Davidson during initial phase
 perform sub-space diagonalisation
    before iterative eigenvector-optimisation
 modified Broyden-mixing scheme, WC =      100.0
 initial mixing is a Kerker type mixing with AMIX =  0.4000 and BMIX =      1.0000
 Hartree-type preconditioning will be used
 using additional bands           86
 real space projection scheme for non local part
 use partial core corrections
 calculate Harris-corrections to forces 
   (improved forces if not selfconsistent)
 use gradient corrections 
 use of overlap-Matrix (Vanderbilt PP)
 Methfessel and Paxton  Order N= 1 SIGMA  =   0.20


--------------------------------------------------------------------------------------------------------


  energy-cutoff  :      750.00
  volume of cell :     1103.86
      direct lattice vectors                 reciprocal lattice vectors
    10.334847047  0.000000000  0.000000000     0.096760019  0.000000000  0.000000000
     0.000000000 10.334847047  0.000000000     0.000000000  0.096760019  0.000000000
     0.000000000  0.000000000 10.334847047     0.000000000  0.000000000  0.096760019

  length of vectors
    10.334847047 10.334847047 10.334847047     0.096760019  0.096760019  0.096760019


 
 k-points in units of 2pi/SCALE and weight: pymatgen generated KPOINTS with grid den
   0.01209500  0.01209500  0.01209500       0.125
   0.03628501  0.01209500  0.01209500       0.375
   0.03628501  0.03628501  0.01209500       0.375
   0.03628501  0.03628501  0.03628501       0.125
 
 k-points in reciprocal lattice and weights: pymatgen generated KPOINTS with grid den
   0.12500000  0.12500000  0.12500000       0.125
   0.37500000  0.12500000  0.12500000       0.375
   0.37500000  0.37500000  0.12500000       0.375
   0.37500000  0.37500000  0.37500000       0.125
 
 position of ions in fractional coordinates (direct lattice) 
   0.00000000  0.00000000  0.00000000
   0.00000000  0.16666893  0.16666893
   0.16666893  0.00000000  0.16666893
   0.16666893  0.16666893  0.00000000
   0.33333106  0.00000000  0.00000000
   0.33333107  0.16666893  0.16666893
   0.50000000  0.00000000  0.16666894
   0.50000000  0.16666894  0.00000000
   0.66666897  0.00000000  0.00000000
   0.66666896  0.16666893  0.16666893
   0.83333104  0.00000000  0.16666893
   0.83333104  0.16666893  0.00000000
   0.00000000  0.33333106  0.00000000
   0.00000000  0.50000000  0.16666894
   0.16666893  0.33333107  0.16666893
   0.16666894  0.50000000  0.00000000
   0.33333107  0.33333107  0.00000000
   0.33333107  0.50000000  0.16666893
   0.50000000  0.33333107  0.16666893
   0.50000000  0.50000000  0.00000000
   0.66666896  0.33333107  0.00000000
   0.66666896  0.50000000  0.16666893
   0.83333104  0.33333107  0.16666893
   0.83333103  0.50000000  0.00000000
   0.00000000  0.66666897  0.00000000
   0.00000000  0.83333104  0.16666893
   0.16666893  0.66666896  0.16666893
   0.16666893  0.83333104  0.00000000
   0.33333107  0.66666896  0.00000000
   0.33333107  0.83333104  0.16666893
   0.50000000  0.66666896  0.16666893
   0.50000000  0.83333103  0.00000000
   0.66666896  0.66666896  0.00000000
   0.66666896  0.83333104  0.16666893
   0.83333104  0.66666896  0.16666893
   0.83333104  0.83333104  0.00000000
   0.00000000  0.00000000  0.33333106
   0.00000000  0.16666894  0.50000000
   0.16666894  0.00000000  0.50000000
   0.16666893  0.16666893  0.33333107
   0.33333107  0.00000000  0.33333107
   0.33333107  0.16666893  0.50000000
   0.50000000  0.00000000  0.50000000
   0.50000000  0.16666893  0.33333107
   0.66666896  0.00000000  0.33333107
   0.66666896  0.16666893  0.50000000
   0.83333103  0.00000000  0.50000000
   0.83333104  0.16666893  0.33333107
   0.00000000  0.33333107  0.33333107
   0.00000000  0.50000000  0.50000000
   0.16666893  0.33333107  0.50000000
   0.16666893  0.50000000  0.33333107
   0.33333107  0.33333107  0.33333107
   0.33333106  0.50000000  0.50000000
   0.50000000  0.33333106  0.50000000
   0.50000000  0.50000000  0.33333106
   0.66666896  0.33333107  0.33333107
   0.66666897  0.50000000  0.50000000
   0.83333104  0.33333107  0.50000000
   0.83333104  0.50000000  0.33333107
   0.00000000  0.66666896  0.33333107
   0.00000000  0.83333103  0.50000000
   0.16666893  0.66666896  0.50000000
   0.16666893  0.83333104  0.33333107
   0.33333107  0.66666896  0.33333107
   0.33333107  0.83333104  0.50000000
   0.50000000  0.66666897  0.50000000
   0.50000000  0.83333104  0.33333107
   0.66666896  0.66666896  0.33333107
   0.66666896  0.83333104  0.50000000
   0.83333104  0.66666896  0.50000000
   0.83333104  0.83333104  0.33333107
   0.00000000  0.00000000  0.66666897
   0.00000000  0.16666893  0.83333104
   0.16666893  0.00000000  0.83333104
   0.16666893  0.16666893  0.66666896
   0.33333107  0.00000000  0.66666896
   0.33333107  0.16666893  0.83333104
   0.50000000  0.00000000  0.83333103
   0.50000000  0.16666893  0.66666896
   0.66666896  0.00000000  0.66666896
   0.66666896  0.16666893  0.83333104
   0.83333104  0.00000000  0.83333104
   0.83333104  0.16666893  0.66666896
   0.00000000  0.33333107  0.66666896
   0.00000000  0.50000000  0.83333103
   0.16666893  0.33333107  0.83333104
   0.16666893  0.50000000  0.66666896
   0.33333107  0.33333107  0.66666896
   0.33333107  0.50000000  0.83333104
   0.50000000  0.33333107  0.83333104
   0.50000000  0.50000000  0.66666897
   0.66666896  0.33333107  0.66666896
   0.66666896  0.50000000  0.83333104
   0.83333104  0.33333107  0.83333104
   0.83333104  0.50000000  0.66666896
   0.00000000  0.66666896  0.66666896
   0.00000000  0.83333104  0.83333104
   0.16666893  0.66666896  0.83333104
   0.16666893  0.83333104  0.66666896
   0.33333107  0.66666896  0.66666896
   0.33333107  0.83333104  0.83333104
   0.50000000  0.66666896  0.83333104
   0.50000000  0.83333104  0.66666896
   0.66666896  0.66666896  0.66666896
   0.66666896  0.83333104  0.83333104
   0.83333104  0.66666896  0.83333104
   0.83333104  0.83333104  0.66666896
 
 position of ions in cartesian coordinates  (Angst):
   0.00000000  0.00000000  0.00000000
   0.00000000  1.72249793  1.72249793
   1.72249793  0.00000000  1.72249793
   1.72249793  1.72249793  0.00000000
   3.44492554  0.00000000  0.00000000
   3.44492559  1.72249794  1.72249794
   5.16742352  0.00000000  1.72249798
   5.16742352  1.72249798  0.00000000
   6.88992180  0.00000000  0.00000000
   6.88992176  1.72249794  1.72249794
   8.61234881  0.00000000  1.72249793
   8.61234881  1.72249793  0.00000000
   0.00000000  3.44492554  0.00000000
   0.00000000  5.16742352  1.72249798
   1.72249794  3.44492559  1.72249794
   1.72249798  5.16742352  0.00000000
   3.44492559  3.44492559  0.00000000
   3.44492559  5.16742352  1.72249793
   5.16742352  3.44492559  1.72249793
   5.16742352  5.16742352  0.00000000
   6.88992176  3.44492559  0.00000000
   6.88992176  5.16742352  1.72249793
   8.61234881  3.44492559  1.72249794
   8.61234877  5.16742352  0.00000000
   0.00000000  6.88992180  0.00000000
   0.00000000  8.61234881  1.72249793
   1.72249794  6.88992176  1.72249794
   1.72249793  8.61234881  0.00000000
   3.44492559  6.88992176  0.00000000
   3.44492559  8.61234881  1.72249794
   5.16742352  6.88992176  1.72249793
   5.16742352  8.61234877  0.00000000
   6.88992176  6.88992176  0.00000000
   6.88992176  8.61234881  1.72249794
   8.61234881  6.88992176  1.72249794
   8.61234881  8.61234881  0.00000000
   0.00000000  0.00000000  3.44492554
   0.00000000  1.72249798  5.16742352
   1.72249798  0.00000000  5.16742352
   1.72249794  1.72249794  3.44492559
   3.44492559  0.00000000  3.44492559
   3.44492559  1.72249793  5.16742352
   5.16742352  0.00000000  5.16742352
   5.16742352  1.72249793  3.44492559
   6.88992176  0.00000000  3.44492559
   6.88992176  1.72249793  5.16742352
   8.61234877  0.00000000  5.16742352
   8.61234881  1.72249794  3.44492559
   0.00000000  3.44492559  3.44492559
   0.00000000  5.16742352  5.16742352
   1.72249793  3.44492559  5.16742352
   1.72249793  5.16742352  3.44492559
   3.44492559  3.44492559  3.44492559
   3.44492554  5.16742352  5.16742352
   5.16742352  3.44492554  5.16742352
   5.16742352  5.16742352  3.44492554
   6.88992176  3.44492559  3.44492559
   6.88992180  5.16742352  5.16742352
   8.61234881  3.44492559  5.16742352
   8.61234881  5.16742352  3.44492559
   0.00000000  6.88992176  3.44492559
   0.00000000  8.61234877  5.16742352
   1.72249793  6.88992176  5.16742352
   1.72249794  8.61234881  3.44492559
   3.44492559  6.88992176  3.44492559
   3.44492559  8.61234881  5.16742352
   5.16742352  6.88992180  5.16742352
   5.16742352  8.61234881  3.44492559
   6.88992176  6.88992176  3.44492559
   6.88992176  8.61234881  5.16742352
   8.61234881  6.88992176  5.16742352
   8.61234881  8.61234881  3.44492559
   0.00000000  0.00000000  6.88992180
   0.00000000  1.72249793  8.61234881
   1.72249793  0.00000000  8.61234881
   1.72249794  1.72249794  6.88992176
   3.44492559  0.00000000  6.88992176
   3.44492559  1.72249794  8.61234881
   5.16742352  0.00000000  8.61234877
   5.16742352  1.72249793  6.88992176
   6.88992176  0.00000000  6.88992176
   6.88992176  1.72249794  8.61234881
   8.61234881  0.00000000  8.61234881
   8.61234881  1.72249794  6.88992176
   0.00000000  3.44492559  6.88992176
   0.00000000  5.16742352  8.61234877
   1.72249794  3.44492559  8.61234881
   1.72249793  5.16742352  6.88992176
   3.44492559  3.44492559  6.88992176
   3.44492559  5.16742352  8.61234881
   5.16742352  3.44492559  8.61234881
   5.16742352  5.16742352  6.88992180
   6.88992176  3.44492559  6.88992176
   6.88992176  5.16742352  8.61234881
   8.61234881  3.44492559  8.61234881
   8.61234881  5.16742352  6.88992176
   0.00000000  6.88992176  6.88992176
   0.00000000  8.61234881  8.61234881
   1.72249794  6.88992176  8.61234881
   1.72249794  8.61234881  6.88992176
   3.44492559  6.88992176  6.88992176
   3.44492559  8.61234881  8.61234881
   5.16742352  6.88992176  8.61234881
   5.16742352  8.61234881  6.88992176
   6.88992176  6.88992176  6.88992176
   6.88992176  8.61234881  8.61234881
   8.61234881  6.88992176  8.61234881
   8.61234881  8.61234881  6.88992176
 


--------------------------------------------------------------------------------------------------------


 k-point  1 :   0.1250 0.1250 0.1250  plane waves:   51510
 k-point  2 :   0.3750 0.1250 0.1250  plane waves:   51465
 k-point  3 :   0.3750 0.3750 0.1250  plane waves:   51496
 k-point  4 :   0.3750 0.3750 0.3750  plane waves:   51512

 maximum and minimum number of plane-waves per node :     12887    12841

 maximum number of plane-waves:     51512
 maximum index in each direction: 
   IXMAX=   22   IYMAX=   22   IZMAX=   22
   IXMIN=  -23   IYMIN=  -23   IZMIN=  -23


 real space projection operators:
  total allocation   :      47369.81 KBytes
  max/ min on nodes  :      12286.69      11679.19


 parallel 3D FFT for wavefunctions:
    minimum data exchange during FFTs selected (reduces bandwidth)
 parallel 3D FFT for charge:
    minimum data exchange during FFTs selected (reduces bandwidth)


 total amount of memory used by VASP MPI-rank0   310509. kBytes
=======================================================================

   base      :      30000. kBytes
   nonlr-proj:      21024. kBytes
   fftplans  :      15544. kBytes
   grid      :      21835. kBytes
   one-center:        419. kBytes
   wavefun   :     221687. kBytes
 
     INWAV:  cpu time    0.0000: real time    0.0001
 Broyden mixing: mesh for mixing (old mesh)
   NGX = 47   NGY = 47   NGZ = 47
  (NGX  =144   NGY  =144   NGZ  =144)
  gives a total of 103823 points

 initial charge density was supplied:
 charge density of overlapping atoms calculated
 number of electron     864.0000000 magnetization 
 keeping initial charge density in first step


--------------------------------------------------------------------------------------------------------


 Maximum index for non-local projection operator          809
 Maximum index for augmentation-charges         1463 (set IRDMAX)


--------------------------------------------------------------------------------------------------------


 First call to EWALD:  gamma=   0.172
 Maximum number of real-space cells 3x 3x 3
 Maximum number of reciprocal cells 3x 3x 3

    FEWALD:  cpu time    0.0110: real time    0.0111


--------------------------------------- Iteration      1(   1)  ---------------------------------------


    POTLOK:  cpu time    0.2625: real time    0.2632
    SETDIJ:  cpu time    0.0527: real time    0.0527
     EDDAV:  cpu time   58.6466: real time   58.6924
       DOS:  cpu time    0.0037: real time    0.0037
    --------------------------------------------
      LOOP:  cpu time   58.9656: real time   59.0120

 eigenvalue-minimisations  :  4144
 total energy-change (2. order) : 0.1004853E+05  (-0.4371668E+05)
 number of electron     864.0000000 magnetization 
 augmentation part      864.0000000 magnetization 

 Free energy of the ion-electron system (eV)
  ---------------------------------------------------
  alpha Z        PSCENC =      7300.31925852
  Ewald energy   TEWEN  =    -66232.83996889
  -Hartree energ DENC   =    -11197.02572337
  -exchange      EXHF   =         0.00000000
  -V(xc)+E(xc)   XCENC  =       446.63038354
  PAW double counting   =     51723.88885462   -52548.28121372
  entropy T*S    EENTRO =         0.02257041
  eigenvalues    EBANDS =     16353.25021594
  atomic energy  EATOM  =     64202.56451209
  Solvation  Ediel_sol  =         0.00000000
  ---------------------------------------------------
  free energy    TOTEN  =     10048.52888916 eV

  energy without entropy =    10048.50631874  energy(sigma->0) =    10048.52136568


--------------------------------------------------------------------------------------------------------




--------------------------------------- Iteration      1(   2)  ---------------------------------------


     EDDAV:  cpu time   58.1486: real time   58.1826
       DOS:  cpu time    0.0059: real time    0.0059
    --------------------------------------------
      LOOP:  cpu time   58.1544: real time   58.1885

 eigenvalue-minimisations  :  4144
 total energy-change (2. order) :-0.9619023E+04  (-0.9476460E+04)
 number of electron     864.0000000 magnetization 
 augmentation part      864.0000000 magnetization 

 Free energy of the ion-electron system (eV)
  ---------------------------------------------------
  alpha Z        PSCENC =      7300.31925852
  Ewald energy   TEWEN  =    -66232.83996889
  -Hartree energ DENC   =    -11197.02572337
  -exchange      EXHF   =         0.00000000
  -V(xc)+E(xc)   XCENC  =       446.63038354
  PAW double counting   =     51723.88885462   -52548.28121372
  entropy T*S    EENTRO =        -0.00444788
  eigenvalues    EBANDS =      6734.25430601
  atomic energy  EATOM  =     64202.56451209
  Solvation  Ediel_sol  =         0.00000000
  ---------------------------------------------------
  free energy    TOTEN  =       429.50596093 eV

  energy without entropy =      429.51040881  energy(sigma->0) =      429.50744356


--------------------------------------------------------------------------------------------------------




--------------------------------------- Iteration      1(   3)  ---------------------------------------


     EDDAV:  cpu time   58.3196: real time   58.3300
       DOS:  cpu time    0.0071: real time    0.0071
    --------------------------------------------
      LOOP:  cpu time   58.3267: real time   58.3371

 eigenvalue-minimisations  :  4144
 total energy-change (2. order) :-0.1236027E+04  (-0.1061687E+04)
 number of electron     864.0000000 magnetization 
 augmentation part      864.0000000 magnetization 

 Free energy of the ion-electron system (eV)
  ---------------------------------------------------
  alpha Z        PSCENC =      7300.31925852
  Ewald energy   TEWEN  =    -66232.83996889
  -Hartree energ DENC   =    -11197.02572337
  -exchange      EXHF   =         0.00000000
  -V(xc)+E(xc)   XCENC  =       446.63038354
  PAW double counting   =     51723.88885462   -52548.28121372
  entropy T*S    EENTRO =         0.03155873
  eigenvalues    EBANDS =      5498.19170333
  atomic energy  EATOM  =     64202.56451209
  Solvation  Ediel_sol  =         0.00000000
  ---------------------------------------------------
  free energy    TOTEN  =      -806.52063514 eV

  energy without entropy =     -806.55219387  energy(sigma->0) =     -806.53115472


--------------------------------------------------------------------------------------------------------




--------------------------------------- Iteration      1(   4)  ---------------------------------------


     EDDAV:  cpu time   93.6800: real time   93.7295
       DOS:  cpu time    0.0073: real time    0.0073
    --------------------------------------------
      LOOP:  cpu time   93.6873: real time   93.7368

 eigenvalue-minimisations  :  7520
 total energy-change (2. order) :-0.2188689E+03  (-0.2057824E+03)
 number of electron     864.0000000 magnetization 
 augmentation part      864.0000000 magnetization 

 Free energy of the ion-electron system (eV)
  ---------------------------------------------------
  alpha Z        PSCENC =      7300.31925852
  Ewald energy   TEWEN  =    -66232.83996889
  -Hartree energ DENC   =    -11197.02572337
  -exchange      EXHF   =         0.00000000
  -V(xc)+E(xc)   XCENC  =       446.63038354
  PAW double counting   =     51723.88885462   -52548.28121372
  entropy T*S    EENTRO =        -0.06205768
  eigenvalues    EBANDS =      5279.41642994
  atomic energy  EATOM  =     64202.56451209
  Solvation  Ediel_sol  =         0.00000000
  ---------------------------------------------------
  free energy    TOTEN  =     -1025.38952495 eV

  energy without entropy =    -1025.32746726  energy(sigma->0) =    -1025.36883905


--------------------------------------------------------------------------------------------------------




--------------------------------------- Iteration      1(   5)  ---------------------------------------


     EDDAV:  cpu time   85.8032: real time   85.8471
       DOS:  cpu time    0.0074: real time    0.0074
    CHARGE:  cpu time    2.6961: real time    2.6975
    MIXING:  cpu time    0.0094: real time    0.0094
    --------------------------------------------
      LOOP:  cpu time   88.5161: real time   88.5613

 eigenvalue-minimisations  :  6704
 total energy-change (2. order) :-0.1973303E+02  (-0.1870165E+02)
 number of electron     864.0000691 magnetization 
 augmentation part      382.8082106 magnetization 

 Broyden mixing:
  rms(total) = 0.93435E+01    rms(broyden)= 0.93434E+01
  rms(prec ) = 0.11648E+02
  weight for this iteration     100.00

 Free energy of the ion-electron system (eV)
  ---------------------------------------------------
  alpha Z        PSCENC =      7300.31925852
  Ewald energy   TEWEN  =    -66232.83996889
  -Hartree energ DENC   =    -11197.02572337
  -exchange      EXHF   =         0.00000000
  -V(xc)+E(xc)   XCENC  =       446.63038354
  PAW double counting   =     51723.88885462   -52548.28121372
  entropy T*S    EENTRO =        -0.10195613
  eigenvalues    EBANDS =      5259.72330166
  atomic energy  EATOM  =     64202.56451209
  Solvation  Ediel_sol  =         0.00000000
  ---------------------------------------------------
  free energy    TOTEN  =     -1045.12255167 eV

  energy without entropy =    -1045.02059554  energy(sigma->0) =    -1045.08856629


--------------------------------------------------------------------------------------------------------




--------------------------------------- Iteration      1(   6)  ---------------------------------------


    POTLOK:  cpu time    0.3018: real time    0.3145
    SETDIJ:  cpu time    0.0509: real time    0.0536
    EDDIAG:  cpu time    8.3625: real time    8.3654
  RMM-DIIS:  cpu time   25.6485: real time   25.6557
    ORTHCH:  cpu time    2.3952: real time    2.3955
       DOS:  cpu time    0.0082: real time    0.0082
    CHARGE:  cpu time    2.7510: real time    2.7642
    MIXING:  cpu time    0.0085: real time    0.0085
    --------------------------------------------
      LOOP:  cpu time   39.5268: real time   39.5656

 eigenvalue-minimisations  :  4144
 total energy-change (2. order) : 0.1680438E+03  (-0.1352683E+03)
 number of electron     864.0000778 magnetization 
 augmentation part      447.5741667 magnetization 

 Broyden mixing:
  rms(total) = 0.88296E+00    rms(broyden)= 0.88291E+00
  rms(prec ) = 0.95491E+00
  weight for this iteration     100.00

 eigenvalues of (default mixing * dielectric matrix)
  average eigenvalue GAMMA=   0.9509
  0.9509

 Free energy of the ion-electron system (eV)
  ---------------------------------------------------
  alpha Z        PSCENC =      7300.31925852
  Ewald energy   TEWEN  =    -66232.83996889
  -Hartree energ DENC   =     -9343.14611172
  -exchange      EXHF   =         0.00000000
  -V(xc)+E(xc)   XCENC  =       355.81392265
  PAW double counting   =     52458.34778566   -53038.45832130
  entropy T*S    EENTRO =        -0.06098188
  eigenvalues    EBANDS =      3420.38118926
  atomic energy  EATOM  =     64202.56451209
  Solvation  Ediel_sol  =         0.00000000
  ---------------------------------------------------
  free energy    TOTEN  =      -877.07871560 eV

  energy without entropy =     -877.01773373  energy(sigma->0) =     -877.05838831


--------------------------------------------------------------------------------------------------------




--------------------------------------- Iteration      1(   7)  ---------------------------------------


    POTLOK:  cpu time    0.3093: real time    0.3094
    SETDIJ:  cpu time    0.0543: real time    0.0543
    EDDIAG:  cpu time    8.4013: real time    8.4022
  RMM-DIIS:  cpu time   27.9330: real time   27.9444
    ORTHCH:  cpu time    2.4130: real time    2.4133
       DOS:  cpu time    0.0082: real time    0.0082
    CHARGE:  cpu time    2.8088: real time    2.8090
    MIXING:  cpu time    0.0100: real time    0.0100
    --------------------------------------------
      LOOP:  cpu time   41.9378: real time   41.9508

 eigenvalue-minimisations  :  4540
 total energy-change (2. order) :-0.3165696E+01  (-0.1118482E+02)
 number of electron     864.0000753 magnetization 
 augmentation part      447.0439622 magnetization 

 Broyden mixing:
  rms(total) = 0.47140E+00    rms(broyden)= 0.47140E+00
  rms(prec ) = 0.59449E+00
  weight for this iteration     100.00

 eigenvalues of (default mixing * dielectric matrix)
  average eigenvalue GAMMA=   0.9536
  0.9536  0.9536

 Free energy of the ion-electron system (eV)
  ---------------------------------------------------
  alpha Z        PSCENC =      7300.31925852
  Ewald energy   TEWEN  =    -66232.83996889
  -Hartree energ DENC   =     -9379.75991891
  -exchange      EXHF   =         0.00000000
  -V(xc)+E(xc)   XCENC  =       359.98415495
  PAW double counting   =     54337.70386323   -55113.83058051
  entropy T*S    EENTRO =        -0.14882568
  eigenvalues    EBANDS =      3645.76309367
  atomic energy  EATOM  =     64202.56451209
  Solvation  Ediel_sol  =         0.00000000
  ---------------------------------------------------
  free energy    TOTEN  =      -880.24441152 eV

  energy without entropy =     -880.09558584  energy(sigma->0) =     -880.19480296


--------------------------------------------------------------------------------------------------------




--------------------------------------- Iteration      1(   8)  ---------------------------------------


    POTLOK:  cpu time    0.3049: real time    0.3051
    SETDIJ:  cpu time    0.0561: real time    0.0561
    EDDIAG:  cpu time    8.3992: real time    8.4001
  RMM-DIIS:  cpu time   28.2750: real time   28.2967
    ORTHCH:  cpu time    2.4311: real time    2.4334
       DOS:  cpu time    0.0084: real time    0.0084
    CHARGE:  cpu time    2.8121: real time    2.8124
    MIXING:  cpu time    0.0098: real time    0.0098
    --------------------------------------------
      LOOP:  cpu time   42.2966: real time   42.3221

 eigenvalue-minimisations  :  4596
 total energy-change (2. order) :-0.1608137E+01  (-0.1840393E+01)
 number of electron     864.0000752 magnetization 
 augmentation part      445.1914443 magnetization 

 Broyden mixing:
  rms(total) = 0.19156E+01    rms(broyden)= 0.19156E+01
  rms(prec ) = 0.26808E+01
  weight for this iteration     100.00

 eigenvalues of (default mixing * dielectric matrix)
  average eigenvalue GAMMA=   0.7756
  1.1034  1.1034  0.1199

 Free energy of the ion-electron system (eV)
  ---------------------------------------------------
  alpha Z        PSCENC =      7300.31925852
  Ewald energy   TEWEN  =    -66232.83996889
  -Hartree energ DENC   =     -9404.24689085
  -exchange      EXHF   =         0.00000000
  -V(xc)+E(xc)   XCENC  =       361.86188031
  PAW double counting   =     55481.75923590   -56327.00559234
  entropy T*S    EENTRO =        -0.15676107
  eigenvalues    EBANDS =      3735.89177775
  atomic energy  EATOM  =     64202.56451209
  Solvation  Ediel_sol  =         0.00000000
  ---------------------------------------------------
  free energy    TOTEN  =      -881.85254856 eV

  energy without entropy =     -881.69578749  energy(sigma->0) =     -881.80029487


--------------------------------------------------------------------------------------------------------




--------------------------------------- Iteration      1(   9)  ---------------------------------------


    POTLOK:  cpu time    0.3102: real time    0.3106
    SETDIJ:  cpu time    0.0547: real time    0.0547
    EDDIAG:  cpu time    8.1624: real time    8.1638
  RMM-DIIS:  cpu time   27.2841: real time   27.2912
    ORTHCH:  cpu time    2.3733: real time    2.3736
       DOS:  cpu time    0.0082: real time    0.0082
    CHARGE:  cpu time    2.5235: real time    2.5238
    MIXING:  cpu time    0.0093: real time    0.0093
    --------------------------------------------
      LOOP:  cpu time   40.7256: real time   40.7350

 eigenvalue-minimisations  :  4445
 total energy-change (2. order) : 0.2343006E+01  (-0.5349969E+00)
 number of electron     864.0000750 magnetization 
 augmentation part      443.5720495 magnetization 

 Broyden mixing:
  rms(total) = 0.27262E+00    rms(broyden)= 0.27260E+00
  rms(prec ) = 0.34031E+00
  weight for this iteration     100.00

 eigenvalues of (default mixing * dielectric matrix)
  average eigenvalue GAMMA=   1.1291
  2.3352  1.0291  1.0291  0.1230

 Free energy of the ion-electron system (eV)
  ---------------------------------------------------
  alpha Z        PSCENC =      7300.31925852
  Ewald energy   TEWEN  =    -66232.83996889
  -Hartree energ DENC   =     -9414.86434056
  -exchange      EXHF   =         0.00000000
  -V(xc)+E(xc)   XCENC  =       362.82247230
  PAW double counting   =     56261.36586591   -57150.82373766
  entropy T*S    EENTRO =        -0.07094520
  eigenvalues    EBANDS =      3792.01734133
  atomic energy  EATOM  =     64202.56451209
  Solvation  Ediel_sol  =         0.00000000
  ---------------------------------------------------
  free energy    TOTEN  =      -879.50954215 eV

  energy without entropy =     -879.43859695  energy(sigma->0) =     -879.48589375


--------------------------------------------------------------------------------------------------------




--------------------------------------- Iteration      1(  10)  ---------------------------------------


    POTLOK:  cpu time    0.2786: real time    0.2790
    SETDIJ:  cpu time    0.0539: real time    0.0539
    EDDIAG:  cpu time    8.1261: real time    8.1272
  RMM-DIIS:  cpu time   35.9085: real time   35.9296
    ORTHCH:  cpu time    2.4009: real time    2.4011
       DOS:  cpu time    0.0082: real time    0.0082
    CHARGE:  cpu time    2.7130: real time    2.7199
    MIXING:  cpu time    0.0105: real time    0.0105
    --------------------------------------------
      LOOP:  cpu time   49.4997: real time   49.5293

 eigenvalue-minimisations  :  5972
 total energy-change (2. order) :-0.2375068E-01  (-0.3626922E+00)
 number of electron     864.0000752 magnetization 
 augmentation part      444.8626905 magnetization 

 Broyden mixing:
  rms(total) = 0.25547E+00    rms(broyden)= 0.25547E+00
  rms(prec ) = 0.35741E+00
  weight for this iteration     100.00

 eigenvalues of (default mixing * dielectric matrix)
  average eigenvalue GAMMA=   1.0861
  2.5404  1.0646  1.0646  0.6372  0.1239

 Free energy of the ion-electron system (eV)
  ---------------------------------------------------
  alpha Z        PSCENC =      7300.31925852
  Ewald energy   TEWEN  =    -66232.83996889
  -Hartree energ DENC   =     -9339.62787411
  -exchange      EXHF   =         0.00000000
  -V(xc)+E(xc)   XCENC  =       359.77740446
  PAW double counting   =     57706.65458229   -58641.54257146
  entropy T*S    EENTRO =        -0.08376660
  eigenvalues    EBANDS =      3765.24513086
  atomic energy  EATOM  =     64202.56451209
  Solvation  Ediel_sol  =         0.00000000
  ---------------------------------------------------
  free energy    TOTEN  =      -879.53329284 eV

  energy without entropy =     -879.44952624  energy(sigma->0) =     -879.50537064


--------------------------------------------------------------------------------------------------------




--------------------------------------- Iteration      1(  11)  ---------------------------------------


    POTLOK:  cpu time    0.2805: real time    0.2809
    SETDIJ:  cpu time    0.0535: real time    0.0535
    EDDIAG:  cpu time    7.6214: real time    7.6335
  RMM-DIIS:  cpu time   31.2690: real time   31.2755
    ORTHCH:  cpu time    2.3638: real time    2.3640
       DOS:  cpu time    0.0082: real time    0.0082
    CHARGE:  cpu time    2.6230: real time    2.6233
    MIXING:  cpu time    0.0109: real time    0.0109
    --------------------------------------------
      LOOP:  cpu time   44.2304: real time   44.2498

 eigenvalue-minimisations  :  5353
 total energy-change (2. order) : 0.6191692E-02  (-0.2546360E-01)
 number of electron     864.0000752 magnetization 
 augmentation part      444.8791909 magnetization 

 Broyden mixing:
  rms(total) = 0.80088E-01    rms(broyden)= 0.80088E-01
  rms(prec ) = 0.10825E+00
  weight for this iteration     100.00

 eigenvalues of (default mixing * dielectric matrix)
  average eigenvalue GAMMA=   1.1727
  2.6093  1.4322  1.0313  0.9197  0.9197  0.1238

 Free energy of the ion-electron system (eV)
  ---------------------------------------------------
  alpha Z        PSCENC =      7300.31925852
  Ewald energy   TEWEN  =    -66232.83996889
  -Hartree energ DENC   =     -9336.86383385
  -exchange      EXHF   =         0.00000000
  -V(xc)+E(xc)   XCENC  =       359.70641608
  PAW double counting   =     57966.08547829   -58905.88247994
  entropy T*S    EENTRO =        -0.08069048
  eigenvalues    EBANDS =      3767.46420702
  atomic energy  EATOM  =     64202.56451209
  Solvation  Ediel_sol  =         0.00000000
  ---------------------------------------------------
  free energy    TOTEN  =      -879.52710114 eV

  energy without entropy =     -879.44641066  energy(sigma->0) =     -879.50020432


--------------------------------------------------------------------------------------------------------




--------------------------------------- Iteration      1(  12)  ---------------------------------------


    POTLOK:  cpu time    0.2886: real time    0.2896
    SETDIJ:  cpu time    0.0540: real time    0.0540
    EDDIAG:  cpu time    7.9373: real time    7.9382
  RMM-DIIS:  cpu time   29.9385: real time   29.9762
    ORTHCH:  cpu time    2.4253: real time    2.4256
       DOS:  cpu time    0.0082: real time    0.0082
    CHARGE:  cpu time    2.7739: real time    2.7743
    MIXING:  cpu time    0.0119: real time    0.0119
    --------------------------------------------
      LOOP:  cpu time   43.4378: real time   43.4780

 eigenvalue-minimisations  :  5284
 total energy-change (2. order) :-0.1043355E-02  (-0.6969630E-02)
 number of electron     864.0000752 magnetization 
 augmentation part      444.7235838 magnetization 

 Broyden mixing:
  rms(total) = 0.30588E-01    rms(broyden)= 0.30588E-01
  rms(prec ) = 0.41210E-01
  weight for this iteration     100.00

 eigenvalues of (default mixing * dielectric matrix)
  average eigenvalue GAMMA=   1.2935
  2.5260  2.3395  1.0692  1.0692  0.9635  0.9635  0.1238

 Free energy of the ion-electron system (eV)
  ---------------------------------------------------
  alpha Z        PSCENC =      7300.31925852
  Ewald energy   TEWEN  =    -66232.83996889
  -Hartree energ DENC   =     -9344.24899520
  -exchange      EXHF   =         0.00000000
  -V(xc)+E(xc)   XCENC  =       360.03958176
  PAW double counting   =     58041.42026593   -58978.82325254
  entropy T*S    EENTRO =        -0.07799140
  eigenvalues    EBANDS =      3772.11844522
  atomic energy  EATOM  =     64202.56451209
  Solvation  Ediel_sol  =         0.00000000
  ---------------------------------------------------
  free energy    TOTEN  =      -879.52814450 eV

  energy without entropy =     -879.45015310  energy(sigma->0) =     -879.50214737


--------------------------------------------------------------------------------------------------------




--------------------------------------- Iteration      1(  13)  ---------------------------------------


    POTLOK:  cpu time    0.3113: real time    0.3115
    SETDIJ:  cpu time    0.0539: real time    0.0539
    EDDIAG:  cpu time    8.0107: real time    8.0185
  RMM-DIIS:  cpu time   31.6870: real time   31.7105
    ORTHCH:  cpu time    2.4164: real time    2.4166
       DOS:  cpu time    0.0085: real time    0.0085
    CHARGE:  cpu time    2.5522: real time    2.5525
    MIXING:  cpu time    0.0132: real time    0.0132
    --------------------------------------------
      LOOP:  cpu time   45.0532: real time   45.0853

 eigenvalue-minimisations  :  5073
 total energy-change (2. order) : 0.3231330E-03  (-0.1527172E-02)
 number of electron     864.0000752 magnetization 
 augmentation part      444.5891648 magnetization 

 Broyden mixing:
  rms(total) = 0.10749E-01    rms(broyden)= 0.10749E-01
  rms(prec ) = 0.14914E-01
  weight for this iteration     100.00

 eigenvalues of (default mixing * dielectric matrix)
  average eigenvalue GAMMA=   1.2642
  2.5647  2.2808  0.1238  1.4028  0.9696  0.9696  0.9012  0.9012

 Free energy of the ion-electron system (eV)
  ---------------------------------------------------
  alpha Z        PSCENC =      7300.31925852
  Ewald energy   TEWEN  =    -66232.83996889
  -Hartree energ DENC   =     -9349.99065814
  -exchange      EXHF   =         0.00000000
  -V(xc)+E(xc)   XCENC  =       360.29485654
  PAW double counting   =     58045.71828742   -58980.91823434
  entropy T*S    EENTRO =        -0.07616988
  eigenvalues    EBANDS =      3775.40029531
  atomic energy  EATOM  =     64202.56451209
  Solvation  Ediel_sol  =         0.00000000
  ---------------------------------------------------
  free energy    TOTEN  =      -879.52782137 eV

  energy without entropy =     -879.45165149  energy(sigma->0) =     -879.50243141


--------------------------------------------------------------------------------------------------------




--------------------------------------- Iteration      1(  14)  ---------------------------------------


    POTLOK:  cpu time    0.2926: real time    0.2930
    SETDIJ:  cpu time    0.0535: real time    0.0535
    EDDIAG:  cpu time    8.1964: real time    8.2040
  RMM-DIIS:  cpu time   37.1618: real time   37.1730
    ORTHCH:  cpu time    2.4275: real time    2.4278
       DOS:  cpu time    0.0082: real time    0.0082
    CHARGE:  cpu time    2.7699: real time    2.7702
    MIXING:  cpu time    0.0129: real time    0.0129
    --------------------------------------------
      LOOP:  cpu time   50.9228: real time   50.9424

 eigenvalue-minimisations  :  6124
 total energy-change (2. order) :-0.2542867E-03  (-0.3562025E-03)
 number of electron     864.0000752 magnetization 
 augmentation part      444.5792525 magnetization 

 Broyden mixing:
  rms(total) = 0.31263E-02    rms(broyden)= 0.31263E-02
  rms(prec ) = 0.40339E-02
  weight for this iteration     100.00

 eigenvalues of (default mixing * dielectric matrix)
  average eigenvalue GAMMA=   1.3038
  2.6525  2.0934  2.0934  0.1238  1.0298  1.0298  0.9440  0.9440  0.8239

 Free energy of the ion-electron system (eV)
  ---------------------------------------------------
  alpha Z        PSCENC =      7300.31925852
  Ewald energy   TEWEN  =    -66232.83996889
  -Hartree energ DENC   =     -9349.92436728
  -exchange      EXHF   =         0.00000000
  -V(xc)+E(xc)   XCENC  =       360.29297006
  PAW double counting   =     58044.09165911   -58979.10428967
  entropy T*S    EENTRO =        -0.07558333
  eigenvalues    EBANDS =      3775.14773373
  atomic energy  EATOM  =     64202.56451209
  Solvation  Ediel_sol  =         0.00000000
  ---------------------------------------------------
  free energy    TOTEN  =      -879.52807565 eV

  energy without entropy =     -879.45249233  energy(sigma->0) =     -879.50288121


--------------------------------------------------------------------------------------------------------




--------------------------------------- Iteration      1(  15)  ---------------------------------------


    POTLOK:  cpu time    0.3031: real time    0.3038
    SETDIJ:  cpu time    0.0543: real time    0.0543
    EDDIAG:  cpu time    8.2976: real time    8.3105
  RMM-DIIS:  cpu time   29.9617: real time   29.9676
    ORTHCH:  cpu time    2.4265: real time    2.4267
       DOS:  cpu time    0.0083: real time    0.0083
    CHARGE:  cpu time    2.7548: real time    2.7551
    MIXING:  cpu time    0.0142: real time    0.0142
    --------------------------------------------
      LOOP:  cpu time   43.8204: real time   43.8405

 eigenvalue-minimisations  :  4880
 total energy-change (2. order) : 0.1987536E-04  ( 0.2345964E-04)
 number of electron     864.0000752 magnetization 
 augmentation part      444.6007680 magnetization 

 Broyden mixing:
  rms(total) = 0.97324E-03    rms(broyden)= 0.97323E-03
  rms(prec ) = 0.12069E-02
  weight for this iteration     100.00

 eigenvalues of (default mixing * dielectric matrix)
  average eigenvalue GAMMA=   1.3722
  2.7470  2.6279  1.7256  1.7256  0.1238  1.0264  1.0264  0.9208  0.8994  0.8994

 Free energy of the ion-electron system (eV)
  ---------------------------------------------------
  alpha Z        PSCENC =      7300.31925852
  Ewald energy   TEWEN  =    -66232.83996889
  -Hartree energ DENC   =     -9349.11154555
  -exchange      EXHF   =         0.00000000
  -V(xc)+E(xc)   XCENC  =       360.25856254
  PAW double counting   =     58042.85701642   -58978.04571696
  entropy T*S    EENTRO =        -0.07511757
  eigenvalues    EBANDS =      3774.54494363
  atomic energy  EATOM  =     64202.56451209
  Solvation  Ediel_sol  =         0.00000000
  ---------------------------------------------------
  free energy    TOTEN  =      -879.52805578 eV

  energy without entropy =     -879.45293821  energy(sigma->0) =     -879.50301659


--------------------------------------------------------------------------------------------------------




--------------------------------------- Iteration      1(  16)  ---------------------------------------


    POTLOK:  cpu time    0.3032: real time    0.3035
    SETDIJ:  cpu time    0.0547: real time    0.0547
    EDDIAG:  cpu time    8.2411: real time    8.2425
  RMM-DIIS:  cpu time   35.6450: real time   35.6579
    ORTHCH:  cpu time    2.4190: real time    2.4193
       DOS:  cpu time    0.0082: real time    0.0082
    CHARGE:  cpu time    2.7616: real time    2.7619
    MIXING:  cpu time    0.0145: real time    0.0145
    --------------------------------------------
      LOOP:  cpu time   49.4472: real time   49.4624

 eigenvalue-minimisations  :  5864
 total energy-change (2. order) : 0.5685601E-04  ( 0.2319768E-04)
 number of electron     864.0000752 magnetization 
 augmentation part      444.5993058 magnetization 

 Broyden mixing:
  rms(total) = 0.98095E-03    rms(broyden)= 0.98095E-03
  rms(prec ) = 0.13758E-02
  weight for this iteration     100.00

 eigenvalues of (default mixing * dielectric matrix)
  average eigenvalue GAMMA=   1.3510
  2.6604  2.5585  1.9489  0.1238  1.6877  1.0476  1.0476  1.1181  0.9001  0.9001
  0.8683

 Free energy of the ion-electron system (eV)
  ---------------------------------------------------
  alpha Z        PSCENC =      7300.31925852
  Ewald energy   TEWEN  =    -66232.83996889
  -Hartree energ DENC   =     -9349.39267787
  -exchange      EXHF   =         0.00000000
  -V(xc)+E(xc)   XCENC  =       360.27253281
  PAW double counting   =     58040.69956002   -58975.72762545
  entropy T*S    EENTRO =        -0.07465783
  eigenvalues    EBANDS =      3774.65106768
  atomic energy  EATOM  =     64202.56451209
  Solvation  Ediel_sol  =         0.00000000
  ---------------------------------------------------
  free energy    TOTEN  =      -879.52799892 eV

  energy without entropy =     -879.45334109  energy(sigma->0) =     -879.50311298


--------------------------------------------------------------------------------------------------------




--------------------------------------- Iteration      1(  17)  ---------------------------------------


    POTLOK:  cpu time    0.3035: real time    0.3046
    SETDIJ:  cpu time    0.0541: real time    0.0541
    EDDIAG:  cpu time    7.9895: real time    7.9907
  RMM-DIIS:  cpu time   22.6144: real time   22.6219
    ORTHCH:  cpu time    2.4255: real time    2.4258
       DOS:  cpu time    0.0083: real time    0.0083
    CHARGE:  cpu time    2.7662: real time    2.7664
    MIXING:  cpu time    0.0153: real time    0.0154
    --------------------------------------------
      LOOP:  cpu time   36.1768: real time   36.1871

 eigenvalue-minimisations  :  3514
[...]
   0.104E-01 0.103E-01 0.143E-04   -.205E-01 -.202E-01 -.277E-04   -.134E-20 -.632E-20 -.932E-20   -.774E-07 -.667E-07 -.772E-08
   -.105E-01 -.142E-04 0.142E-04   0.205E-01 0.277E-04 -.277E-04   0.283E-25 0.212E-20 -.208E-19   0.747E-07 0.774E-08 -.772E-08
   -.105E-01 0.103E-01 -.103E-01   0.205E-01 -.202E-01 0.202E-01   0.615E-25 0.380E-20 -.127E-20   0.746E-07 -.668E-07 0.696E-07
   -.142E-04 -.103E-01 -.103E-01   0.277E-04 0.202E-01 0.202E-01   0.169E-20 0.148E-19 0.762E-20   0.775E-08 0.652E-07 0.652E-07
   -.142E-04 0.142E-04 0.142E-04   0.277E-04 -.277E-04 -.277E-04   -.847E-21 -.805E-20 0.296E-20   0.774E-08 -.772E-08 -.772E-08
   0.103E-01 -.103E-01 0.142E-04   -.202E-01 0.202E-01 -.277E-04   0.672E-24 -.974E-20 0.974E-20   -.667E-07 0.695E-07 -.772E-08
   0.103E-01 0.142E-04 -.103E-01   -.202E-01 -.277E-04 0.202E-01   0.498E-22 0.140E-19 0.178E-19   -.667E-07 -.772E-08 0.695E-07
   -.103E-01 -.103E-01 -.103E-01   0.202E-01 0.202E-01 0.202E-01   -.307E-25 -.339E-20 -.254E-20   0.653E-07 0.653E-07 0.653E-07
   -.103E-01 0.142E-04 0.142E-04   0.202E-01 -.277E-04 -.277E-04   0.295E-25 0.551E-20 0.136E-19   0.697E-07 -.772E-08 -.772E-08
   0.142E-04 -.103E-01 0.142E-04   -.277E-04 0.202E-01 -.277E-04   0.847E-21 -.508E-20 -.191E-19   -.772E-08 0.697E-07 -.772E-08
   0.142E-04 0.142E-04 -.103E-01   -.277E-04 -.277E-04 0.202E-01   0.156E-24 -.424E-20 -.254E-20   -.772E-08 -.772E-08 0.697E-07
   0.105E-01 -.103E-01 -.103E-01   -.205E-01 0.202E-01 0.202E-01   0.107E-20 0.296E-20 -.254E-20   -.730E-07 0.653E-07 0.653E-07
   0.105E-01 0.142E-04 0.143E-04   -.205E-01 -.277E-04 -.277E-04   0.761E-22 0.762E-20 -.233E-19   -.776E-07 -.772E-08 -.772E-08
   -.104E-01 -.103E-01 0.142E-04   0.205E-01 0.202E-01 -.277E-04   -.156E-24 0.127E-20 -.237E-19   0.745E-07 0.695E-07 -.772E-08
   -.104E-01 0.142E-04 -.103E-01   0.205E-01 -.277E-04 0.202E-01   0.154E-24 0.212E-20 0.762E-20   0.745E-07 -.772E-08 0.695E-07
   -.142E-04 0.104E-01 -.103E-01   0.277E-04 -.205E-01 0.202E-01   -.169E-20 0.960E-20 -.424E-20   0.775E-08 -.730E-07 0.652E-07
   -.142E-04 -.105E-01 0.142E-04   0.277E-04 0.205E-01 -.277E-04   0.847E-21 -.296E-20 -.284E-19   0.774E-08 0.747E-07 -.772E-08
   0.103E-01 0.104E-01 0.143E-04   -.202E-01 -.205E-01 -.277E-04   0.144E-20 -.437E-21 0.263E-19   -.667E-07 -.774E-07 -.772E-08
   0.103E-01 -.105E-01 -.103E-01   -.202E-01 0.205E-01 0.202E-01   0.297E-22 -.296E-20 -.233E-19   -.668E-07 0.746E-07 0.696E-07
   -.103E-01 0.105E-01 -.103E-01   0.202E-01 -.205E-01 0.202E-01   0.622E-25 0.193E-19 -.144E-19   0.653E-07 -.730E-07 0.653E-07
   -.103E-01 -.104E-01 0.142E-04   0.202E-01 0.205E-01 -.277E-04   -.154E-24 0.169E-20 0.110E-19   0.695E-07 0.745E-07 -.772E-08
   0.142E-04 0.105E-01 0.143E-04   -.277E-04 -.205E-01 -.277E-04   0.423E-21 -.255E-20 0.330E-19   -.772E-08 -.776E-07 -.772E-08
   0.142E-04 -.104E-01 -.103E-01   -.277E-04 0.205E-01 0.202E-01   0.127E-20 -.466E-20 0.174E-19   -.772E-08 0.745E-07 0.695E-07
   0.105E-01 0.105E-01 -.103E-01   -.205E-01 -.205E-01 0.202E-01   0.516E-21 -.354E-20 -.762E-20   -.730E-07 -.730E-07 0.653E-07
   0.104E-01 -.104E-01 0.142E-04   -.205E-01 0.205E-01 -.277E-04   -.280E-21 -.635E-20 0.889E-20   -.774E-07 0.745E-07 -.772E-08
   -.104E-01 0.104E-01 0.142E-04   0.205E-01 -.205E-01 -.277E-04   -.627E-25 -.255E-20 0.483E-19   0.745E-07 -.774E-07 -.772E-08
   -.105E-01 -.105E-01 -.103E-01   0.205E-01 0.205E-01 0.202E-01   -.295E-25 -.508E-20 -.296E-19   0.746E-07 0.746E-07 0.696E-07
   -.142E-04 -.142E-04 0.105E-01   0.277E-04 0.277E-04 -.205E-01   0.916E-25 -.136E-19 -.148E-20   0.775E-08 0.775E-08 -.731E-07
   -.142E-04 0.103E-01 -.104E-01   0.277E-04 -.202E-01 0.205E-01   -.423E-21 0.255E-20 0.110E-19   0.774E-08 -.667E-07 0.745E-07
   0.103E-01 -.142E-04 -.104E-01   -.202E-01 0.277E-04 0.205E-01   0.614E-21 0.635E-20 0.275E-19   -.667E-07 0.774E-08 0.745E-07
   0.103E-01 0.103E-01 0.105E-01   -.202E-01 -.202E-01 -.205E-01   0.394E-21 -.263E-20 0.145E-20   -.668E-07 -.668E-07 -.775E-07
   -.103E-01 -.142E-04 0.104E-01   0.202E-01 0.277E-04 -.205E-01   0.904E-25 -.593E-20 0.911E-20   0.652E-07 0.775E-08 -.730E-07
   -.103E-01 0.103E-01 -.105E-01   0.202E-01 -.202E-01 0.205E-01   0.606E-25 -.126E-20 0.144E-19   0.696E-07 -.668E-07 0.746E-07
   0.142E-04 -.142E-04 -.105E-01   -.277E-04 0.277E-04 0.205E-01   0.424E-21 -.102E-19 0.237E-19   -.772E-08 0.774E-08 0.747E-07
   0.142E-04 0.103E-01 0.104E-01   -.277E-04 -.202E-01 -.205E-01   -.468E-28 0.966E-20 0.102E-20   -.772E-08 -.667E-07 -.774E-07
   0.104E-01 -.142E-04 0.104E-01   -.205E-01 0.277E-04 -.205E-01   0.975E-21 0.169E-20 0.159E-19   -.730E-07 0.775E-08 -.730E-07
   0.105E-01 0.103E-01 -.105E-01   -.205E-01 -.202E-01 0.205E-01   0.161E-20 0.134E-22 0.212E-19   -.775E-07 -.668E-07 0.746E-07
   -.104E-01 -.142E-04 -.104E-01   0.205E-01 0.277E-04 0.205E-01   0.152E-24 0.635E-20 0.470E-19   0.745E-07 0.774E-08 0.745E-07
   -.105E-01 0.103E-01 0.105E-01   0.205E-01 -.202E-01 -.205E-01   -.128E-26 0.923E-20 -.125E-19   0.746E-07 -.668E-07 -.775E-07
   -.142E-04 -.103E-01 0.104E-01   0.277E-04 0.202E-01 -.205E-01   0.423E-21 0.339E-20 -.782E-20   0.775E-08 0.652E-07 -.730E-07
   -.142E-04 0.142E-04 -.105E-01   0.277E-04 -.277E-04 0.205E-01   -.127E-20 0.720E-20 -.974E-20   0.774E-08 -.772E-08 0.747E-07
   0.103E-01 -.103E-01 -.105E-01   -.202E-01 0.202E-01 0.205E-01   -.894E-22 -.182E-19 0.212E-20   -.668E-07 0.696E-07 0.746E-07
   0.103E-01 0.142E-04 0.104E-01   -.202E-01 -.277E-04 -.205E-01   -.232E-21 0.720E-20 0.434E-19   -.667E-07 -.772E-08 -.774E-07
   -.103E-01 -.103E-01 0.105E-01   0.202E-01 0.202E-01 -.205E-01   -.934E-25 -.678E-20 0.159E-19   0.653E-07 0.653E-07 -.730E-07
   -.103E-01 0.142E-04 -.104E-01   0.202E-01 -.277E-04 0.205E-01   0.154E-24 -.119E-19 -.102E-19   0.695E-07 -.772E-08 0.745E-07
   0.142E-04 -.103E-01 -.104E-01   -.277E-04 0.202E-01 0.205E-01   0.847E-21 -.169E-20 0.136E-19   -.772E-08 0.695E-07 0.745E-07
   0.142E-04 0.142E-04 0.105E-01   -.277E-04 -.277E-04 -.205E-01   0.847E-21 0.424E-20 -.786E-20   -.772E-08 -.772E-08 -.776E-07
   0.105E-01 -.103E-01 0.105E-01   -.205E-01 0.202E-01 -.205E-01   0.109E-20 -.254E-20 -.184E-19   -.730E-07 0.653E-07 -.730E-07
   0.104E-01 0.142E-04 -.104E-01   -.205E-01 -.277E-04 0.205E-01   0.511E-21 0.974E-20 -.424E-21   -.774E-07 -.772E-08 0.745E-07
   -.105E-01 -.103E-01 -.105E-01   0.205E-01 0.202E-01 0.205E-01   -.315E-25 -.551E-20 0.635E-20   0.746E-07 0.696E-07 0.746E-07
   -.104E-01 0.142E-04 0.104E-01   0.205E-01 -.277E-04 -.205E-01   0.916E-25 -.127E-20 -.252E-19   0.745E-07 -.772E-08 -.774E-07
   -.142E-04 0.104E-01 0.104E-01   0.277E-04 -.205E-01 -.205E-01   0.169E-20 -.915E-20 -.360E-20   0.775E-08 -.730E-07 -.730E-07
   -.142E-04 -.104E-01 -.104E-01   0.277E-04 0.205E-01 0.205E-01   0.127E-20 0.635E-20 0.381E-20   0.774E-08 0.745E-07 0.745E-07
   0.103E-01 0.105E-01 -.105E-01   -.202E-01 -.205E-01 0.205E-01   -.273E-21 0.692E-20 -.572E-19   -.668E-07 -.775E-07 0.746E-07
   0.103E-01 -.105E-01 0.105E-01   -.202E-01 0.205E-01 -.205E-01   0.160E-21 0.889E-20 0.570E-20   -.668E-07 0.746E-07 -.775E-07
   -.103E-01 0.105E-01 0.105E-01   0.202E-01 -.205E-01 -.205E-01   -.486E-27 0.186E-20 0.104E-19   0.653E-07 -.730E-07 -.730E-07
   -.103E-01 -.105E-01 -.105E-01   0.202E-01 0.205E-01 0.205E-01   -.303E-25 0.254E-20 0.140E-19   0.696E-07 0.746E-07 0.746E-07
   0.142E-04 0.104E-01 -.104E-01   -.277E-04 -.205E-01 0.205E-01   0.127E-20 -.959E-20 -.407E-19   -.772E-08 -.774E-07 0.745E-07
   0.142E-04 -.104E-01 0.104E-01   -.277E-04 0.205E-01 -.205E-01   -.424E-21 -.508E-20 0.654E-20   -.772E-08 0.745E-07 -.774E-07
   0.105E-01 0.105E-01 0.105E-01   -.205E-01 -.205E-01 -.205E-01   -.483E-21 0.610E-20 -.210E-21   -.730E-07 -.730E-07 -.730E-07
   0.105E-01 -.105E-01 -.105E-01   -.205E-01 0.205E-01 0.205E-01   0.933E-21 -.720E-20 -.161E-19   -.775E-07 0.746E-07 0.746E-07
   -.105E-01 0.105E-01 -.105E-01   0.205E-01 -.205E-01 0.205E-01   0.613E-25 -.493E-20 -.402E-19   0.746E-07 -.775E-07 0.746E-07
   -.105E-01 -.105E-01 0.105E-01   0.205E-01 0.205E-01 -.205E-01   -.921E-25 -.805E-20 0.243E-19   0.746E-07 0.746E-07 -.775E-07
 -----------------------------------------------------------------------------------------------
   -.293E-08 -.289E-08 -.298E-08   -.101E-11 -.884E-12 0.608E-11   0.140E-19 -.126E-18 -.798E-19   0.187E-08 0.187E-08 0.187E-08
 
 
 POSITION                                       TOTAL-FORCE (eV/Angst)
 -----------------------------------------------------------------------------------
      0.00000     -0.00000      0.00000         0.000000      0.000000      0.000000
     -0.00000      1.72407      1.72407         0.000000      0.000000      0.000000
      1.72407      0.00000      1.72407         0.000000     -0.000000     -0.000000
      1.72407      1.72407     -0.00000        -0.000000      0.000000      0.000000
      3.44807     -0.00000     -0.00000         0.000000      0.000000      0.000000
      3.44807      1.72407      1.72407        -0.000000     -0.000000      0.000000
      5.17215      0.00000      1.72407         0.000000     -0.000000     -0.000000
      5.17215      1.72407     -0.00000        -0.000000     -0.000000      0.000000
      6.89622     -0.00000     -0.00000         0.000000      0.000000      0.000000
      6.89622      1.72407      1.72407         0.000000      0.000000     -0.000000
      8.62022     -0.00000      1.72407        -0.000000      0.000000     -0.000000
      8.62022      1.72407     -0.00000         0.000000     -0.000000     -0.000000
     -0.00000      3.44807     -0.00000         0.000000     -0.000000      0.000000
     -0.00000      5.17215      1.72407        -0.000000     -0.000000     -0.000000
      1.72407      3.44807      1.72407        -0.000000      0.000000      0.000000
      1.72407      5.17215     -0.00000        -0.000000      0.000000     -0.000000
      3.44807      3.44807     -0.00000         0.000000     -0.000000      0.000000
      3.44807      5.17215      1.72407        -0.000000      0.000000     -0.000000
      5.17215      3.44807      1.72407        -0.000000      0.000000      0.000000
      5.17215      5.17215     -0.00000        -0.000000     -0.000000     -0.000000
      6.89622      3.44807     -0.00000        -0.000000      0.000000     -0.000000
      6.89622      5.17215      1.72407        -0.000000     -0.000000     -0.000000
      8.62022      3.44807      1.72407        -0.000000     -0.000000     -0.000000
      8.62022      5.17215     -0.00000         0.000000     -0.000000     -0.000000
     -0.00000      6.89622     -0.00000        -0.000000      0.000000     -0.000000
     -0.00000      8.62022      1.72407         0.000000     -0.000000      0.000000
      1.72407      6.89622      1.72407         0.000000      0.000000      0.000000
      1.72407      8.62022     -0.00000         0.000000     -0.000000      0.000000
      3.44807      6.89622     -0.00000         0.000000     -0.000000      0.000000
      3.44807      8.62022      1.72407         0.000000     -0.000000     -0.000000
      5.17215      6.89622      1.72407         0.000000      0.000000     -0.000000
      5.17215      8.62022     -0.00000        -0.000000     -0.000000     -0.000000
      6.89622      6.89622     -0.00000         0.000000      0.000000     -0.000000
      6.89622      8.62022      1.72407         0.000000      0.000000     -0.000000
      8.62022      6.89622      1.72407        -0.000000      0.000000     -0.000000
      8.62022      8.62022     -0.00000        -0.000000     -0.000000      0.000000
      0.00000      0.00000      3.44807         0.000000      0.000000     -0.000000
      0.00000      1.72407      5.17215        -0.000000      0.000000     -0.000000
      1.72407      0.00000      5.17215        -0.000000     -0.000000     -0.000000
      1.72407      1.72407      3.44807         0.000000      0.000000      0.000000
      3.44807      0.00000      3.44807         0.000000     -0.000000     -0.000000
      3.44807      1.72407      5.17215        -0.000000      0.000000      0.000000
      5.17215      0.00000      5.17215        -0.000000     -0.000000      0.000000
      5.17215      1.72407      3.44807         0.000000     -0.000000     -0.000000
      6.89622      0.00000      3.44807        -0.000000     -0.000000     -0.000000
      6.89622      1.72407      5.17215        -0.000000      0.000000     -0.000000
      8.62022      0.00000      5.17215         0.000000     -0.000000     -0.000000
      8.62022      1.72407      3.44807         0.000000     -0.000000      0.000000
     -0.00000      3.44807      3.44807         0.000000      0.000000      0.000000
     -0.00000      5.17215      5.17215        -0.000000     -0.000000     -0.000000
      1.72407      3.44807      5.17215        -0.000000      0.000000      0.000000
      1.72407      5.17215      3.44807         0.000000     -0.000000      0.000000
      3.44807      3.44807      3.44807        -0.000000      0.000000      0.000000
      3.44807      5.17215      5.17215         0.000000     -0.000000     -0.000000
      5.17215      3.44807      5.17215        -0.000000      0.000000     -0.000000
      5.17215      5.17215      3.44807        -0.000000     -0.000000      0.000000
      6.89622      3.44807      3.44807         0.000000      0.000000      0.000000
      6.89622      5.17215      5.17215        -0.000000     -0.000000     -0.000000
      8.62022      3.44807      5.17215         0.000000     -0.000000     -0.000000
      8.62022      5.17215      3.44807        -0.000000      0.000000      0.000000
     -0.00000      6.89622      3.44807         0.000000     -0.000000     -0.000000
     -0.00000      8.62022      5.17215         0.000000     -0.000000      0.000000
      1.72407      6.89622      5.17215        -0.000000     -0.000000      0.000000
      1.72407      8.62022      3.44807         0.000000     -0.000000     -0.000000
      3.44807      6.89622      3.44807        -0.000000     -0.000000     -0.000000
      3.44807      8.62022      5.17215        -0.000000     -0.000000      0.000000
      5.17215      6.89622      5.17215        -0.000000      0.000000     -0.000000
      5.17215      8.62022      3.44807         0.000000     -0.000000     -0.000000
      6.89622      6.89622      3.44807         0.000000      0.000000      0.000000
      6.89622      8.62022      5.17215         0.000000      0.000000     -0.000000
      8.62022      6.89622      5.17215        -0.000000      0.000000      0.000000
      8.62022      8.62022      3.44807        -0.000000     -0.000000      0.000000
      0.00000      0.00000      6.89622         0.000000     -0.000000      0.000000
      0.00000      1.72407      8.62022         0.000000     -0.000000     -0.000000
      1.72407      0.00000      8.62022        -0.000000     -0.000000     -0.000000
      1.72407      1.72407      6.89622         0.000000      0.000000      0.000000
      3.44807      0.00000      6.89622         0.000000     -0.000000      0.000000
      3.44807      1.72407      8.62022        -0.000000      0.000000     -0.000000
      5.17215      0.00000      8.62022        -0.000000     -0.000000      0.000000
      5.17215      1.72407      6.89622         0.000000      0.000000      0.000000
      6.89622      0.00000      6.89622         0.000000      0.000000     -0.000000
      6.89622      1.72407      8.62022        -0.000000      0.000000     -0.000000
      8.62022      0.00000      8.62022         0.000000     -0.000000     -0.000000
      8.62022      1.72407      6.89622        -0.000000      0.000000      0.000000
      0.00000      3.44807      6.89622         0.000000      0.000000      0.000000
      0.00000      5.17215      8.62022        -0.000000      0.000000      0.000000
      1.72407      3.44807      8.62022        -0.000000      0.000000     -0.000000
      1.72407      5.17215      6.89622         0.000000      0.000000     -0.000000
      3.44807      3.44807      6.89622         0.000000      0.000000      0.000000
      3.44807      5.17215      8.62022         0.000000     -0.000000      0.000000
      5.17215      3.44807      8.62022         0.000000      0.000000      0.000000
      5.17215      5.17215      6.89622        -0.000000     -0.000000      0.000000
      6.89622      3.44807      6.89622         0.000000     -0.000000     -0.000000
      6.89622      5.17215      8.62022        -0.000000     -0.000000      0.000000
      8.62022      3.44807      8.62022        -0.000000     -0.000000      0.000000
      8.62022      5.17215      6.89622         0.000000     -0.000000      0.000000
     -0.00000      6.89622      6.89622         0.000000     -0.000000     -0.000000
     -0.00000      8.62022      8.62022        -0.000000     -0.000000     -0.000000
      1.72407      6.89622      8.62022        -0.000000      0.000000      0.000000
      1.72407      8.62022      6.89622         0.000000      0.000000      0.000000
      3.44807      6.89622      6.89622         0.000000     -0.000000     -0.000000
      3.44807      8.62022      8.62022         0.000000      0.000000     -0.000000
      5.17215      6.89622      8.62022        -0.000000     -0.000000      0.000000
      5.17215      8.62022      6.89622         0.000000      0.000000      0.000000
      6.89622      6.89622      6.89622        -0.000000     -0.000000     -0.000000
      6.89622      8.62022      8.62022         0.000000      0.000000      0.000000
      8.62022      6.89622      8.62022        -0.000000      0.000000      0.000000
      8.62022      8.62022      6.89622        -0.000000      0.000000      0.000000
 -----------------------------------------------------------------------------------
    total drift:                               -0.000000     -0.000000     -0.000000


--------------------------------------------------------------------------------------------------------



  FREE ENERGIE OF THE ION-ELECTRON SYSTEM (eV)
  ---------------------------------------------------
  free  energy   TOTEN  =      -879.53398617 eV

  energy  without entropy=     -879.46430480  energy(sigma->0) =     -879.51075905
 
 d Force = 0.0000000E+00[ 0.000E+00, 0.000E+00]  d Energy = 0.1461387E-01-0.146E-01
 d Force = 0.0000000E+00[ 0.000E+00, 0.000E+00]  d Ewald  = 0.8103340E+02-0.810E+02


--------------------------------------------------------------------------------------------------------


    POTLOK:  cpu time    0.3042: real time    0.3042


--------------------------------------------------------------------------------------------------------




--------------------------------------------------------------------------------------------------------


  
 reached required accuracy - stopping structural energy minimisation
     LOOP+:  cpu time  436.8251: real time  436.8799
    4ORBIT:  cpu time    0.0000: real time    0.0000

 total amount of memory used by VASP MPI-rank0   310509. kBytes
=======================================================================

   base      :      30000. kBytes
   nonlr-proj:      21024. kBytes
   fftplans  :      15544. kBytes
   grid      :      21835. kBytes
   one-center:        419. kBytes
   wavefun   :     221687. kBytes
 
  
  
 General timing and accounting informations for this job:
 ========================================================
  
                  Total CPU time used (sec):     2631.143
                            User time (sec):     2627.988
                          System time (sec):        3.155
                         Elapsed time (sec):     2631.996
  
                   Maximum memory used (kb):      366440.
                   Average memory used (kb):           0.
  
                          Minor page faults:       504896
                          Major page faults:            0
                 Voluntary context switches:          932
