<?xml version="1.0" encoding="ISO-8859-1"?>
<modeling>
 <generator>
  <i name="program" type="string">vasp </i>
  <i name="version" type="string">5.4.4.18Apr17-6-g9f103f2a35  </i>
  <i name="subversion" type="string">(build Aug 17 2017 06:00:38) complex            parallel </i>
  <i name="platform" type="string">LinuxIFC </i>
  <i name="date" type="string">2019 07 12 </i>
  <i name="time" type="string">15:21:50 </i>
 </generator>
 <incar>
  <i type="string" name="SYSTEM">Opt</i>
  <i type="int" name="ISTART">     0</i>
  <i type="string" name="PREC">normal</i>
  <i type="string" name="ALGO"> Fast</i>
  <i type="int" name="ISPIN">     1</i>
  <i type="int" name="ICHARG">     2</i>
  <i type="int" name="NELM">   400</i>
  <i type="int" name="IBRION">     2</i>
  <i name="EDIFF">      0.00000100</i>
  <i name="EDIFFG">     -0.01000000</i>
  <i type="int" name="NSW">   100</i>
  <i type="int" name="ISIF">     3</i>
  <i name="ENCUT">    750.00000000</i>
  <i type="int" name="NGX">    72</i>
  <i type="int" name="NGY">    72</i>
  <i type="int" name="NGZ">    72</i>
  <i name="POTIM">      0.50000000</i>
  <i type="string" name="LREAL">Auto</i>
  <i type="logical" name="LWAVE"> F  </i>
  <i type="logical" name="LCHARG"> F  </i>
  <v type="int" name="KPOINT_BSE">    -1     0     0     0</v>
  <i type="int" name="NELM">   400</i>
 </incar>
 <structure name="primitive_cell" >
  <crystal>
   <varray name="basis" >
    <v>       3.44492529       0.00000000       0.00000000 </v>
    <v>       0.00000000       3.44492529       0.00000000 </v>
    <v>       0.00000000       0.00000000       3.44492524 </v>
   </varray>
   <i name="volume">     40.88268566 </i>
   <varray name="rec_basis" >
    <v>       0.29028206       0.00000000       0.00000000 </v>
    <v>       0.00000000       0.29028206       0.00000000 </v>
    <v>       0.00000000       0.00000000       0.29028206 </v>
   </varray>
  </crystal>
  <varray name="positions" >
   <v>       0.00000000       0.00000000       0.00000000 </v>
   <v>       0.00000000      -0.49998976      -0.49998975 </v>
   <v>      -0.49998976       0.00000000      -0.49998975 </v>
   <v>      -0.49998976      -0.49998976       0.00000000 </v>
  </varray>
 </structure>
 <varray name="primitive_index" >
  <v type="int" >        1 </v>
  <v type="int" >        2 </v>
  <v type="int" >        3 </v>
  <v type="int" >        4 </v>
 </varray>
 <kpoints>
  <generation param="Monkhorst-Pack">
   <v type="int" name="divisions">       4        4        4 </v>
   <v name="usershift">      0.00000000       0.00000000       0.00000000 </v>
   <v name="genvec1">      0.25000000       0.00000000       0.00000000 </v>
   <v name="genvec2">      0.00000000       0.25000000       0.00000000 </v>
   <v name="genvec3">      0.00000000       0.00000000       0.25000000 </v>
   <v name="shift">      0.50000000       0.50000000       0.50000000 </v>
  </generation>
  <varray name="kpointlist" >
   <v>       0.12500000       0.12500000       0.12500000 </v>
   <v>       0.37500000       0.12500000       0.12500000 </v>
   <v>       0.37500000       0.37500000       0.12500000 </v>
   <v>       0.37500000       0.37500000       0.37500000 </v>
  </varray>
  <varray name="weights" >
   <v>       0.12500000 </v>
   <v>       0.37500000 </v>
   <v>       0.37500000 </v>
   <v>       0.12500000 </v>
  </varray>
 </kpoints>
 <parameters>
  <separator name="general" >
   <i type="string" name="SYSTEM">Opt</i>
   <i type="logical" name="LCOMPAT"> F  </i>
  </separator>
  <separator name="electronic" >
   <i type="string" name="PREC">normal</i>
   <i name="ENMAX">    750.00000000</i>
   <i name="ENAUG">    511.36800000</i>
   <i name="EDIFF">      0.00000100</i>
   <i type="int" name="IALGO">    68</i>
   <i type="int" name="IWAVPR">    11</i>
   <i type="int" name="NBANDS">   518</i>
   <i name="NELECT">    864.00000000</i>
   <i type="int" name="TURBO">     0</i>
   <i type="int" name="IRESTART">     0</i>
   <i type="int" name="NREBOOT">     0</i>
   <i type="int" name="NMIN">     0</i>
   <i name="EREF">      0.00000000</i>
   <separator name="electronic smearing" >
    <i type="int" name="ISMEAR">     1</i>
    <i name="SIGMA">      0.20000000</i>
    <i name="KSPACING">      0.50000000</i>
    <i type="logical" name="KGAMMA"> T  </i>
   </separator>
   <separator name="electronic projectors" >
    <i type="logical" name="LREAL"> T  </i>
    <v name="ROPT">     -0.00050000</v>
    <i type="int" name="LMAXPAW">  -100</i>
    <i type="int" name="LMAXMIX">     2</i>
    <i type="logical" name="NLSPLINE"> F  </i>
   </separator>
   <separator name="electronic startup" >
    <i type="int" name="ISTART">     0</i>
    <i type="int" name="ICHARG">     2</i>
    <i type="int" name="INIWAV">     1</i>
   </separator>
   <separator name="electronic spin" >
    <i type="int" name="ISPIN">     1</i>
    <i type="logical" name="LNONCOLLINEAR"> F  </i>
    <v name="MAGMOM">      1.00000000      1.00000000      1.00000000      1.00000000      1.00000000      1.00000000      1.00000000      1.00000000      1.00000000      1.00000000      1.00000000      1.00000000      1.00000000      1.00000000      1.00000000      1.00000000      1.00000000      1.00000000      1.00000000      1.00000000
      1.00000000      1.00000000      1.00000000      1.00000000      1.00000000      1.00000000      1.00000000      1.00000000      1.00000000      1.00000000      1.00000000      1.00000000      1.00000000      1.00000000      1.00000000      1.00000000      1.00000000      1.00000000      1.00000000      1.00000000
      1.00000000      1.00000000      1.00000000      1.00000000      1.00000000      1.00000000      1.00000000      1.00000000      1.00000000      1.00000000      1.00000000      1.00000000      1.00000000      1.00000000      1.00000000      1.00000000      1.00000000      1.00000000      1.00000000      1.00000000
      1.00000000      1.00000000      1.00000000      1.00000000      1.00000000      1.00000000      1.00000000      1.00000000      1.00000000      1.00000000      1.00000000      1.00000000      1.00000000      1.00000000      1.00000000      1.00000000      1.00000000      1.00000000      1.00000000      1.00000000
      1.00000000      1.00000000      1.00000000      1.00000000      1.00000000      1.00000000      1.00000000      1.00000000      1.00000000      1.00000000      1.00000000      1.00000000      1.00000000      1.00000000      1.00000000      1.00000000      1.00000000      1.00000000      1.00000000      1.00000000
      1.00000000      1.00000000      1.00000000      1.00000000      1.00000000      1.00000000      1.00000000      1.00000000</v>
    <i name="NUPDOWN">     -1.00000000</i>
    <i type="logical" name="LSORBIT"> F  </i>
    <v name="SAXIS">      0.00000000      0.00000000      1.00000000</v>
    <i type="logical" name="LSPIRAL"> F  </i>
    <v name="QSPIRAL">      0.00000000      0.00000000      0.00000000</v>
    <i type="logical" name="LZEROZ"> F  </i>
   </separator>
   <separator name="electronic exchange-correlation" >
    <i type="logical" name="LASPH"> F  </i>
    <i type="logical" name="LMETAGGA"> F  </i>
   </separator>
   <separator name="electronic convergence" >
    <i type="int" name="NELM">   400</i>
    <i type="int" name="NELMDL">    -5</i>
    <i type="int" name="NELMIN">     2</i>
    <i name="ENINI">    750.00000000</i>
    <separator name="electronic convergence detail" >
     <i type="logical" name="LDIAG"> T  </i>
     <i type="logical" name="LSUBROT"> F  </i>
     <i name="WEIMIN">      0.00100000</i>
     <i name="EBREAK">      0.00000000</i>
     <i name="DEPER">      0.30000000</i>
     <i type="int" name="NRMM">     4</i>
     <i name="TIME">      0.40000000</i>
    </separator>
   </separator>
   <separator name="electronic mixer" >
    <i name="AMIX">      0.40000000</i>
    <i name="BMIX">      1.00000000</i>
    <i name="AMIN">      0.10000000</i>
    <i name="AMIX_MAG">      1.60000000</i>
    <i name="BMIX_MAG">      1.00000000</i>
    <separator name="electronic mixer details" >
     <i type="int" name="IMIX">     4</i>
     <i type="logical" name="MIXFIRST"> F  </i>
     <i type="int" name="MAXMIX">   -45</i>
     <i name="WC">    100.00000000</i>
     <i type="int" name="INIMIX">     1</i>
     <i type="int" name="MIXPRE">     1</i>
     <i type="int" name="MREMOVE">     5</i>
    </separator>
   </separator>
   <separator name="electronic dipolcorrection" >
    <i type="logical" name="LDIPOL"> F  </i>
    <i type="logical" name="LMONO"> F  </i>
    <i type="int" name="IDIPOL">     0</i>
    <i name="EPSILON">      1.00000000</i>
    <v name="DIPOL">   -100.00000000   -100.00000000   -100.00000000</v>
    <i name="EFIELD">      0.00000000</i>
   </separator>
  </separator>
  <separator name="grids" >
   <i type="int" name="NGX">    72</i>
   <i type="int" name="NGY">    72</i>
   <i type="int" name="NGZ">    72</i>
   <i type="int" name="NGXF">   144</i>
   <i type="int" name="NGYF">   144</i>
   <i type="int" name="NGZF">   144</i>
   <i type="logical" name="ADDGRID"> F  </i>
  </separator>
  <separator name="ionic" >
   <i type="int" name="NSW">   100</i>
   <i type="int" name="IBRION">     2</i>
   <i type="int" name="MDALGO">     0</i>
   <i type="int" name="ISIF">     3</i>
   <i name="PSTRESS">      0.00000000</i>
   <i name="EDIFFG">     -0.01000000</i>
   <i type="int" name="NFREE">     1</i>
   <i name="POTIM">      0.50000000</i>
   <i name="SMASS">     -3.00000000</i>
   <i name="SCALEE">      1.00000000</i>
  </separator>
  <separator name="ionic md" >
   <i name="TEBEG">      0.00010000</i>
   <i name="TEEND">      0.00010000</i>
   <i type="int" name="NBLOCK">     1</i>
   <i type="int" name="KBLOCK">   100</i>
   <i type="int" name="NPACO">   256</i>
   <i name="APACO">     16.00000000</i>
  </separator>
  <separator name="symmetry" >
   <i type="int" name="ISYM">     2</i>
   <i name="SYMPREC">      0.00001000</i>
  </separator>
  <separator name="dos" >
   <i type="int" name="LORBIT">     0</i>
   <v name="RWIGS">     -1.00000000</v>
   <i type="int" name="NEDOS">   301</i>
   <i name="EMIN">     10.00000000</i>
   <i name="EMAX">    -10.00000000</i>
   <i name="EFERMI">      0.00000000</i>
  </separator>
  <separator name="writing" >
   <i type="int" name="NWRITE">     2</i>
   <i type="logical" name="LWAVE"> F  </i>
   <i type="logical" name="LDOWNSAMPLE"> F  </i>
   <i type="logical" name="LCHARG"> F  </i>
   <i type="logical" name="LPARD"> F  </i>
   <i type="logical" name="LVTOT"> F  </i>
   <i type="logical" name="LVHAR"> F  </i>
   <i type="logical" name="LELF"> F  </i>
   <i type="logical" name="LOPTICS"> F  </i>
   <v name="STM">      0.00000000      0.00000000      0.00000000      0.00000000      0.00000000      0.00000000      0.00000000</v>
  </separator>
  <separator name="performance" >
   <i type="int" name="NPAR">     2</i>
   <i type="int" name="NSIM">     4</i>
   <i type="int" name="NBLK">    -1</i>
   <i type="logical" name="LPLANE"> T  </i>
   <i type="logical" name="LSCALAPACK"> T  </i>
   <i type="logical" name="LSCAAWARE"> F  </i>
   <i type="logical" name="LSCALU"> F  </i>
   <i type="logical" name="LASYNC"> F  </i>
   <i type="logical" name="LORBITALREAL"> F  </i>
  </separator>
  <separator name="miscellaneous" >
   <i type="int" name="IDIOT">     3</i>
   <i type="int" name="ISPECIAL">     0</i>
   <i type="logical" name="LMUSIC"> F  </i>
   <v name="POMASS">     55.84700000</v>
   <v name="DARWINR">      0.00000000</v>
   <v name="DARWINV">      1.00000000</v>
   <i type="logical" name="LCORR"> T  </i>
  </separator>
  <i type="logical" name="GGA_COMPAT"> T  </i>
  <i type="logical" name="LBERRY"> F  </i>
  <i type="int" name="ICORELEVEL">     0</i>
  <i type="logical" name="LDAU"> F  </i>
  <i type="int" name="I_CONSTRAINED_M">     0</i>
  <separator name="electronic exchange-correlation" >
   <i type="string" name="GGA">--</i>
   <i type="int" name="VOSKOWN">     0</i>
   <i type="logical" name="LHFCALC"> F  </i>
   <i type="string" name="PRECFOCK"></i>
   <i type="logical" name="LSYMGRAD"> F  </i>
   <i type="logical" name="LHFONE"> F  </i>
   <i type="logical" name="LRHFCALC"> F  </i>
   <i type="logical" name="LTHOMAS"> F  </i>
   <i type="logical" name="LMODELHF"> F  </i>
   <i name="ENCUT4O">     -1.00000000</i>
   <i type="int" name="EXXOEP">     0</i>
   <i type="int" name="FOURORBIT">     0</i>
   <i name="AEXX">      0.00000000</i>
   <i name="HFALPHA">      0.00000000</i>
   <i name="MCALPHA">      0.00000000</i>
   <i name="ALDAX">      1.00000000</i>
   <i name="AGGAX">      1.00000000</i>
   <i name="ALDAC">      1.00000000</i>
   <i name="AGGAC">      1.00000000</i>
   <i type="int" name="NKREDX">     1</i>
   <i type="int" name="NKREDY">     1</i>
   <i type="int" name="NKREDZ">     1</i>
   <i type="logical" name="SHIFTRED"> F  </i>
   <i type="logical" name="ODDONLY"> F  </i>
   <i type="logical" name="EVENONLY"> F  </i>
   <i type="int" name="LMAXFOCK">     0</i>
   <i type="int" name="NMAXFOCKAE">     0</i>
   <i type="logical" name="LFOCKAEDFT"> F  </i>
   <i name="HFSCREEN">      0.00000000</i>
   <i name="HFSCREENC">      0.00000000</i>
   <i type="int" name="NBANDSGWLOW">     0</i>
  </separator>
  <separator name="vdW DFT" >
   <i type="logical" name="LUSE_VDW"> F  </i>
   <i name="Zab_VDW">     -0.84910000</i>
   <i name="PARAM1">      0.12340000</i>
   <i name="PARAM2">      1.00000000</i>
   <i name="PARAM3">      0.00000000</i>
  </separator>
  <separator name="model GW" >
   <i type="int" name="MODEL_GW">     0</i>
   <i name="MODEL_EPS0">      6.13252964</i>
   <i name="MODEL_ALPHA">      1.00000000</i>
  </separator>
  <separator name="linear response parameters" >
   <i type="logical" name="LEPSILON"> F  </i>
   <i type="logical" name="LRPA"> F  </i>
   <i type="logical" name="LNABLA"> F  </i>
   <i type="logical" name="LVEL"> F  </i>
   <i type="int" name="KINTER">     0</i>
   <i name="CSHIFT">      0.10000000</i>
   <i name="OMEGAMAX">     -1.00000000</i>
   <i name="DEG_THRESHOLD">      0.00200000</i>
   <i name="RTIME">     -0.10000000</i>
   <i name="WPLASMAI">      0.00000000</i>
   <v name="DFIELD">      0.00000000      0.00000000      0.00000000</v>
   <v name="WPLASMA">      0.00000000      0.00000000      0.00000000      0.00000000      0.00000000      0.00000000      0.00000000      0.00000000      0.00000000</v>
  </separator>
  <separator name="orbital magnetization" >
   <i type="logical" name="NUCIND"> F  </i>
   <v name="MAGPOS">      0.00000000      0.00000000      0.00000000</v>
   <i type="logical" name="LNICSALL"> T  </i>
   <i type="logical" name="ORBITALMAG"> F  </i>
   <i type="logical" name="LMAGBLOCH"> F  </i>
   <i type="logical" name="LCHIMAG"> F  </i>
   <i type="logical" name="LGAUGE"> T  </i>
   <i type="int" name="MAGATOM">     0</i>
   <v name="MAGDIPOL">      0.00000000      0.00000000      0.00000000</v>
   <v name="AVECCONST">      0.00000000      0.00000000      0.00000000</v>
  </separator>
  <separator name="response functions" >
   <i type="logical" name="LADDER"> F  </i>
   <i type="logical" name="LRPAFORCE"> F  </i>
   <i type="logical" name="LFXC"> F  </i>
   <i type="logical" name="LHARTREE"> T  </i>
   <i type="int" name="IBSE">     0</i>
   <v type="int" name="KPOINT">    -1     0     0     0</v>
   <i type="logical" name="LTCTE"> F  </i>
   <i type="logical" name="LTETE"> F  </i>
   <i type="logical" name="LTRIPLET"> F  </i>
   <i type="logical" name="LFXCEPS"> F  </i>
   <i type="logical" name="LFXHEG"> F  </i>
   <i type="int" name="NATURALO">     2</i>
   <i type="logical" name="L2ORDER"> F  </i>
   <i type="logical" name="LMP2LT"> F  </i>
   <i type="logical" name="LUSEW"> F  </i>
   <i name="ENCUTGW">     -2.00000000</i>
   <i name="ENCUTGWSOFT">     -2.00000000</i>
   <i name="ENCUTLF">     -1.00000000</i>
   <i type="int" name="LMAXMP2">    -1</i>
   <i name="SCISSOR">      0.00000000</i>
   <i type="int" name="NOMEGA">     0</i>
   <i type="int" name="NOMEGAR">     0</i>
   <i type="int" name="NBANDSGW">    -1</i>
   <i type="int" name="NBANDSO">    -1</i>
   <i type="int" name="NBANDSV">    -1</i>
   <i type="int" name="NELM">   400</i>
   <i type="int" name="NELMHF">     1</i>
   <i type="int" name="DIM">     3</i>
   <i type="int" name="ANTIRES">     0</i>
   <i name="OMEGAMAX">    -30.00000000</i>
   <i name="OMEGAMIN">    -30.00000000</i>
   <i name="OMEGATL">   -200.00000000</i>
   <i type="int" name="OMEGAGRID">   140</i>
   <i name="CSHIFT">     -0.10000000</i>
   <i type="logical" name="SELFENERGY"> F  </i>
   <i type="logical" name="LSPECTRAL"> F  </i>
   <i type="logical" name="LSPECTRALGW"> F  </i>
   <i type="logical" name="LSINGLES"> F  </i>
   <i type="logical" name="LFERMIGW"> F  </i>
   <i type="logical" name="ODDONLYGW"> F  </i>
   <i type="logical" name="EVENONLYGW"> F  </i>
   <i type="int" name="NKREDLFX">     1</i>
   <i type="int" name="NKREDLFY">     1</i>
   <i type="int" name="NKREDLFZ">     1</i>
   <i type="int" name="MAXMEM">  2800</i>
   <i type="int" name="TELESCOPE">     0</i>
   <i type="int" name="TAUPAR">     1</i>
   <i type="int" name="OMEGAPAR">    -1</i>
   <i name="LAMBDA">      1.00000000</i>
  </separator>
  <separator name="External order field" >
   <i name="OFIELD_KAPPA">      0.00000000</i>
   <v name="OFIELD_K">      0.00000000      0.00000000      0.00000000</v>
   <i name="OFIELD_Q6_NEAR">      0.00000000</i>
   <i name="OFIELD_Q6_FAR">      0.00000000</i>
   <i name="OFIELD_A">      0.00000000</i>
  </separator>
 </parameters>
 <atominfo>
  <atoms>     108 </atoms>
  <types>       1 </types>
  <array name="atoms" >
   <dimension dim="1">ion</dimension>
   <field type="string">element</field>
   <field type="int">atomtype</field>
   <set>
    <rc><c>Fe</c><c>   1</c></rc>
    <rc><c>Fe</c><c>   1</c></rc>
    <rc><c>Fe</c><c>   1</c></rc>
    <rc><c>Fe</c><c>   1</c></rc>
    <rc><c>Fe</c><c>   1</c></rc>
    <rc><c>Fe</c><c>   1</c></rc>
    <rc><c>Fe</c><c>   1</c></rc>
    <rc><c>Fe</c><c>   1</c></rc>
    <rc><c>Fe</c><c>   1</c></rc>
    <rc><c>Fe</c><c>   1</c></rc>
    <rc><c>Fe</c><c>   1</c></rc>
    <rc><c>Fe</c><c>   1</c></rc>
    <rc><c>Fe</c><c>   1</c></rc>
    <rc><c>Fe</c><c>   1</c></rc>
    <rc><c>Fe</c><c>   1</c></rc>
    <rc><c>Fe</c><c>   1</c></rc>
    <rc><c>Fe</c><c>   1</c></rc>
    <rc><c>Fe</c><c>   1</c></rc>
    <rc><c>Fe</c><c>   1</c></rc>
    <rc><c>Fe</c><c>   1</c></rc>
    <rc><c>Fe</c><c>   1</c></rc>
    <rc><c>Fe</c><c>   1</c></rc>
    <rc><c>Fe</c><c>   1</c></rc>
    <rc><c>Fe</c><c>   1</c></rc>
    <rc><c>Fe</c><c>   1</c></rc>
    <rc><c>Fe</c><c>   1</c></rc>
    <rc><c>Fe</c><c>   1</c></rc>
    <rc><c>Fe</c><c>   1</c></rc>
    <rc><c>Fe</c><c>   1</c></rc>
    <rc><c>Fe</c><c>   1</c></rc>
    <rc><c>Fe</c><c>   1</c></rc>
    <rc><c>Fe</c><c>   1</c></rc>
    <rc><c>Fe</c><c>   1</c></rc>
    <rc><c>Fe</c><c>   1</c></rc>
    <rc><c>Fe</c><c>   1</c></rc>
    <rc><c>Fe</c><c>   1</c></rc>
    <rc><c>Fe</c><c>   1</c></rc>
    <rc><c>Fe</c><c>   1</c></rc>
    <rc><c>Fe</c><c>   1</c></rc>
    <rc><c>Fe</c><c>   1</c></rc>
    <rc><c>Fe</c><c>   1</c></rc>
    <rc><c>Fe</c><c>   1</c></rc>
    <rc><c>Fe</c><c>   1</c></rc>
    <rc><c>Fe</c><c>   1</c></rc>
    <rc><c>Fe</c><c>   1</c></rc>
    <rc><c>Fe</c><c>   1</c></rc>
    <rc><c>Fe</c><c>   1</c></rc>
    <rc><c>Fe</c><c>   1</c></rc>
    <rc><c>Fe</c><c>   1</c></rc>
    <rc><c>Fe</c><c>   1</c></rc>
    <rc><c>Fe</c><c>   1</c></rc>
    <rc><c>Fe</c><c>   1</c></rc>
    <rc><c>Fe</c><c>   1</c></rc>
    <rc><c>Fe</c><c>   1</c></rc>
    <rc><c>Fe</c><c>   1</c></rc>
    <rc><c>Fe</c><c>   1</c></rc>
    <rc><c>Fe</c><c>   1</c></rc>
    <rc><c>Fe</c><c>   1</c></rc>
    <rc><c>Fe</c><c>   1</c></rc>
    <rc><c>Fe</c><c>   1</c></rc>
    <rc><c>Fe</c><c>   1</c></rc>
    <rc><c>Fe</c><c>   1</c></rc>
    <rc><c>Fe</c><c>   1</c></rc>
    <rc><c>Fe</c><c>   1</c></rc>
    <rc><c>Fe</c><c>   1</c></rc>
    <rc><c>Fe</c><c>   1</c></rc>
    <rc><c>Fe</c><c>   1</c></rc>
    <rc><c>Fe</c><c>   1</c></rc>
    <rc><c>Fe</c><c>   1</c></rc>
    <rc><c>Fe</c><c>   1</c></rc>
    <rc><c>Fe</c><c>   1</c></rc>
    <rc><c>Fe</c><c>   1</c></rc>
    <rc><c>Fe</c><c>   1</c></rc>
    <rc><c>Fe</c><c>   1</c></rc>
    <rc><c>Fe</c><c>   1</c></rc>
    <rc><c>Fe</c><c>   1</c></rc>
    <rc><c>Fe</c><c>   1</c></rc>
    <rc><c>Fe</c><c>   1</c></rc>
    <rc><c>Fe</c><c>   1</c></rc>
    <rc><c>Fe</c><c>   1</c></rc>
    <rc><c>Fe</c><c>   1</c></rc>
    <rc><c>Fe</c><c>   1</c></rc>
    <rc><c>Fe</c><c>   1</c></rc>
    <rc><c>Fe</c><c>   1</c></rc>
    <rc><c>Fe</c><c>   1</c></rc>
    <rc><c>Fe</c><c>   1</c></rc>
    <rc><c>Fe</c><c>   1</c></rc>
    <rc><c>Fe</c><c>   1</c></rc>
    <rc><c>Fe</c><c>   1</c></rc>
    <rc><c>Fe</c><c>   1</c></rc>
    <rc><c>Fe</c><c>   1</c></rc>
    <rc><c>Fe</c><c>   1</c></rc>
    <rc><c>Fe</c><c>   1</c></rc>
    <rc><c>Fe</c><c>   1</c></rc>
    <rc><c>Fe</c><c>   1</c></rc>
    <rc><c>Fe</c><c>   1</c></rc>
    <rc><c>Fe</c><c>   1</c></rc>
    <rc><c>Fe</c><c>   1</c></rc>
    <rc><c>Fe</c><c>   1</c></rc>
    <rc><c>Fe</c><c>   1</c></rc>
    <rc><c>Fe</c><c>   1</c></rc>
    <rc><c>Fe</c><c>   1</c></rc>
    <rc><c>Fe</c><c>   1</c></rc>
    <rc><c>Fe</c><c>   1</c></rc>
    <rc><c>Fe</c><c>   1</c></rc>
    <rc><c>Fe</c><c>   1</c></rc>
    <rc><c>Fe</c><c>   1</c></rc>
    <rc><c>Fe</c><c>   1</c></rc>
   </set>
  </array>
  <array name="atomtypes" >
   <dimension dim="1">type</dimension>
   <field type="int">atomspertype</field>
   <field type="string">element</field>
   <field>mass</field>
   <field>valence</field>
   <field type="string">pseudopotential</field>
   <set>
    <rc><c> 108</c><c>Fe</c><c>     55.84700000</c><c>      8.00000000</c><c> PAW_PBE Fe 06Sep2000                   </c></rc>
   </set>
  </array>
 </atominfo>
 <structure name="initialpos" >
  <crystal>
   <varray name="basis" >
    <v>      10.33484705       0.00000000       0.00000000 </v>
    <v>       0.00000000      10.33484705       0.00000000 </v>
    <v>       0.00000000       0.00000000      10.33484705 </v>
   </varray>
   <i name="volume">   1103.85533447 </i>
   <varray name="rec_basis" >
    <v>       0.09676002       0.00000000       0.00000000 </v>
    <v>       0.00000000       0.09676002       0.00000000 </v>
    <v>       0.00000000       0.00000000       0.09676002 </v>
   </varray>
  </crystal>
  <varray name="positions" >
   <v>       0.00000000       0.00000000       0.00000000 </v>
   <v>       0.00000000       0.16666893       0.16666893 </v>
   <v>       0.16666893       0.00000000       0.16666893 </v>
   <v>       0.16666893       0.16666893       0.00000000 </v>
   <v>       0.33333106       0.00000000       0.00000000 </v>
   <v>       0.33333107       0.16666893       0.16666893 </v>
   <v>       0.50000000       0.00000000       0.16666894 </v>
   <v>       0.50000000       0.16666894       0.00000000 </v>
   <v>       0.66666897       0.00000000       0.00000000 </v>
   <v>       0.66666896       0.16666893       0.16666893 </v>
   <v>       0.83333104       0.00000000       0.16666893 </v>
   <v>       0.83333104       0.16666893       0.00000000 </v>
   <v>       0.00000000       0.33333106       0.00000000 </v>
   <v>       0.00000000       0.50000000       0.16666894 </v>
   <v>       0.16666893       0.33333107       0.16666893 </v>
   <v>       0.16666894       0.50000000       0.00000000 </v>
   <v>       0.33333107       0.33333107       0.00000000 </v>
   <v>       0.33333107       0.50000000       0.16666893 </v>
   <v>       0.50000000       0.33333107       0.16666893 </v>
   <v>       0.50000000       0.50000000       0.00000000 </v>
   <v>       0.66666896       0.33333107       0.00000000 </v>
   <v>       0.66666896       0.50000000       0.16666893 </v>
   <v>       0.83333104       0.33333107       0.16666893 </v>
   <v>       0.83333103       0.50000000       0.00000000 </v>
   <v>       0.00000000       0.66666897       0.00000000 </v>
   <v>       0.00000000       0.83333104       0.16666893 </v>
   <v>       0.16666893       0.66666896       0.16666893 </v>
   <v>       0.16666893       0.83333104       0.00000000 </v>
   <v>       0.33333107       0.66666896       0.00000000 </v>
   <v>       0.33333107       0.83333104       0.16666893 </v>
   <v>       0.50000000       0.66666896       0.16666893 </v>
   <v>       0.50000000       0.83333103       0.00000000 </v>
   <v>       0.66666896       0.66666896       0.00000000 </v>
   <v>       0.66666896       0.83333104       0.16666893 </v>
   <v>       0.83333104       0.66666896       0.16666893 </v>
   <v>       0.83333104       0.83333104       0.00000000 </v>
   <v>       0.00000000       0.00000000       0.33333106 </v>
   <v>       0.00000000       0.16666894       0.50000000 </v>
   <v>       0.16666894       0.00000000       0.50000000 </v>
   <v>       0.16666893       0.16666893       0.33333107 </v>
   <v>       0.33333107       0.00000000       0.33333107 </v>
   <v>       0.33333107       0.16666893       0.50000000 </v>
   <v>       0.50000000       0.00000000       0.50000000 </v>
   <v>       0.50000000       0.16666893       0.33333107 </v>
   <v>       0.66666896       0.00000000       0.33333107 </v>
   <v>       0.66666896       0.16666893       0.50000000 </v>
   <v>       0.83333103       0.00000000       0.50000000 </v>
   <v>       0.83333104       0.16666893       0.33333107 </v>
   <v>       0.00000000       0.33333107       0.33333107 </v>
   <v>       0.00000000       0.50000000       0.50000000 </v>
   <v>       0.16666893       0.33333107       0.50000000 </v>
   <v>       0.16666893       0.50000000       0.33333107 </v>
   <v>       0.33333107       0.33333107       0.33333107 </v>
   <v>       0.33333106       0.50000000       0.50000000 </v>
   <v>       0.50000000       0.33333106       0.50000000 </v>
   <v>       0.50000000       0.50000000       0.33333106 </v>
   <v>       0.66666896       0.33333107       0.33333107 </v>
   <v>       0.66666897       0.50000000       0.50000000 </v>
   <v>       0.83333104       0.33333107       0.50000000 </v>
   <v>       0.83333104       0.50000000       0.33333107 </v>
   <v>       0.00000000       0.66666896       0.33333107 </v>
   <v>       0.00000000       0.83333103       0.50000000 </v>
   <v>       0.16666893       0.66666896       0.50000000 </v>
   <v>       0.16666893       0.83333104       0.33333107 </v>
   <v>       0.33333107       0.66666896       0.33333107 </v>
   <v>       0.33333107       0.83333104       0.50000000 </v>
   <v>       0.50000000       0.66666897       0.50000000 </v>
   <v>       0.50000000       0.83333104       0.33333107 </v>
   <v>       0.66666896       0.66666896       0.33333107 </v>
   <v>       0.66666896       0.83333104       0.50000000 </v>
   <v>       0.83333104       0.66666896       0.50000000 </v>
   <v>       0.83333104       0.83333104       0.33333107 </v>
   <v>       0.00000000       0.00000000       0.66666897 </v>
   <v>       0.00000000       0.16666893       0.83333104 </v>
   <v>       0.16666893       0.00000000       0.83333104 </v>
   <v>       0.16666893       0.16666893       0.66666896 </v>
   <v>       0.33333107       0.00000000       0.66666896 </v>
   <v>       0.33333107       0.16666893       0.83333104 </v>
   <v>       0.50000000       0.00000000       0.83333103 </v>
   <v>       0.50000000       0.16666893       0.66666896 </v>
   <v>       0.66666896       0.00000000       0.66666896 </v>
   <v>       0.66666896       0.16666893       0.83333104 </v>
   <v>       0.83333104       0.00000000       0.83333104 </v>
   <v>       0.83333104       0.16666893       0.66666896 </v>
   <v>       0.00000000       0.33333107       0.66666896 </v>
   <v>       0.00000000       0.50000000       0.83333103 </v>
   <v>       0.16666893       0.33333107       0.83333104 </v>
   <v>       0.16666893       0.50000000       0.66666896 </v>
   <v>       0.33333107       0.33333107       0.66666896 </v>
   <v>       0.33333107       0.50000000       0.83333104 </v>
   <v>       0.50000000       0.33333107       0.83333104 </v>
   <v>       0.50000000       0.50000000       0.66666897 </v>
   <v>       0.66666896       0.33333107       0.66666896 </v>
   <v>       0.66666896       0.50000000       0.83333104 </v>
   <v>       0.83333104       0.33333107       0.83333104 </v>
   <v>       0.83333104       0.50000000       0.66666896 </v>
   <v>       0.00000000       0.66666896       0.66666896 </v>
   <v>       0.00000000       0.83333104       0.83333104 </v>
   <v>       0.16666893       0.66666896       0.83333104 </v>
   <v>       0.16666893       0.83333104       0.66666896 </v>
   <v>       0.33333107       0.66666896       0.66666896 </v>
   <v>       0.33333107       0.83333104       0.83333104 </v>
   <v>       0.50000000       0.66666896       0.83333104 </v>
   <v>       0.50000000       0.83333104       0.66666896 </v>
   <v>       0.66666896       0.66666896       0.66666896 </v>
   <v>       0.66666896       0.83333104       0.83333104 </v>
   <v>       0.83333104       0.66666896       0.83333104 </v>
   <v>       0.83333104       0.83333104       0.66666896 </v>
  </varray>
 </structure>
 <calculation>
  <scstep>
   <time name="dav">   58.65   58.69</time>
   <time name="total">   58.97   59.01</time>
   <energy>
    <i name="alphaZ">   7300.31925852 </i>
    <i name="ewald"> -66232.83996889 </i>
    <i name="hartreedc"> -11197.02572337 </i>
    <i name="XCdc">    446.63038354 </i>
    <i name="pawpsdc">  51723.88885462 </i>
    <i name="pawaedc"> -52548.28121372 </i>
    <i name="eentropy">      0.02257041 </i>
    <i name="bandstr">  16353.25021594 </i>
    <i name="atom">  64202.56451209 </i>
    <i name="e_fr_energy">  10048.52888916 </i>
    <i name="e_wo_entrp">  10048.50631874 </i>
    <i name="e_0_energy">  10048.52136568 </i>
   </energy>
  </scstep>
  <scstep>
   <time name="dav">   58.15   58.18</time>
   <time name="total">   58.15   58.19</time>
   <energy>
    <i name="e_fr_energy">    429.50596093 </i>
    <i name="e_wo_entrp">    429.51040881 </i>
    <i name="e_0_energy">    429.50744356 </i>
   </energy>
  </scstep>
  <scstep>
   <time name="dav">   58.32   58.33</time>
   <time name="total">   58.33   58.34</time>
   <energy>
    <i name="e_fr_energy">   -806.52063514 </i>
    <i name="e_wo_entrp">   -806.55219387 </i>
    <i name="e_0_energy">   -806.53115472 </i>
   </energy>
  </scstep>
  <scstep>
   <time name="dav">   93.68   93.73</time>
   <time name="total">   93.69   93.74</time>
   <energy>
    <i name="e_fr_energy">  -1025.38952495 </i>
    <i name="e_wo_entrp">  -1025.32746726 </i>
    <i name="e_0_energy">  -1025.36883905 </i>
   </energy>
  </scstep>
  <scstep>
   <time name="dav">   85.80   85.85</time>
   <time name="total">   88.52   88.56</time>
   <energy>
    <i name="e_fr_energy">  -1045.12255167 </i>
    <i name="e_wo_entrp">  -1045.02059554 </i>
    <i name="e_0_energy">  -1045.08856629 </i>
   </energy>
  </scstep>
  <scstep>
   <time name="diag">    8.36    8.37</time>
   <time name="diis">   25.65   25.66</time>
   <time name="orth">    2.40    2.40</time>
   <time name="total">   39.53   39.57</time>
   <energy>
    <i name="e_fr_energy">   -877.07871560 </i>
    <i name="e_wo_entrp">   -877.01773373 </i>
    <i name="e_0_energy">   -877.05838831 </i>
   </energy>
  </scstep>
  <scstep>
   <time name="diag">    8.40    8.40</time>
   <time name="diis">   27.93   27.94</time>
   <time name="orth">    2.41    2.41</time>
   <time name="total">   41.94   41.95</time>
   <energy>
    <i name="e_fr_energy">   -880.24441152 </i>
    <i name="e_wo_entrp">   -880.09558584 </i>
    <i name="e_0_energy">   -880.19480296 </i>
   </energy>
  </scstep>
  <scstep>
   <time name="diag">    8.40    8.40</time>
   <time name="diis">   28.28   28.30</time>
   <time name="orth">    2.43    2.43</time>
   <time name="total">   42.30   42.32</time>
   <energy>
    <i name="e_fr_energy">   -881.85254856 </i>
    <i name="e_wo_entrp">   -881.69578749 </i>
    <i name="e_0_energy">   -881.80029487 </i>
   </energy>
  </scstep>
  <scstep>
   <time name="diag">    8.16    8.16</time>
   <time name="diis">   27.28   27.29</time>
   <time name="orth">    2.37    2.37</time>
   <time name="total">   40.73   40.74</time>
   <energy>
    <i name="e_fr_energy">   -879.50954215 </i>
    <i name="e_wo_entrp">   -879.43859695 </i>
    <i name="e_0_energy">   -879.48589375 </i>
   </energy>
  </scstep>
  <scstep>
   <time name="diag">    8.13    8.13</time>
   <time name="diis">   35.91   35.93</time>
   <time name="orth">    2.40    2.40</time>
   <time name="total">   49.50   49.53</time>
   <energy>
    <i name="e_fr_energy">   -879.53329284 </i>
    <i name="e_wo_entrp">   -879.44952624 </i>
    <i name="e_0_energy">   -879.50537064 </i>
   </energy>
  </scstep>
  <scstep>
   <time name="diag">    7.62    7.63</time>
   <time name="diis">   31.27   31.28</time>
   <time name="orth">    2.36    2.36</time>
   <time name="total">   44.23   44.25</time>
   <energy>
    <i name="e_fr_energy">   -879.52710114 </i>
    <i name="e_wo_entrp">   -879.44641066 </i>
    <i name="e_0_energy">   -879.50020432 </i>
   </energy>
  </scstep>
  <scstep>
   <time name="diag">    7.94    7.94</time>
   <time name="diis">   29.94   29.98</time>
   <time name="orth">    2.43    2.43</time>
   <time name="total">   43.44   43.48</time>
   <energy>
    <i name="e_fr_energy">   -879.52814450 </i>
    <i name="e_wo_entrp">   -879.45015310 </i>
    <i name="e_0_energy">   -879.50214737 </i>
   </energy>
  </scstep>
  <scstep>
   <time name="diag">    8.01    8.02</time>
   <time name="diis">   31.69   31.71</time>
   <time name="orth">    2.42    2.42</time>
   <time name="total">   45.05   45.09</time>
   <energy>
    <i name="e_fr_energy">   -879.52782137 </i>
    <i name="e_wo_entrp">   -879.45165149 </i>
    <i name="e_0_energy">   -879.50243141 </i>
   </energy>
  </scstep>
  <scstep>
   <time name="diag">    8.20    8.20</time>
   <time name="diis">   37.16   37.17</time>
   <time name="orth">    2.43    2.43</time>
   <time name="total">   50.92   50.94</time>
   <energy>
    <i name="e_fr_energy">   -879.52807565 </i>
    <i name="e_wo_entrp">   -879.45249233 </i>
    <i name="e_0_energy">   -879.50288121 </i>
   </energy>
  </scstep>
  <scstep>
   <time name="diag">    8.30    8.31</time>
   <time name="diis">   29.96   29.97</time>
   <time name="orth">    2.43    2.43</time>
   <time name="total">   43.82   43.84</time>
   <energy>
    <i name="e_fr_energy">   -879.52805578 </i>
    <i name="e_wo_entrp">   -879.45293821 </i>
    <i name="e_0_energy">   -879.50301659 </i>
   </energy>
  </scstep>
  <scstep>
   <time name="diag">    8.24    8.24</time>
   <time name="diis">   35.65   35.66</time>
   <time name="orth">    2.42    2.42</time>
   <time name="total">   49.45   49.46</time>
   <energy>
    <i name="e_fr_energy">   -879.52799892 </i>
    <i name="e_wo_entrp">   -879.45334109 </i>
    <i name="e_0_energy">   -879.50311298 </i>
   </energy>
  </scstep>
  <scstep>
   <time name="diag">    7.99    7.99</time>
   <time name="diis">   22.61   22.62</time>
   <time name="orth">    2.43    2.43</time>
   <time name="total">   36.18   36.19</time>
   <energy>
    <i name="e_fr_energy">   -879.52796387 </i>
    <i name="e_wo_entrp">   -879.45368752 </i>
    <i name="e_0_energy">   -879.50320509 </i>
   </energy>
  </scstep>
  <scstep>
   <time name="diag">    8.06    8.06</time>
   <time name="diis">   18.40   18.41</time>
   <time name="orth">    2.42    2.42</time>
   <time name="total">   32.03   32.03</time>
   <energy>
    <i name="e_fr_energy">   -879.52793782 </i>
    <i name="e_wo_entrp">   -879.45398698 </i>
    <i name="e_0_energy">   -879.50328754 </i>
   </energy>
  </scstep>
  <scstep>
   <time name="diag">    8.28    8.28</time>
   <time name="diis">   17.35   17.35</time>
   <time name="orth">    2.42    2.42</time>
   <time name="total">   31.19   31.20</time>
   <energy>
    <i name="e_fr_energy">   -879.52791810 </i>
    <i name="e_wo_entrp">   -879.45421755 </i>
    <i name="e_0_energy">   -879.50335125 </i>
   </energy>
  </scstep>
  <scstep>
   <time name="diag">    8.29    8.29</time>
   <time name="diis">   17.13   17.15</time>
   <time name="orth">    2.39    2.40</time>
   <time name="total">   30.94   30.97</time>
   <energy>
    <i name="e_fr_energy">   -879.52789289 </i>
    <i name="e_wo_entrp">   -879.45450004 </i>
    <i name="e_0_energy">   -879.50342861 </i>
   </energy>
  </scstep>
  <scstep>
   <time name="diag">    8.20    8.20</time>
   <time name="diis">   16.68   16.68</time>
   <time name="orth">    2.41    2.42</time>
   <time name="total">   30.41   30.42</time>
   <energy>
    <i name="e_fr_energy">   -879.52787880 </i>
    <i name="e_wo_entrp">   -879.45466758 </i>
    <i name="e_0_energy">   -879.50347506 </i>
   </energy>
  </scstep>
  <scstep>
   <time name="diag">    7.94    7.96</time>
   <time name="diis">   16.87   16.88</time>
   <time name="orth">    2.42    2.42</time>
   <time name="total">   30.35   30.38</time>
   <energy>
    <i name="e_fr_energy">   -879.52786758 </i>
    <i name="e_wo_entrp">   -879.45480746 </i>
    <i name="e_0_energy">   -879.50351420 </i>
   </energy>
  </scstep>
  <scstep>
   <time name="diag">    8.21    8.21</time>
   <time name="diis">   15.89   15.91</time>
   <time name="orth">    2.42    2.42</time>
   <time name="total">   29.62   29.65</time>
   <energy>
    <i name="e_fr_energy">   -879.52784608 </i>
    <i name="e_wo_entrp">   -879.45504889 </i>
    <i name="e_0_energy">   -879.50358035 </i>
   </energy>
  </scstep>
  <scstep>
   <time name="diag">    8.23    8.23</time>
   <time name="diis">   15.29   15.30</time>
   <time name="orth">    2.44    2.44</time>
   <time name="total">   29.17   29.19</time>
   <energy>
    <i name="e_fr_energy">   -879.52783560 </i>
    <i name="e_wo_entrp">   -879.45517407 </i>
    <i name="e_0_energy">   -879.50361509 </i>
   </energy>
  </scstep>
  <scstep>
   <time name="diag">    8.47    8.48</time>
   <time name="diis">   14.53   14.55</time>
   <time name="orth">    2.43    2.43</time>
   <time name="total">   28.60   28.63</time>
   <energy>
    <i name="e_fr_energy">   -879.52782843 </i>
    <i name="e_wo_entrp">   -879.45526539 </i>
    <i name="e_0_energy">   -879.50364075 </i>
   </energy>
  </scstep>
  <scstep>
   <time name="diag">    8.25    8.25</time>
   <time name="diis">   14.95   14.96</time>
   <time name="orth">    2.43    2.43</time>
   <time name="total">   28.67   28.68</time>
   <energy>
    <i name="e_fr_energy">   -879.52782230 </i>
    <i name="e_wo_entrp">   -879.45534585 </i>
    <i name="e_0_energy">   -879.50366348 </i>
   </energy>
  </scstep>
  <scstep>
   <time name="diag">    8.00    8.01</time>
   <time name="diis">   13.82   13.82</time>
   <time name="orth">    2.45    2.45</time>
   <time name="total">   27.50   27.51</time>
   <energy>
    <i name="e_fr_energy">   -879.52781682 </i>
    <i name="e_wo_entrp">   -879.45541824 </i>
    <i name="e_0_energy">   -879.50368396 </i>
   </energy>
  </scstep>
  <scstep>
   <time name="diag">    8.49    8.49</time>
   <time name="diis">   13.10   13.10</time>
   <time name="orth">    2.42    2.42</time>
   <time name="total">   27.16   27.16</time>
   <energy>
    <i name="e_fr_energy">   -879.52781175 </i>
    <i name="e_wo_entrp">   -879.45548518 </i>
    <i name="e_0_energy">   -879.50370289 </i>
   </energy>
  </scstep>
  <scstep>
   <time name="diag">    8.34    8.34</time>
   <time name="diis">   13.29   13.29</time>
   <time name="orth">    2.44    2.44</time>
   <time name="total">   27.33   27.35</time>
   <energy>
    <i name="e_fr_energy">   -879.52780711 </i>
    <i name="e_wo_entrp">   -879.45554661 </i>
    <i name="e_0_energy">   -879.50372028 </i>
   </energy>
  </scstep>
  <scstep>
   <time name="diag">    8.33    8.33</time>
   <time name="diis">   12.35   12.35</time>
   <time name="orth">    2.40    2.40</time>
   <time name="total">   26.18   26.18</time>
   <energy>
    <i name="e_fr_energy">   -879.52780279 </i>
    <i name="e_wo_entrp">   -879.45560379 </i>
    <i name="e_0_energy">   -879.50373646 </i>
   </energy>
  </scstep>
  <scstep>
   <time name="diag">    8.27    8.27</time>
   <time name="diis">   13.10   13.10</time>
   <time name="orth">    2.41    2.41</time>
   <time name="total">   26.91   26.91</time>
   <energy>
    <i name="e_fr_energy">   -879.52779883 </i>
    <i name="e_wo_entrp">   -879.45565634 </i>
    <i name="e_0_energy">   -879.50375133 </i>
   </energy>
  </scstep>
  <scstep>
   <time name="diag">    8.25    8.25</time>
   <time name="diis">   12.12   12.12</time>
   <time name="orth">    2.38    2.38</time>
   <time name="total">   25.65   25.66</time>
   <energy>
    <i name="e_fr_energy">   -879.52779515 </i>
    <i name="e_wo_entrp">   -879.45570517 </i>
    <i name="e_0_energy">   -879.50376516 </i>
   </energy>
  </scstep>
  <scstep>
   <time name="diag">    8.25    8.25</time>
   <time name="diis">   12.85   12.85</time>
   <time name="orth">    2.42    2.42</time>
   <time name="total">   26.67   26.67</time>
   <energy>
    <i name="e_fr_energy">   -879.52779176 </i>
    <i name="e_wo_entrp">   -879.45575001 </i>
    <i name="e_0_energy">   -879.50377784 </i>
   </energy>
  </scstep>
  <scstep>
   <time name="diag">    8.24    8.24</time>
   <time name="diis">   11.95   11.95</time>
   <time name="orth">    2.41    2.41</time>
   <time name="total">   25.71   25.72</time>
   <energy>
    <i name="e_fr_energy">   -879.52778862 </i>
    <i name="e_wo_entrp">   -879.45579158 </i>
    <i name="e_0_energy">   -879.50378961 </i>
   </energy>
  </scstep>
  <scstep>
   <time name="diag">    8.21    8.21</time>
   <time name="diis">   12.93   12.93</time>
   <time name="orth">    2.44    2.44</time>
   <time name="total">   26.80   26.80</time>
   <energy>
    <i name="e_fr_energy">   -879.52778575 </i>
    <i name="e_wo_entrp">   -879.45582974 </i>
    <i name="e_0_energy">   -879.50380041 </i>
   </energy>
  </scstep>
  <scstep>
   <time name="diag">    8.03    8.03</time>
   <time name="diis">   11.96   11.96</time>
   <time name="orth">    2.46    2.46</time>
   <time name="total">   25.68   25.68</time>
   <energy>
    <i name="e_fr_energy">   -879.52778309 </i>
    <i name="e_wo_entrp">   -879.45586499 </i>
    <i name="e_0_energy">   -879.50381039 </i>
   </energy>
  </scstep>
  <scstep>
   <time name="diag">    8.47    8.47</time>
   <time name="diis">   12.67   12.67</time>
   <time name="orth">    2.45    2.45</time>
   <time name="total">   26.66   26.67</time>
   <energy>
    <i name="e_fr_energy">   -879.52778065 </i>
    <i name="e_wo_entrp">   -879.45589731 </i>
    <i name="e_0_energy">   -879.50381954 </i>
   </energy>
  </scstep>
  <scstep>
   <time name="diag">    7.92    7.92</time>
   <time name="diis">   12.12   12.12</time>
   <time name="orth">    2.45    2.45</time>
   <time name="total">   25.71   25.71</time>
   <energy>
    <i name="e_fr_energy">   -879.52777841 </i>
    <i name="e_wo_entrp">   -879.45592707 </i>
    <i name="e_0_energy">   -879.50382796 </i>
   </energy>
  </scstep>
  <scstep>
   <time name="diag">    8.44    8.45</time>
   <time name="diis">   12.04   12.04</time>
   <time name="orth">    2.44    2.44</time>
   <time name="total">   25.97   25.99</time>
   <energy>
    <i name="e_fr_energy">   -879.52777636 </i>
    <i name="e_wo_entrp">   -879.45595432 </i>
    <i name="e_0_energy">   -879.50383568 </i>
   </energy>
  </scstep>
  <scstep>
   <time name="diag">    8.08    8.08</time>
   <time name="diis">   12.16   12.16</time>
   <time name="orth">    2.35    2.35</time>
   <time name="total">   25.74   25.74</time>
   <energy>
    <i name="e_fr_energy">   -879.52777448 </i>
    <i name="e_wo_entrp">   -879.45597936 </i>
    <i name="e_0_energy">   -879.50384278 </i>
   </energy>
  </scstep>
  <scstep>
   <time name="diag">    8.50    8.51</time>
   <time name="diis">   12.35   12.36</time>
   <time name="orth">    2.45    2.45</time>
   <time name="total">   26.61   26.63</time>
   <energy>
    <i name="e_fr_energy">   -879.52777277 </i>
    <i name="e_wo_entrp">   -879.45600223 </i>
    <i name="e_0_energy">   -879.50384925 </i>
   </energy>
  </scstep>
  <scstep>
   <time name="diag">    7.80    7.81</time>
   <time name="diis">   11.67   11.67</time>
   <time name="orth">    2.46    2.46</time>
   <time name="total">   25.22   25.22</time>
   <energy>
    <i name="e_fr_energy">   -879.52777119 </i>
    <i name="e_wo_entrp">   -879.45602325 </i>
    <i name="e_0_energy">   -879.50385521 </i>
   </energy>
  </scstep>
  <scstep>
   <time name="diag">    8.50    8.50</time>
   <time name="diis">   12.00   12.01</time>
   <time name="orth">    2.40    2.40</time>
   <time name="total">   26.02   26.03</time>
   <energy>
    <i name="e_fr_energy">   -879.52776976 </i>
    <i name="e_wo_entrp">   -879.45604228 </i>
    <i name="e_0_energy">   -879.50386060 </i>
   </energy>
  </scstep>
  <scstep>
   <time name="diag">    8.16    8.17</time>
   <time name="diis">   12.08   12.08</time>
   <time name="orth">    2.46    2.46</time>
   <time name="total">   25.96   25.96</time>
   <energy>
    <i name="e_fr_energy">   -879.52776845 </i>
    <i name="e_wo_entrp">   -879.45605977 </i>
    <i name="e_0_energy">   -879.50386556 </i>
   </energy>
  </scstep>
  <scstep>
   <time name="diag">    8.14    8.14</time>
   <time name="diis">   11.76   11.76</time>
   <time name="orth">    2.43    2.43</time>
   <time name="total">   25.50   25.50</time>
   <energy>
    <i name="e_fr_energy">   -879.52776725 </i>
    <i name="e_wo_entrp">   -879.45607564 </i>
    <i name="e_0_energy">   -879.50387005 </i>
   </energy>
  </scstep>
  <scstep>
   <time name="diag">    8.29    8.29</time>
   <time name="diis">   11.91   11.91</time>
   <time name="orth">    2.38    2.38</time>
   <time name="total">   25.54   25.55</time>
   <energy>
    <i name="e_fr_energy">   -879.52776617 </i>
    <i name="e_wo_entrp">   -879.45609025 </i>
    <i name="e_0_energy">   -879.50387419 </i>
   </energy>
  </scstep>
  <scstep>
   <time name="diag">    8.03    8.03</time>
   <time name="diis">   11.81   11.81</time>
   <time name="orth">    2.41    2.41</time>
   <time name="total">   22.57   22.57</time>
   <energy>
    <i name="alphaZ">   7300.31925852 </i>
    <i name="ewald"> -66232.83996889 </i>
    <i name="hartreedc">  -9349.39431893 </i>
    <i name="XCdc">    360.27262066 </i>
    <i name="pawpsdc">  58040.64317986 </i>
    <i name="pawaedc"> -58975.67066559 </i>
    <i name="eentropy">     -0.07166164 </i>
    <i name="bandstr">   3774.64927874 </i>
    <i name="atom">  64202.56451209 </i>
    <i name="e_fr_energy">   -879.52776518 </i>
    <i name="e_wo_entrp">   -879.45610354 </i>
    <i name="e_0_energy">   -879.50387797 </i>
   </energy>
  </scstep>
  <structure>
   <crystal>
    <varray name="basis" >
     <v>      10.33484705       0.00000000       0.00000000 </v>
     <v>       0.00000000      10.33484705       0.00000000 </v>
     <v>       0.00000000       0.00000000      10.33484705 </v>
    </varray>
    <i name="volume">   1103.85533447 </i>
    <varray name="rec_basis" >
     <v>       0.09676002       0.00000000       0.00000000 </v>
     <v>       0.00000000       0.09676002       0.00000000 </v>
     <v>       0.00000000       0.00000000       0.09676002 </v>
    </varray>
   </crystal>
   <varray name="positions" >
    <v>       0.00000000       0.00000000       0.00000000 </v>
    <v>       0.00000000       0.16666893       0.16666893 </v>
    <v>       0.16666893       0.00000000       0.16666893 </v>
    <v>       0.16666893       0.16666893       0.00000000 </v>
    <v>       0.33333106       0.00000000       0.00000000 </v>
    <v>       0.33333107       0.16666893       0.16666893 </v>
    <v>       0.50000000       0.00000000       0.16666894 </v>
    <v>       0.50000000       0.16666894       0.00000000 </v>
    <v>       0.66666897       0.00000000       0.00000000 </v>
    <v>       0.66666896       0.16666893       0.16666893 </v>
    <v>       0.83333104       0.00000000       0.16666893 </v>
    <v>       0.83333104       0.16666893       0.00000000 </v>
    <v>       0.00000000       0.33333106       0.00000000 </v>
    <v>       0.00000000       0.50000000       0.16666894 </v>
    <v>       0.16666893       0.33333107       0.16666893 </v>
    <v>       0.16666894       0.50000000       0.00000000 </v>
    <v>       0.33333107       0.33333107       0.00000000 </v>
    <v>       0.33333107       0.50000000       0.16666893 </v>
    <v>       0.50000000       0.33333107       0.16666893 </v>
    <v>       0.50000000       0.50000000       0.00000000 </v>
    <v>       0.66666896       0.33333107       0.00000000 </v>
    <v>       0.66666896       0.50000000       0.16666893 </v>
    <v>       0.83333104       0.33333107       0.16666893 </v>
    <v>       0.83333103       0.50000000       0.00000000 </v>
    <v>       0.00000000       0.66666897       0.00000000 </v>
    <v>       0.00000000       0.83333104       0.16666893 </v>
    <v>       0.16666893       0.66666896       0.16666893 </v>
    <v>       0.16666893       0.83333104       0.00000000 </v>
    <v>       0.33333107       0.66666896       0.00000000 </v>
    <v>       0.33333107       0.83333104       0.16666893 </v>
    <v>       0.50000000       0.66666896       0.16666893 </v>
    <v>       0.50000000       0.83333103       0.00000000 </v>
    <v>       0.66666896       0.66666896       0.00000000 </v>
    <v>       0.66666896       0.83333104       0.16666893 </v>
    <v>       0.83333104       0.66666896       0.16666893 </v>
    <v>       0.83333104       0.83333104       0.00000000 </v>
    <v>       0.00000000       0.00000000       0.33333106 </v>
    <v>       0.00000000       0.16666894       0.50000000 </v>
    <v>       0.16666894       0.00000000       0.50000000 </v>
    <v>       0.16666893       0.16666893       0.33333107 </v>
    <v>       0.33333107       0.00000000       0.33333107 </v>
    <v>       0.33333107       0.16666893       0.50000000 </v>
    <v>       0.50000000       0.00000000       0.50000000 </v>
    <v>       0.50000000       0.16666893       0.33333107 </v>
    <v>       0.66666896       0.00000000       0.33333107 </v>
    <v>       0.66666896       0.16666893       0.50000000 </v>
    <v>       0.83333103       0.00000000       0.50000000 </v>
    <v>       0.83333104       0.16666893       0.33333107 </v>
    <v>       0.00000000       0.33333107       0.33333107 </v>
    <v>       0.00000000       0.50000000       0.50000000 </v>
    <v>       0.16666893       0.33333107       0.50000000 </v>
    <v>       0.16666893       0.50000000       0.33333107 </v>
    <v>       0.33333107       0.33333107       0.33333107 </v>
    <v>       0.33333106       0.50000000       0.50000000 </v>
    <v>       0.50000000       0.33333106       0.50000000 </v>
    <v>       0.50000000       0.50000000       0.33333106 </v>
    <v>       0.66666896       0.33333107       0.33333107 </v>
    <v>       0.66666897       0.50000000       0.50000000 </v>
    <v>       0.83333104       0.33333107       0.50000000 </v>
    <v>       0.83333104       0.50000000       0.33333107 </v>
    <v>       0.00000000       0.66666896       0.33333107 </v>
    <v>       0.00000000       0.83333103       0.50000000 </v>
    <v>       0.16666893       0.66666896       0.50000000 </v>
    <v>       0.16666893       0.83333104       0.33333107 </v>
    <v>       0.33333107       0.66666896       0.33333107 </v>
    <v>       0.33333107       0.83333104       0.50000000 </v>
    <v>       0.50000000       0.66666897       0.50000000 </v>
    <v>       0.50000000       0.83333104       0.33333107 </v>
    <v>       0.66666896       0.66666896       0.33333107 </v>
    <v>       0.66666896       0.83333104       0.50000000 </v>
    <v>       0.83333104       0.66666896       0.50000000 </v>
    <v>       0.83333104       0.83333104       0.33333107 </v>
    <v>       0.00000000       0.00000000       0.66666897 </v>
    <v>       0.00000000       0.16666893       0.83333104 </v>
    <v>       0.16666893       0.00000000       0.83333104 </v>
    <v>       0.16666893       0.16666893       0.66666896 </v>
    <v>       0.33333107       0.00000000       0.66666896 </v>
    <v>       0.33333107       0.16666893       0.83333104 </v>
    <v>       0.50000000       0.00000000       0.83333103 </v>
    <v>       0.50000000       0.16666893       0.66666896 </v>
    <v>       0.66666896       0.00000000       0.66666896 </v>
    <v>       0.66666896       0.16666893       0.83333104 </v>
    <v>       0.83333104       0.00000000       0.83333104 </v>
    <v>       0.83333104       0.16666893       0.66666896 </v>
    <v>       0.00000000       0.33333107       0.66666896 </v>
    <v>       0.00000000       0.50000000       0.83333103 </v>
    <v>       0.16666893       0.33333107       0.83333104 </v>
    <v>       0.16666893       0.50000000       0.66666896 </v>
    <v>       0.33333107       0.33333107       0.66666896 </v>
    <v>       0.33333107       0.50000000       0.83333104 </v>
    <v>       0.50000000       0.33333107       0.83333104 </v>
    <v>       0.50000000       0.50000000       0.66666897 </v>
    <v>       0.66666896       0.33333107       0.66666896 </v>
    <v>       0.66666896       0.50000000       0.83333104 </v>
    <v>       0.83333104       0.33333107       0.83333104 </v>
    <v>       0.83333104       0.50000000       0.66666896 </v>
    <v>       0.00000000       0.66666896       0.66666896 </v>
    <v>       0.00000000       0.83333104       0.83333104 </v>
    <v>       0.16666893       0.66666896       0.83333104 </v>
    <v>       0.16666893       0.83333104       0.66666896 </v>
    <v>       0.33333107       0.66666896       0.66666896 </v>
    <v>       0.33333107       0.83333104       0.83333104 </v>
    <v>       0.50000000       0.66666896       0.83333104 </v>
    <v>       0.50000000       0.83333104       0.66666896 </v>
    <v>       0.66666896       0.66666896       0.66666896 </v>
    <v>       0.66666896       0.83333104       0.83333104 </v>
    <v>       0.83333104       0.66666896       0.83333104 </v>
    <v>       0.83333104       0.83333104       0.66666896 </v>
   </varray>
  </structure>
  <varray name="forces" >
   <v>       0.00000000      -0.00000000       0.00000000 </v>
   <v>      -0.00000000      -0.00000000      -0.00000000 </v>
   <v>      -0.00000000       0.00000000       0.00000000 </v>
   <v>       0.00000000      -0.00000000      -0.00000000 </v>
   <v>       0.00000000       0.00000000       0.00000000 </v>
   <v>       0.00000000       0.00000000       0.00000000 </v>
   <v>      -0.00000000       0.00000000      -0.00000000 </v>
   <v>      -0.00000000       0.00000000       0.00000000 </v>
   <v>       0.00000000       0.00000000      -0.00000000 </v>
   <v>       0.00000000       0.00000000      -0.00000000 </v>
   <v>       0.00000000       0.00000000      -0.00000000 </v>
   <v>       0.00000000       0.00000000       0.00000000 </v>
   <v>      -0.00000000      -0.00000000       0.00000000 </v>
   <v>       0.00000000       0.00000000      -0.00000000 </v>
   <v>       0.00000000      -0.00000000      -0.00000000 </v>
   <v>       0.00000000      -0.00000000       0.00000000 </v>
   <v>       0.00000000       0.00000000      -0.00000000 </v>
   <v>      -0.00000000      -0.00000000       0.00000000 </v>
   <v>      -0.00000000       0.00000000      -0.00000000 </v>
   <v>       0.00000000       0.00000000      -0.00000000 </v>
   <v>       0.00000000      -0.00000000      -0.00000000 </v>
   <v>      -0.00000000       0.00000000      -0.00000000 </v>
   <v>      -0.00000000       0.00000000      -0.00000000 </v>
   <v>      -0.00000000       0.00000000       0.00000000 </v>
   <v>      -0.00000000      -0.00000000       0.00000000 </v>
   <v>      -0.00000000      -0.00000000       0.00000000 </v>
   <v>      -0.00000000      -0.00000000      -0.00000000 </v>
   <v>      -0.00000000       0.00000000      -0.00000000 </v>
   <v>      -0.00000000       0.00000000      -0.00000000 </v>
   <v>       0.00000000      -0.00000000       0.00000000 </v>
   <v>       0.00000000      -0.00000000      -0.00000000 </v>
   <v>      -0.00000000      -0.00000000       0.00000000 </v>
   <v>       0.00000000       0.00000000      -0.00000000 </v>
   <v>      -0.00000000      -0.00000000      -0.00000000 </v>
   <v>       0.00000000      -0.00000000      -0.00000000 </v>
   <v>       0.00000000      -0.00000000      -0.00000000 </v>
   <v>      -0.00000000      -0.00000000      -0.00000000 </v>
   <v>       0.00000000       0.00000000      -0.00000000 </v>
   <v>       0.00000000       0.00000000      -0.00000000 </v>
   <v>       0.00000000       0.00000000       0.00000000 </v>
   <v>      -0.00000000      -0.00000000       0.00000000 </v>
   <v>      -0.00000000       0.00000000       0.00000000 </v>
   <v>       0.00000000       0.00000000       0.00000000 </v>
   <v>       0.00000000      -0.00000000      -0.00000000 </v>
   <v>       0.00000000       0.00000000       0.00000000 </v>
   <v>      -0.00000000      -0.00000000      -0.00000000 </v>
   <v>       0.00000000       0.00000000      -0.00000000 </v>
   <v>      -0.00000000       0.00000000       0.00000000 </v>
   <v>       0.00000000       0.00000000      -0.00000000 </v>
   <v>       0.00000000       0.00000000      -0.00000000 </v>
   <v>      -0.00000000      -0.00000000      -0.00000000 </v>
   <v>       0.00000000       0.00000000       0.00000000 </v>
   <v>       0.00000000       0.00000000      -0.00000000 </v>
   <v>      -0.00000000       0.00000000       0.00000000 </v>
   <v>       0.00000000       0.00000000       0.00000000 </v>
   <v>       0.00000000      -0.00000000       0.00000000 </v>
   <v>      -0.00000000      -0.00000000       0.00000000 </v>
   <v>       0.00000000      -0.00000000       0.00000000 </v>
   <v>       0.00000000       0.00000000       0.00000000 </v>
   <v>       0.00000000      -0.00000000      -0.00000000 </v>
   <v>       0.00000000      -0.00000000      -0.00000000 </v>
   <v>       0.00000000       0.00000000       0.00000000 </v>
   <v>       0.00000000      -0.00000000      -0.00000000 </v>
   <v>       0.00000000      -0.00000000       0.00000000 </v>
   <v>       0.00000000       0.00000000       0.00000000 </v>
   <v>      -0.00000000      -0.00000000      -0.00000000 </v>
   <v>       0.00000000       0.00000000       0.00000000 </v>
   <v>      -0.00000000      -0.00000000      -0.00000000 </v>
   <v>      -0.00000000       0.00000000       0.00000000 </v>
   <v>      -0.00000000       0.00000000       0.00000000 </v>
   <v>      -0.00000000       0.00000000       0.00000000 </v>
   <v>       0.00000000      -0.00000000       0.00000000 </v>
   <v>      -0.00000000      -0.00000000       0.00000000 </v>
   <v>      -0.00000000      -0.00000000       0.00000000 </v>
   <v>      -0.00000000       0.00000000      -0.00000000 </v>
   <v>      -0.00000000       0.00000000       0.00000000 </v>
   <v>      -0.00000000      -0.00000000      -0.00000000 </v>
   <v>       0.00000000      -0.00000000       0.00000000 </v>
   <v>      -0.00000000       0.00000000      -0.00000000 </v>
   <v>       0.00000000      -0.00000000       0.00000000 </v>
   <v>       0.00000000       0.00000000      -0.00000000 </v>
   <v>      -0.00000000       0.00000000      -0.00000000 </v>
   <v>       0.00000000       0.00000000       0.00000000 </v>
   <v>       0.00000000      -0.00000000       0.00000000 </v>
   <v>      -0.00000000       0.00000000       0.00000000 </v>
   <v>       0.00000000      -0.00000000       0.00000000 </v>
   <v>       0.00000000      -0.00000000      -0.00000000 </v>
   <v>       0.00000000       0.00000000       0.00000000 </v>
   <v>      -0.00000000       0.00000000       0.00000000 </v>
   <v>      -0.00000000       0.00000000      -0.00000000 </v>
   <v>      -0.00000000       0.00000000       0.00000000 </v>
   <v>       0.00000000       0.00000000      -0.00000000 </v>
   <v>       0.00000000       0.00000000      -0.00000000 </v>
   <v>      -0.00000000      -0.00000000      -0.00000000 </v>
   <v>       0.00000000       0.00000000      -0.00000000 </v>
   <v>       0.00000000       0.00000000       0.00000000 </v>
   <v>      -0.00000000      -0.00000000       0.00000000 </v>
   <v>      -0.00000000      -0.00000000       0.00000000 </v>
   <v>      -0.00000000      -0.00000000      -0.00000000 </v>
   <v>       0.00000000       0.00000000      -0.00000000 </v>
   <v>       0.00000000      -0.00000000      -0.00000000 </v>
   <v>       0.00000000      -0.00000000       0.00000000 </v>
   <v>       0.00000000      -0.00000000       0.00000000 </v>
   <v>       0.00000000      -0.00000000       0.00000000 </v>
   <v>      -0.00000000       0.00000000      -0.00000000 </v>
   <v>       0.00000000       0.00000000       0.00000000 </v>
   <v>      -0.00000000       0.00000000       0.00000000 </v>
   <v>      -0.00000000      -0.00000000      -0.00000000 </v>
  </varray>
  <varray name="stress" >
   <v>       6.95648406      -0.00000000      -0.00000000 </v>
   <v>      -0.00000000       6.95648406      -0.00000000 </v>
   <v>       0.00000000       0.00000000       6.95648406 </v>
  </varray>
  <energy>
   <i name="e_fr_energy">   -879.52776518 </i>
   <i name="e_wo_entrp">   -879.50387797 </i>
   <i name="e_0_energy">     -0.07166164 </i>
  </energy>
  <time name="totalsc"> 1762.01 1762.78</time>
 </calculation>
 <calculation>
  <scstep>
   <time name="dav">   52.27   52.27</time>
   <time name="total">   54.94   54.94</time>
   <energy>
    <i name="alphaZ">   7253.63128810 </i>
    <i name="ewald"> -66091.34421910 </i>
    <i name="hartreedc">  -9329.42060527 </i>
    <i name="XCdc">    353.92940089 </i>
    <i name="pawpsdc">  58040.64245606 </i>
    <i name="pawaedc"> -58975.66990826 </i>
    <i name="eentropy">     -0.08521068 </i>
    <i name="bandstr">   3665.89955176 </i>
    <i name="atom">  64202.56451209 </i>
    <i name="e_fr_energy">   -879.85273441 </i>
    <i name="e_wo_entrp">   -879.76752374 </i>
    <i name="e_0_energy">   -879.82433086 </i>
   </energy>
  </scstep>
  <scstep>
   <time name="diag">    6.88    6.88</time>
   <time name="diis">   20.42   20.42</time>
   <time name="orth">    2.15    2.15</time>
   <time name="total">   32.10   32.10</time>
   <energy>
    <i name="e_fr_energy">   -879.52832364 </i>
    <i name="e_wo_entrp">   -879.46376220 </i>
    <i name="e_0_energy">   -879.50680316 </i>
   </energy>
  </scstep>
  <scstep>
   <time name="diag">    6.59    6.59</time>
   <time name="diis">   22.73   22.73</time>
   <time name="orth">    2.08    2.08</time>
   <time name="total">   33.94   33.94</time>
   <energy>
    <i name="e_fr_energy">   -879.52659258 </i>
    <i name="e_wo_entrp">   -879.46048607 </i>
    <i name="e_0_energy">   -879.50455708 </i>
   </energy>
  </scstep>
  <scstep>
   <time name="diag">    6.71    6.71</time>
   <time name="diis">   20.52   20.52</time>
   <time name="orth">    2.11    2.11</time>
   <time name="total">   31.87   31.87</time>
   <energy>
    <i name="e_fr_energy">   -879.52176273 </i>
    <i name="e_wo_entrp">   -879.45229868 </i>
    <i name="e_0_energy">   -879.49860805 </i>
   </energy>
  </scstep>
  <scstep>
   <time name="diag">    6.97    6.97</time>
   <time name="diis">   20.30   20.30</time>
   <time name="orth">    2.15    2.15</time>
   <time name="total">   32.04   32.04</time>
   <energy>
    <i name="e_fr_energy">   -879.51995282 </i>
    <i name="e_wo_entrp">   -879.45309826 </i>
    <i name="e_0_energy">   -879.49766797 </i>
   </energy>
  </scstep>
  <scstep>
   <time name="diag">    6.88    6.88</time>
   <time name="diis">   22.30   22.30</time>
   <time name="orth">    2.15    2.15</time>
   <time name="total">   33.82   33.82</time>
   <energy>
    <i name="e_fr_energy">   -879.51951405 </i>
    <i name="e_wo_entrp">   -879.45277176 </i>
    <i name="e_0_energy">   -879.49726662 </i>
   </energy>
  </scstep>
  <scstep>
   <time name="diag">    6.62    6.62</time>
   <time name="diis">   20.66   20.66</time>
   <time name="orth">    2.11    2.11</time>
   <time name="total">   31.91   31.91</time>
   <energy>
    <i name="e_fr_energy">   -879.51935630 </i>
    <i name="e_wo_entrp">   -879.45230528 </i>
    <i name="e_0_energy">   -879.49700596 </i>
   </energy>
  </scstep>
  <scstep>
   <time name="diag">    6.81    6.81</time>
   <time name="diis">   20.99   20.99</time>
   <time name="orth">    2.12    2.12</time>
   <time name="total">   32.55   32.55</time>
   <energy>
    <i name="e_fr_energy">   -879.51935083 </i>
    <i name="e_wo_entrp">   -879.45214527 </i>
    <i name="e_0_energy">   -879.49694898 </i>
   </energy>
  </scstep>
  <scstep>
   <time name="diag">    6.95    6.95</time>
   <time name="diis">   20.88   20.88</time>
   <time name="orth">    2.15    2.15</time>
   <time name="total">   32.60   32.60</time>
   <energy>
    <i name="e_fr_energy">   -879.51937268 </i>
    <i name="e_wo_entrp">   -879.45206176 </i>
    <i name="e_0_energy">   -879.49693571 </i>
   </energy>
  </scstep>
  <scstep>
   <time name="diag">    6.56    6.56</time>
   <time name="diis">   20.81   20.82</time>
   <time name="orth">    2.09    2.09</time>
   <time name="total">   31.99   32.00</time>
   <energy>
    <i name="e_fr_energy">   -879.51937293 </i>
    <i name="e_wo_entrp">   -879.45208053 </i>
    <i name="e_0_energy">   -879.49694213 </i>
   </energy>
  </scstep>
  <scstep>
   <time name="diag">    6.71    6.71</time>
   <time name="diis">   12.11   12.12</time>
   <time name="orth">    2.08    2.08</time>
   <time name="total">   21.21   21.22</time>
   <energy>
    <i name="alphaZ">   7253.63128810 </i>
    <i name="ewald"> -66091.34421910 </i>
    <i name="hartreedc">  -9399.42119119 </i>
    <i name="XCdc">    358.05824223 </i>
    <i name="pawpsdc">  57870.28638662 </i>
    <i name="pawaedc"> -58802.09031102 </i>
    <i name="eentropy">     -0.06728804 </i>
    <i name="bandstr">   3728.86320800 </i>
    <i name="atom">  64202.56451209 </i>
    <i name="e_fr_energy">   -879.51937231 </i>
    <i name="e_wo_entrp">   -879.45208427 </i>
    <i name="e_0_energy">   -879.49694296 </i>
   </energy>
  </scstep>
  <structure>
   <crystal>
    <varray name="basis" >
     <v>      10.35697305      -0.00000000      -0.00000000 </v>
     <v>      -0.00000000      10.35697305      -0.00000000 </v>
     <v>       0.00000000       0.00000000      10.35697305 </v>
    </varray>
    <i name="volume">   1110.96029517 </i>
    <varray name="rec_basis" >
     <v>       0.09655331       0.00000000      -0.00000000 </v>
     <v>       0.00000000       0.09655331      -0.00000000 </v>
     <v>       0.00000000       0.00000000       0.09655331 </v>
    </varray>
   </crystal>
   <varray name="positions" >
    <v>       0.00000000      -0.00000000       0.00000000 </v>
    <v>      -0.00000000       0.16666893       0.16666893 </v>
    <v>       0.16666893       0.00000000       0.16666893 </v>
    <v>       0.16666893       0.16666893      -0.00000000 </v>
    <v>       0.33333106       0.00000000       0.00000000 </v>
    <v>       0.33333107       0.16666893       0.16666893 </v>
    <v>       0.50000000       0.00000000       0.16666894 </v>
    <v>       0.50000000       0.16666894       0.00000000 </v>
    <v>       0.66666897       0.00000000      -0.00000000 </v>
    <v>       0.66666896       0.16666893       0.16666893 </v>
    <v>       0.83333104       0.00000000       0.16666893 </v>
    <v>       0.83333104       0.16666893       0.00000000 </v>
    <v>      -0.00000000       0.33333106       0.00000000 </v>
    <v>       0.00000000       0.50000000       0.16666894 </v>
    <v>       0.16666893       0.33333107       0.16666893 </v>
    <v>       0.16666894       0.50000000       0.00000000 </v>
    <v>       0.33333107       0.33333107      -0.00000000 </v>
    <v>       0.33333107       0.50000000       0.16666893 </v>
    <v>       0.50000000       0.33333107       0.16666893 </v>
    <v>       0.50000000       0.50000000      -0.00000000 </v>
    <v>       0.66666896       0.33333107      -0.00000000 </v>
    <v>       0.66666896       0.50000000       0.16666893 </v>
    <v>       0.83333104       0.33333107       0.16666893 </v>
    <v>       0.83333103       0.50000000       0.00000000 </v>
    <v>      -0.00000000       0.66666897       0.00000000 </v>
    <v>      -0.00000000       0.83333104       0.16666893 </v>
    <v>       0.16666893       0.66666896       0.16666893 </v>
    <v>       0.16666893       0.83333104      -0.00000000 </v>
    <v>       0.33333107       0.66666896      -0.00000000 </v>
    <v>       0.33333107       0.83333104       0.16666893 </v>
    <v>       0.50000000       0.66666896       0.16666893 </v>
    <v>       0.50000000       0.83333103       0.00000000 </v>
    <v>       0.66666896       0.66666896      -0.00000000 </v>
    <v>       0.66666896       0.83333104       0.16666893 </v>
    <v>       0.83333104       0.66666896       0.16666893 </v>
    <v>       0.83333104       0.83333104      -0.00000000 </v>
    <v>      -0.00000000      -0.00000000       0.33333106 </v>
    <v>       0.00000000       0.16666894       0.50000000 </v>
    <v>       0.16666894       0.00000000       0.50000000 </v>
    <v>       0.16666893       0.16666893       0.33333107 </v>
    <v>       0.33333107      -0.00000000       0.33333107 </v>
    <v>       0.33333107       0.16666893       0.50000000 </v>
    <v>       0.50000000       0.00000000       0.50000000 </v>
    <v>       0.50000000       0.16666893       0.33333107 </v>
    <v>       0.66666896       0.00000000       0.33333107 </v>
    <v>       0.66666896       0.16666893       0.50000000 </v>
    <v>       0.83333103       0.00000000       0.50000000 </v>
    <v>       0.83333104       0.16666893       0.33333107 </v>
    <v>       0.00000000       0.33333107       0.33333107 </v>
    <v>       0.00000000       0.50000000       0.50000000 </v>
    <v>       0.16666893       0.33333107       0.50000000 </v>
    <v>       0.16666893       0.50000000       0.33333107 </v>
    <v>       0.33333107       0.33333107       0.33333107 </v>
    <v>       0.33333106       0.50000000       0.50000000 </v>
    <v>       0.50000000       0.33333106       0.50000000 </v>
    <v>       0.50000000       0.50000000       0.33333106 </v>
    <v>       0.66666896       0.33333107       0.33333107 </v>
    <v>       0.66666897       0.50000000       0.50000000 </v>
    <v>       0.83333104       0.33333107       0.50000000 </v>
    <v>       0.83333104       0.50000000       0.33333107 </v>
    <v>       0.00000000       0.66666896       0.33333107 </v>
    <v>       0.00000000       0.83333103       0.50000000 </v>
    <v>       0.16666893       0.66666896       0.50000000 </v>
    <v>       0.16666893       0.83333104       0.33333107 </v>
    <v>       0.33333107       0.66666896       0.33333107 </v>
    <v>       0.33333107       0.83333104       0.50000000 </v>
    <v>       0.50000000       0.66666897       0.50000000 </v>
    <v>       0.50000000       0.83333104       0.33333107 </v>
    <v>       0.66666896       0.66666896       0.33333107 </v>
    <v>       0.66666896       0.83333104       0.50000000 </v>
    <v>       0.83333104       0.66666896       0.50000000 </v>
    <v>       0.83333104       0.83333104       0.33333107 </v>
    <v>      -0.00000000      -0.00000000       0.66666897 </v>
    <v>      -0.00000000       0.16666893       0.83333104 </v>
    <v>       0.16666893       0.00000000       0.83333104 </v>
    <v>       0.16666893       0.16666893       0.66666896 </v>
    <v>       0.33333107      -0.00000000       0.66666896 </v>
    <v>       0.33333107       0.16666893       0.83333104 </v>
    <v>       0.50000000       0.00000000       0.83333103 </v>
    <v>       0.50000000       0.16666893       0.66666896 </v>
    <v>       0.66666896       0.00000000       0.66666896 </v>
    <v>       0.66666896       0.16666893       0.83333104 </v>
    <v>       0.83333104       0.00000000       0.83333104 </v>
    <v>       0.83333104       0.16666893       0.66666896 </v>
    <v>      -0.00000000       0.33333107       0.66666896 </v>
    <v>       0.00000000       0.50000000       0.83333103 </v>
    <v>       0.16666893       0.33333107       0.83333104 </v>
    <v>       0.16666893       0.50000000       0.66666896 </v>
    <v>       0.33333107       0.33333107       0.66666896 </v>
    <v>       0.33333107       0.50000000       0.83333104 </v>
    <v>       0.50000000       0.33333107       0.83333104 </v>
    <v>       0.50000000       0.50000000       0.66666897 </v>
    <v>       0.66666896       0.33333107       0.66666896 </v>
    <v>       0.66666896       0.50000000       0.83333104 </v>
    <v>       0.83333104       0.33333107       0.83333104 </v>
    <v>       0.83333104       0.50000000       0.66666896 </v>
    <v>      -0.00000000       0.66666896       0.66666896 </v>
    <v>      -0.00000000       0.83333104       0.83333104 </v>
    <v>       0.16666893       0.66666896       0.83333104 </v>
    <v>       0.16666893       0.83333104       0.66666896 </v>
    <v>       0.33333107       0.66666896       0.66666896 </v>
    <v>       0.33333107       0.83333104       0.83333104 </v>
    <v>       0.50000000       0.66666896       0.83333104 </v>
    <v>       0.50000000       0.83333104       0.66666896 </v>
    <v>       0.66666896       0.66666896       0.66666896 </v>
    <v>       0.66666896       0.83333104       0.83333104 </v>
    <v>       0.83333104       0.66666896       0.83333104 </v>
    <v>       0.83333104       0.83333104       0.66666896 </v>
   </varray>
  </structure>
  <varray name="forces" >
   <v>      -0.00000000       0.00000000      -0.00000000 </v>
   <v>      -0.00000000      -0.00000000      -0.00000000 </v>
   <v>      -0.00000000      -0.00000000      -0.00000000 </v>
   <v>      -0.00000000       0.00000000       0.00000000 </v>
   <v>      -0.00000000       0.00000000      -0.00000000 </v>
   <v>      -0.00000000      -0.00000000      -0.00000000 </v>
   <v>      -0.00000000      -0.00000000       0.00000000 </v>
   <v>       0.00000000      -0.00000000      -0.00000000 </v>
   <v>       0.00000000       0.00000000      -0.00000000 </v>
   <v>       0.00000000      -0.00000000      -0.00000000 </v>
   <v>       0.00000000      -0.00000000      -0.00000000 </v>
   <v>      -0.00000000      -0.00000000      -0.00000000 </v>
   <v>      -0.00000000      -0.00000000       0.00000000 </v>
   <v>      -0.00000000      -0.00000000       0.00000000 </v>
   <v>       0.00000000      -0.00000000      -0.00000000 </v>
   <v>      -0.00000000       0.00000000       0.00000000 </v>
   <v>      -0.00000000       0.00000000       0.00000000 </v>
   <v>       0.00000000      -0.00000000       0.00000000 </v>
   <v>      -0.00000000       0.00000000       0.00000000 </v>
   <v>       0.00000000       0.00000000      -0.00000000 </v>
   <v>       0.00000000       0.00000000       0.00000000 </v>
   <v>       0.00000000       0.00000000       0.00000000 </v>
   <v>       0.00000000      -0.00000000      -0.00000000 </v>
   <v>       0.00000000      -0.00000000       0.00000000 </v>
   <v>      -0.00000000       0.00000000       0.00000000 </v>
   <v>      -0.00000000       0.00000000      -0.00000000 </v>
   <v>       0.00000000       0.00000000      -0.00000000 </v>
   <v>      -0.00000000      -0.00000000      -0.00000000 </v>
   <v>      -0.00000000      -0.00000000      -0.00000000 </v>
   <v>       0.00000000       0.00000000      -0.00000000 </v>
   <v>      -0.00000000       0.00000000       0.00000000 </v>
   <v>      -0.00000000       0.00000000      -0.00000000 </v>
   <v>       0.00000000       0.00000000       0.00000000 </v>
   <v>       0.00000000      -0.00000000       0.00000000 </v>
   <v>       0.00000000       0.00000000       0.00000000 </v>
   <v>      -0.00000000       0.00000000      -0.00000000 </v>
   <v>      -0.00000000       0.00000000       0.00000000 </v>
   <v>      -0.00000000      -0.00000000      -0.00000000 </v>
   <v>       0.00000000       0.00000000      -0.00000000 </v>
   <v>       0.00000000      -0.00000000       0.00000000 </v>
   <v>      -0.00000000       0.00000000       0.00000000 </v>
   <v>      -0.00000000      -0.00000000      -0.00000000 </v>
   <v>       0.00000000      -0.00000000       0.00000000 </v>
   <v>       0.00000000      -0.00000000       0.00000000 </v>
   <v>       0.00000000       0.00000000       0.00000000 </v>
   <v>       0.00000000       0.00000000      -0.00000000 </v>
   <v>      -0.00000000       0.00000000       0.00000000 </v>
   <v>       0.00000000      -0.00000000      -0.00000000 </v>
   <v>      -0.00000000       0.00000000       0.00000000 </v>
   <v>      -0.00000000      -0.00000000       0.00000000 </v>
   <v>       0.00000000      -0.00000000      -0.00000000 </v>
   <v>      -0.00000000       0.00000000      -0.00000000 </v>
   <v>       0.00000000       0.00000000      -0.00000000 </v>
   <v>      -0.00000000      -0.00000000       0.00000000 </v>
   <v>       0.00000000       0.00000000       0.00000000 </v>
   <v>      -0.00000000      -0.00000000       0.00000000 </v>
   <v>       0.00000000      -0.00000000      -0.00000000 </v>
   <v>       0.00000000       0.00000000       0.00000000 </v>
   <v>       0.00000000      -0.00000000      -0.00000000 </v>
   <v>       0.00000000      -0.00000000      -0.00000000 </v>
   <v>      -0.00000000      -0.00000000      -0.00000000 </v>
   <v>      -0.00000000       0.00000000       0.00000000 </v>
   <v>       0.00000000       0.00000000      -0.00000000 </v>
   <v>       0.00000000      -0.00000000       0.00000000 </v>
   <v>      -0.00000000       0.00000000      -0.00000000 </v>
   <v>       0.00000000       0.00000000      -0.00000000 </v>
   <v>      -0.00000000       0.00000000       0.00000000 </v>
   <v>      -0.00000000      -0.00000000       0.00000000 </v>
   <v>       0.00000000       0.00000000      -0.00000000 </v>
   <v>       0.00000000       0.00000000       0.00000000 </v>
   <v>       0.00000000       0.00000000      -0.00000000 </v>
   <v>      -0.00000000      -0.00000000       0.00000000 </v>
   <v>      -0.00000000       0.00000000      -0.00000000 </v>
   <v>      -0.00000000       0.00000000       0.00000000 </v>
   <v>       0.00000000       0.00000000       0.00000000 </v>
   <v>       0.00000000      -0.00000000       0.00000000 </v>
   <v>      -0.00000000       0.00000000      -0.00000000 </v>
   <v>       0.00000000      -0.00000000       0.00000000 </v>
   <v>       0.00000000      -0.00000000      -0.00000000 </v>
   <v>       0.00000000      -0.00000000      -0.00000000 </v>
   <v>       0.00000000       0.00000000      -0.00000000 </v>
   <v>       0.00000000       0.00000000       0.00000000 </v>
   <v>      -0.00000000      -0.00000000       0.00000000 </v>
   <v>      -0.00000000      -0.00000000       0.00000000 </v>
   <v>      -0.00000000      -0.00000000      -0.00000000 </v>
   <v>      -0.00000000      -0.00000000      -0.00000000 </v>
   <v>       0.00000000      -0.00000000       0.00000000 </v>
   <v>      -0.00000000       0.00000000      -0.00000000 </v>
   <v>      -0.00000000      -0.00000000       0.00000000 </v>
   <v>       0.00000000      -0.00000000      -0.00000000 </v>
[...]
       <r>    -1.8073     2.7576     0.3926 </r>
       <r>    -1.7619     3.2820     0.5415 </r>
       <r>    -1.7166     3.6583     0.7075 </r>
       <r>    -1.6712     3.8603     0.8827 </r>
       <r>    -1.6258     3.9340     1.0612 </r>
       <r>    -1.5804     3.9643     1.2411 </r>
       <r>    -1.5350     4.0307     1.4241 </r>
       <r>    -1.4897     4.1862     1.6140 </r>
       <r>    -1.4443     4.4600     1.8164 </r>
       <r>    -1.3989     4.8644     2.0372 </r>
       <r>    -1.3535     5.3958     2.2821 </r>
       <r>    -1.3081     6.0228     2.5554 </r>
       <r>    -1.2627     6.6612     2.8577 </r>
       <r>    -1.2174     7.1586     3.1826 </r>
       <r>    -1.1720     7.3310     3.5153 </r>
       <r>    -1.1266     7.0666     3.8359 </r>
       <r>    -1.0812     6.4293     4.1277 </r>
       <r>    -1.0358     5.6715     4.3851 </r>
       <r>    -0.9905     5.1299     4.6179 </r>
       <r>    -0.9451     5.0728     4.8481 </r>
       <r>    -0.8997     5.5985     5.1022 </r>
       <r>    -0.8543     6.6297     5.4031 </r>
       <r>    -0.8089     7.9757     5.7650 </r>
       <r>    -0.7635     9.3952     6.1914 </r>
       <r>    -0.7182    10.6149     6.6731 </r>
       <r>    -0.6728    11.3359     7.1876 </r>
       <r>    -0.6274    11.3013     7.7004 </r>
       <r>    -0.5820    10.4418     8.1743 </r>
       <r>    -0.5366     8.9988     8.5827 </r>
       <r>    -0.4913     7.4903     8.9226 </r>
       <r>    -0.4459     6.4962     9.2174 </r>
       <r>    -0.4005     6.3934     9.5076 </r>
       <r>    -0.3551     7.2070     9.8346 </r>
       <r>    -0.3097     8.6474    10.2271 </r>
       <r>    -0.2643    10.2704    10.6931 </r>
       <r>    -0.2190    11.6479    11.2217 </r>
       <r>    -0.1736    12.4819    11.7882 </r>
       <r>    -0.1282    12.6665    12.3630 </r>
       <r>    -0.0828    12.3135    12.9218 </r>
       <r>    -0.0374    11.7223    13.4538 </r>
       <r>     0.0079    11.2632    13.9650 </r>
       <r>     0.0533    11.2071    14.4736 </r>
       <r>     0.0987    11.6042    15.0002 </r>
       <r>     0.1441    12.2950    15.5581 </r>
       <r>     0.1895    13.0360    16.1497 </r>
       <r>     0.2349    13.6370    16.7686 </r>
       <r>     0.2802    14.0161    17.4047 </r>
       <r>     0.3256    14.1637    18.0475 </r>
       <r>     0.3710    14.0829    18.6866 </r>
       <r>     0.4164    13.7700    19.3115 </r>
       <r>     0.4618    13.2475    19.9127 </r>
       <r>     0.5071    12.6191    20.4853 </r>
       <r>     0.5525    12.1142    21.0351 </r>
       <r>     0.5979    12.0780    21.5832 </r>
       <r>     0.6433    12.8569    22.1667 </r>
       <r>     0.6887    14.5849    22.8286 </r>
       <r>     0.7341    16.9913    23.5997 </r>
       <r>     0.7794    19.4177    24.4809 </r>
       <r>     0.8248    21.1152    25.4391 </r>
       <r>     0.8702    21.6619    26.4222 </r>
       <r>     0.9156    21.1930    27.3840 </r>
       <r>     0.9610    20.2506    28.3030 </r>
       <r>     1.0063    19.3574    29.1815 </r>
       <r>     1.0517    18.6648    30.0285 </r>
       <r>     1.0971    17.9726    30.8441 </r>
       <r>     1.1425    17.1052    31.6204 </r>
       <r>     1.1879    16.2983    32.3600 </r>
       <r>     1.2333    16.2303    33.0966 </r>
       <r>     1.2786    17.6327    33.8968 </r>
       <r>     1.3240    20.7609    34.8390 </r>
       <r>     1.3694    25.1039    35.9782 </r>
       <r>     1.4148    29.5139    37.3176 </r>
       <r>     1.4602    32.6701    38.8003 </r>
       <r>     1.5055    33.6374    40.3268 </r>
       <r>     1.5509    32.2855    41.7920 </r>
       <r>     1.5963    29.4132    43.1268 </r>
       <r>     1.6417    26.5389    44.3312 </r>
       <r>     1.6871    25.4361    45.4855 </r>
       <r>     1.7325    27.5723    46.7368 </r>
       <r>     1.7778    33.6356    48.2632 </r>
       <r>     1.8232    43.3060    50.2285 </r>
       <r>     1.8686    55.3811    52.7418 </r>
       <r>     1.9140    68.2311    55.8383 </r>
       <r>     1.9594    80.3498    59.4847 </r>
       <r>     2.0047    90.6758    63.5997 </r>
       <r>     2.0501    98.5563    68.0724 </r>
       <r>     2.0955   103.5783    72.7730 </r>
       <r>     2.1409   105.6061    77.5656 </r>
       <r>     2.1863   105.0596    82.3334 </r>
       <r>     2.2317   103.0955    87.0120 </r>
       <r>     2.2770   101.3483    91.6114 </r>
       <r>     2.3224   101.2566    96.2066 </r>
       <r>     2.3678   103.3688   100.8977 </r>
       <r>     2.4132   107.0945   105.7578 </r>
       <r>     2.4586   111.1263   110.8009 </r>
       <r>     2.5039   114.3446   115.9901 </r>
       <r>     2.5493   116.6279   121.2829 </r>
       <r>     2.5947   118.9409   126.6806 </r>
       <r>     2.6401   122.5545   132.2424 </r>
       <r>     2.6855   127.9846   138.0506 </r>
       <r>     2.7309   134.5515   144.1568 </r>
       <r>     2.7762   140.9588   150.5537 </r>
       <r>     2.8216   146.3723   157.1964 </r>
       <r>     2.8670   151.0194   164.0499 </r>
       <r>     2.9124   155.7755   171.1193 </r>
       <r>     2.9578   161.1282   178.4316 </r>
       <r>     3.0031   166.4652   185.9861 </r>
       <r>     3.0485   170.3330   193.7161 </r>
       <r>     3.0939   171.4589   201.4972 </r>
       <r>     3.1393   169.6670   209.1970 </r>
       <r>     3.1847   165.9319   216.7273 </r>
       <r>     3.2301   161.6049   224.0612 </r>
       <r>     3.2754   157.5817   231.2126 </r>
       <r>     3.3208   154.1369   238.2076 </r>
       <r>     3.3662   151.3862   245.0778 </r>
       <r>     3.4116   149.6795   251.8705 </r>
       <r>     3.4570   149.3888   258.6500 </r>
       <r>     3.5023   150.3132   265.4715 </r>
       <r>     3.5477   151.4088   272.3427 </r>
       <r>     3.5931   151.2402   279.2063 </r>
       <r>     3.6385   148.8539   285.9616 </r>
       <r>     3.6839   144.4228   292.5157 </r>
       <r>     3.7293   139.2276   298.8341 </r>
       <r>     3.7746   134.9894   304.9602 </r>
       <r>     3.8200   132.9012   310.9915 </r>
       <r>     3.8654   132.8772   317.0217 </r>
       <r>     3.9108   133.5355   323.0818 </r>
       <r>     3.9562   133.0977   329.1220 </r>
       <r>     4.0015   130.7313   335.0548 </r>
       <r>     4.0469   127.3588   340.8346 </r>
       <r>     4.0923   125.1895   346.5159 </r>
       <r>     4.1377   126.2172   352.2439 </r>
       <r>     4.1831   130.8758   358.1833 </r>
       <r>     4.2285   137.9890   364.4455 </r>
       <r>     4.2738   145.9987   371.0712 </r>
       <r>     4.3192   154.2439   378.0710 </r>
       <r>     4.3646   163.0299   385.4696 </r>
       <r>     4.4100   172.4862   393.2974 </r>
       <r>     4.4554   181.4637   401.5325 </r>
       <r>     4.5007   187.6798   410.0498 </r>
       <r>     4.5461   189.0911   418.6311 </r>
       <r>     4.5915   185.3886   427.0444 </r>
       <r>     4.6369   178.5418   435.1469 </r>
       <r>     4.6823   172.1407   442.9590 </r>
       <r>     4.7277   169.9824   450.6731 </r>
       <r>     4.7730   174.5277   458.5935 </r>
       <r>     4.8184   185.8029   467.0256 </r>
       <r>     4.8638   201.2423   476.1583 </r>
       <r>     4.9092   216.6965   485.9924 </r>
       <r>     4.9546   228.2284   496.3498 </r>
       <r>     4.9999   233.7539   506.9580 </r>
       <r>     5.0453   233.6338   517.5607 </r>
       <r>     5.0907   230.0447   528.0006 </r>
       <r>     5.1361   225.7651   538.2462 </r>
       <r>     5.1815   223.2241   548.3765 </r>
       <r>     5.2269   224.1674   558.5496 </r>
       <r>     5.2722   229.6060   568.9696 </r>
       <r>     5.3176   239.4967   579.8384 </r>
       <r>     5.3630   252.0980   591.2790 </r>
       <r>     5.4084   263.6840   603.2455 </r>
       <r>     5.4538   269.4559   615.4739 </r>
       <r>     5.4991   265.6592   627.5300 </r>
       <r>     5.5445   251.7262   638.9538 </r>
       <r>     5.5899   230.8704   649.4311 </r>
       <r>     5.6353   208.5035   658.8934 </r>
       <r>     5.6807   189.4269   667.4899 </r>
       <r>     5.7261   175.6489   675.4612 </r>
       <r>     5.7714   166.1711   683.0024 </r>
       <r>     5.8168   158.6235   690.2010 </r>
       <r>     5.8622   151.3906   697.0714 </r>
       <r>     5.9076   144.7497   703.6404 </r>
       <r>     5.9530   140.4545   710.0144 </r>
       <r>     5.9983   140.3272   716.3828 </r>
       <r>     6.0437   144.9493   722.9608 </r>
       <r>     6.0891   153.2448   729.9153 </r>
       <r>     6.1345   163.0535   737.3150 </r>
       <r>     6.1799   172.2346   745.1313 </r>
       <r>     6.2253   179.6761   753.2854 </r>
       <r>     6.2706   185.6893   761.7123 </r>
       <r>     6.3160   191.5164   770.4036 </r>
       <r>     6.3614   198.1442   779.3958 </r>
       <r>     6.4068   205.2004   788.7082 </r>
       <r>     6.4522   210.9010   798.2792 </r>
       <r>     6.4975   213.3140   807.9598 </r>
       <r>     6.5429   212.0014   817.5808 </r>
       <r>     6.5883   208.5464   827.0450 </r>
       <r>     6.6337   205.3190   836.3628 </r>
       <r>     6.6791   203.4338   845.5950 </r>
       <r>     6.7245   201.7115   854.7490 </r>
       <r>     6.7698   197.6803   863.7201 </r>
       <r>     6.8152   189.8798   872.3372 </r>
       <r>     6.8606   179.5394   880.4850 </r>
       <r>     6.9060   170.1628   888.2073 </r>
       <r>     6.9514   165.2875   895.7084 </r>
       <r>     6.9967   166.1837   903.2501 </r>
       <r>     7.0421   171.2425   911.0214 </r>
       <r>     7.0875   177.3472   919.0698 </r>
       <r>     7.1329   181.9708   927.3279 </r>
       <r>     7.1783   184.4242   935.6974 </r>
       <r>     7.2237   185.6788   944.1239 </r>
       <r>     7.2690   187.3637   952.6268 </r>
       <r>     7.3144   190.8375   961.2873 </r>
       <r>     7.3598   196.6628   970.2123 </r>
       <r>     7.4052   204.2508   979.4815 </r>
       <r>     7.4506   211.5141   989.0804 </r>
       <r>     7.4959   214.8369   998.8301 </r>
       <r>     7.5413   209.8605  1008.3540 </r>
       <r>     7.5867   193.1551  1017.1197 </r>
       <r>     7.6321   164.0968  1024.5667 </r>
       <r>     7.6775   125.8372  1030.2774 </r>
       <r>     7.7229    84.5703  1034.1154 </r>
       <r>     7.7682    47.2781  1036.2610 </r>
       <r>     7.8136    19.1208  1037.1287 </r>
       <r>     7.8590     1.8740  1037.2137 </r>
       <r>     7.9044    -5.9082  1036.9456 </r>
       <r>     7.9498    -7.4323  1036.6083 </r>
       <r>     7.9951    -5.9715  1036.3373 </r>
       <r>     8.0405    -3.8122  1036.1643 </r>
       <r>     8.0859    -2.0562  1036.0710 </r>
       <r>     8.1313    -0.9615  1036.0274 </r>
       <r>     8.1767    -0.3950  1036.0094 </r>
       <r>     8.2221    -0.1436  1036.0029 </r>
       <r>     8.2674    -0.0465  1036.0008 </r>
       <r>     8.3128    -0.0134  1036.0002 </r>
       <r>     8.3582    -0.0035  1036.0000 </r>
       <r>     8.4036    -0.0008  1036.0000 </r>
       <r>     8.4490    -0.0002  1036.0000 </r>
       <r>     8.4943    -0.0000  1036.0000 </r>
       <r>     8.5397    -0.0000  1036.0000 </r>
       <r>     8.5851    -0.0000  1036.0000 </r>
       <r>     8.6305    -0.0000  1036.0000 </r>
       <r>     8.6759    -0.0000  1036.0000 </r>
       <r>     8.7213    -0.0000  1036.0000 </r>
       <r>     8.7666    -0.0000  1036.0000 </r>
       <r>     8.8120    -0.0000  1036.0000 </r>
       <r>     8.8574    -0.0000  1036.0000 </r>
       <r>     8.9028    -0.0000  1036.0000 </r>
       <r>     8.9482     0.0000  1036.0000 </r>
       <r>     8.9935     0.0000  1036.0000 </r>
       <r>     9.0389     0.0000  1036.0000 </r>
       <r>     9.0843     0.0000  1036.0000 </r>
       <r>     9.1297     0.0000  1036.0000 </r>
       <r>     9.1751     0.0000  1036.0000 </r>
       <r>     9.2205     0.0000  1036.0000 </r>
       <r>     9.2658     0.0000  1036.0000 </r>
       <r>     9.3112     0.0000  1036.0000 </r>
       <r>     9.3566     0.0000  1036.0000 </r>
       <r>     9.4020     0.0000  1036.0000 </r>
       <r>     9.4474     0.0000  1036.0000 </r>
       <r>     9.4927     0.0000  1036.0000 </r>
       <r>     9.5381     0.0000  1036.0000 </r>
       <r>     9.5835     0.0000  1036.0000 </r>
       <r>     9.6289     0.0000  1036.0000 </r>
       <r>     9.6743     0.0000  1036.0000 </r>
      </set>
     </set>
    </array>
   </total>
  </dos>
 </calculation>
 <structure name="finalpos" >
  <crystal>
   <varray name="basis" >
    <v>      10.34429010      -0.00000000      -0.00000000 </v>
    <v>      -0.00000000      10.34429010      -0.00000000 </v>
    <v>       0.00000000       0.00000000      10.34429010 </v>
   </varray>
   <i name="volume">   1106.88391008 </i>
   <varray name="rec_basis" >
    <v>       0.09667169       0.00000000      -0.00000000 </v>
    <v>       0.00000000       0.09667169      -0.00000000 </v>
    <v>       0.00000000       0.00000000       0.09667169 </v>
   </varray>
  </crystal>
  <varray name="positions" >
   <v>       0.00000000      -0.00000000       0.00000000 </v>
   <v>      -0.00000000       0.16666893       0.16666893 </v>
   <v>       0.16666893       0.00000000       0.16666893 </v>
   <v>       0.16666893       0.16666893      -0.00000000 </v>
   <v>       0.33333106       0.00000000       0.00000000 </v>
   <v>       0.33333107       0.16666893       0.16666893 </v>
   <v>       0.50000000       0.00000000       0.16666894 </v>
   <v>       0.50000000       0.16666894       0.00000000 </v>
   <v>       0.66666897       0.00000000      -0.00000000 </v>
   <v>       0.66666896       0.16666893       0.16666893 </v>
   <v>       0.83333104       0.00000000       0.16666893 </v>
   <v>       0.83333104       0.16666893       0.00000000 </v>
   <v>      -0.00000000       0.33333106       0.00000000 </v>
   <v>       0.00000000       0.50000000       0.16666894 </v>
   <v>       0.16666893       0.33333107       0.16666893 </v>
   <v>       0.16666894       0.50000000       0.00000000 </v>
   <v>       0.33333107       0.33333107      -0.00000000 </v>
   <v>       0.33333107       0.50000000       0.16666893 </v>
   <v>       0.50000000       0.33333107       0.16666893 </v>
   <v>       0.50000000       0.50000000      -0.00000000 </v>
   <v>       0.66666896       0.33333107      -0.00000000 </v>
   <v>       0.66666896       0.50000000       0.16666893 </v>
   <v>       0.83333104       0.33333107       0.16666893 </v>
   <v>       0.83333103       0.50000000       0.00000000 </v>
   <v>      -0.00000000       0.66666897       0.00000000 </v>
   <v>      -0.00000000       0.83333104       0.16666893 </v>
   <v>       0.16666893       0.66666896       0.16666893 </v>
   <v>       0.16666893       0.83333104      -0.00000000 </v>
   <v>       0.33333107       0.66666896      -0.00000000 </v>
   <v>       0.33333107       0.83333104       0.16666893 </v>
   <v>       0.50000000       0.66666896       0.16666893 </v>
   <v>       0.50000000       0.83333103       0.00000000 </v>
   <v>       0.66666896       0.66666896      -0.00000000 </v>
   <v>       0.66666896       0.83333104       0.16666893 </v>
   <v>       0.83333104       0.66666896       0.16666893 </v>
   <v>       0.83333104       0.83333104      -0.00000000 </v>
   <v>      -0.00000000      -0.00000000       0.33333106 </v>
   <v>       0.00000000       0.16666894       0.50000000 </v>
   <v>       0.16666894       0.00000000       0.50000000 </v>
   <v>       0.16666893       0.16666893       0.33333107 </v>
   <v>       0.33333107      -0.00000000       0.33333107 </v>
   <v>       0.33333107       0.16666893       0.50000000 </v>
   <v>       0.50000000       0.00000000       0.50000000 </v>
   <v>       0.50000000       0.16666893       0.33333107 </v>
   <v>       0.66666896       0.00000000       0.33333107 </v>
   <v>       0.66666896       0.16666893       0.50000000 </v>
   <v>       0.83333103       0.00000000       0.50000000 </v>
   <v>       0.83333104       0.16666893       0.33333107 </v>
   <v>       0.00000000       0.33333107       0.33333107 </v>
   <v>       0.00000000       0.50000000       0.50000000 </v>
   <v>       0.16666893       0.33333107       0.50000000 </v>
   <v>       0.16666893       0.50000000       0.33333107 </v>
   <v>       0.33333107       0.33333107       0.33333107 </v>
   <v>       0.33333106       0.50000000       0.50000000 </v>
   <v>       0.50000000       0.33333106       0.50000000 </v>
   <v>       0.50000000       0.50000000       0.33333106 </v>
   <v>       0.66666896       0.33333107       0.33333107 </v>
   <v>       0.66666897       0.50000000       0.50000000 </v>
   <v>       0.83333104       0.33333107       0.50000000 </v>
   <v>       0.83333104       0.50000000       0.33333107 </v>
   <v>       0.00000000       0.66666896       0.33333107 </v>
   <v>       0.00000000       0.83333103       0.50000000 </v>
   <v>       0.16666893       0.66666896       0.50000000 </v>
   <v>       0.16666893       0.83333104       0.33333107 </v>
   <v>       0.33333107       0.66666896       0.33333107 </v>
   <v>       0.33333107       0.83333104       0.50000000 </v>
   <v>       0.50000000       0.66666897       0.50000000 </v>
   <v>       0.50000000       0.83333104       0.33333107 </v>
   <v>       0.66666896       0.66666896       0.33333107 </v>
   <v>       0.66666896       0.83333104       0.50000000 </v>
   <v>       0.83333104       0.66666896       0.50000000 </v>
   <v>       0.83333104       0.83333104       0.33333107 </v>
   <v>      -0.00000000      -0.00000000       0.66666897 </v>
   <v>      -0.00000000       0.16666893       0.83333104 </v>
   <v>       0.16666893       0.00000000       0.83333104 </v>
   <v>       0.16666893       0.16666893       0.66666896 </v>
   <v>       0.33333107      -0.00000000       0.66666896 </v>
   <v>       0.33333107       0.16666893       0.83333104 </v>
   <v>       0.50000000       0.00000000       0.83333103 </v>
   <v>       0.50000000       0.16666893       0.66666896 </v>
   <v>       0.66666896       0.00000000       0.66666896 </v>
   <v>       0.66666896       0.16666893       0.83333104 </v>
   <v>       0.83333104       0.00000000       0.83333104 </v>
   <v>       0.83333104       0.16666893       0.66666896 </v>
   <v>      -0.00000000       0.33333107       0.66666896 </v>
   <v>       0.00000000       0.50000000       0.83333103 </v>
   <v>       0.16666893       0.33333107       0.83333104 </v>
   <v>       0.16666893       0.50000000       0.66666896 </v>
   <v>       0.33333107       0.33333107       0.66666896 </v>
   <v>       0.33333107       0.50000000       0.83333104 </v>
   <v>       0.50000000       0.33333107       0.83333104 </v>
   <v>       0.50000000       0.50000000       0.66666897 </v>
   <v>       0.66666896       0.33333107       0.66666896 </v>
   <v>       0.66666896       0.50000000       0.83333104 </v>
   <v>       0.83333104       0.33333107       0.83333104 </v>
   <v>       0.83333104       0.50000000       0.66666896 </v>
   <v>      -0.00000000       0.66666896       0.66666896 </v>
   <v>      -0.00000000       0.83333104       0.83333104 </v>
   <v>       0.16666893       0.66666896       0.83333104 </v>
   <v>       0.16666893       0.83333104       0.66666896 </v>
   <v>       0.33333107       0.66666896       0.66666896 </v>
   <v>       0.33333107       0.83333104       0.83333104 </v>
   <v>       0.50000000       0.66666896       0.83333104 </v>
   <v>       0.50000000       0.83333104       0.66666896 </v>
   <v>       0.66666896       0.66666896       0.66666896 </v>
   <v>       0.66666896       0.83333104       0.83333104 </v>
   <v>       0.83333104       0.66666896       0.83333104 </v>
   <v>       0.83333104       0.83333104       0.66666896 </v>
  </varray>
 </structure>
</modeling>
