 running on    8 total cores
 distrk:  each k-point on    8 cores,    1 groups
 distr:  one band on    4 cores,    2 groups
 using from now: INCAR     
 vasp.5.4.4.18Apr17-6-g9f103f2a35 (build Aug 17 2017 06:00:38) complex          
  
 POSCAR found type information on POSCAR  Fe
 POSCAR found :  1 types and     107 ions
 scaLAPACK will be used
 LDA part: xc-table for Pade appr. of Perdew
 POSCAR, INCAR and KPOINTS ok, starting setup
 FFT: planning ...
 WAVECAR not read
 entering main loop
       N       E                     dE             d eps       ncg     rms          rms(c)
DAV:   1     0.750949260519E+04    0.75095E+04   -0.28619E+05 32936   0.183E+03
DAV:   2    -0.261728898018E+02   -0.75357E+04   -0.73678E+04 32896   0.456E+02
DAV:   3    -0.841909899548E+03   -0.81574E+03   -0.69700E+03 33088   0.190E+02
DAV:   4    -0.101757908037E+04   -0.17567E+03   -0.16482E+03 59856   0.569E+01
DAV:   5    -0.103260519207E+04   -0.15026E+02   -0.14180E+02 52648   0.218E+01    0.931E+01
RMM:   6    -0.886745544775E+03    0.14586E+03   -0.14292E+03 32896   0.112E+02    0.438E+01
RMM:   7    -0.117634082122E+04   -0.28960E+03   -0.38051E+02 44030   0.286E+01    0.177E+02
RMM:   8    -0.875703951818E+03    0.30064E+03   -0.22151E+02 32896   0.425E+01    0.409E+01
RMM:   9    -0.869887490577E+03    0.58165E+01   -0.69512E+01 37179   0.160E+01    0.162E+01
RMM:  10    -0.873330146949E+03   -0.34427E+01   -0.36664E+01 47334   0.745E+00    0.251E+01
RMM:  11    -0.870938114320E+03    0.23920E+01   -0.10461E+01 36695   0.630E+00    0.153E+01
RMM:  12    -0.870690690239E+03    0.24742E+00   -0.55716E+00 47855   0.286E+00    0.149E+01
RMM:  13    -0.869374700614E+03    0.13160E+01   -0.30246E+00 34252   0.414E+00    0.762E+00
RMM:  14    -0.869451537221E+03   -0.76837E-01   -0.24039E+00 47284   0.150E+00    0.836E+00
RMM:  15    -0.869314485992E+03    0.13705E+00   -0.55106E-01 37975   0.138E+00    0.807E+00
RMM:  16    -0.869187779585E+03    0.12671E+00   -0.28698E-01 36727   0.103E+00    0.686E+00
RMM:  17    -0.869065784819E+03    0.12199E+00   -0.36405E-01 33645   0.139E+00    0.486E+00
RMM:  18    -0.868955890369E+03    0.10989E+00   -0.30421E-01 36008   0.114E+00    0.874E-01
RMM:  19    -0.868970325730E+03   -0.14435E-01   -0.18036E-01 49183   0.394E-01    0.996E-01
RMM:  20    -0.868974993527E+03   -0.46678E-02   -0.55929E-02 41716   0.330E-01    0.141E+00
RMM:  21    -0.868973190589E+03    0.18029E-02   -0.18281E-02 42140   0.198E-01    0.131E+00
RMM:  22    -0.868971743664E+03    0.14469E-02   -0.78803E-03 39377   0.155E-01    0.121E+00
RMM:  23    -0.868967034605E+03    0.47091E-02   -0.78340E-03 33679   0.217E-01    0.710E-01
RMM:  24    -0.868966621420E+03    0.41318E-03   -0.48572E-03 47098   0.882E-02    0.602E-01
RMM:  25    -0.868965020455E+03    0.16010E-02   -0.29917E-03 39060   0.918E-02    0.206E-01
RMM:  26    -0.868965005779E+03    0.14676E-04   -0.13497E-03 48233   0.378E-02    0.117E-01
RMM:  27    -0.868964956281E+03    0.49498E-04   -0.37562E-04 43559   0.258E-02    0.738E-02
RMM:  28    -0.868964923157E+03    0.33125E-04   -0.79121E-05 41337   0.170E-02    0.288E-02
RMM:  29    -0.868964919977E+03    0.31799E-05   -0.62903E-06 46991   0.974E-03    0.390E-02
RMM:  30    -0.868964895569E+03    0.24407E-04    0.30447E-05 33524   0.102E-02    0.194E-02
RMM:  31    -0.868964889481E+03    0.60887E-05    0.40606E-05 28171   0.422E-03    0.143E-02
RMM:  32    -0.868964884258E+03    0.52227E-05    0.41349E-05 22237   0.420E-03    0.122E-02
RMM:  33    -0.868964879842E+03    0.44162E-05    0.35574E-05 19436   0.380E-03    0.435E-03
RMM:  34    -0.868964877270E+03    0.25713E-05    0.32009E-05 18833   0.176E-03    0.516E-03
RMM:  35    -0.868964875621E+03    0.16491E-05    0.30241E-05 18617   0.214E-03    0.292E-03
RMM:  36    -0.868964873009E+03    0.26124E-05    0.27377E-05 17768   0.863E-04    0.256E-03
RMM:  37    -0.868964871052E+03    0.19568E-05    0.25738E-05 18224   0.109E-03    0.162E-03
RMM:  38    -0.868964868831E+03    0.22209E-05    0.23260E-05 15264   0.694E-04    0.878E-04
RMM:  39    -0.868964866730E+03    0.21010E-05    0.21718E-05 16091   0.692E-04    0.106E-03
RMM:  40    -0.868964864829E+03    0.19012E-05    0.19633E-05 13885   0.593E-04    0.271E-04
RMM:  41    -0.868964862991E+03    0.18383E-05    0.18256E-05  8634   0.478E-04    0.375E-04
RMM:  42    -0.868964861345E+03    0.16452E-05    0.16507E-05  8081   0.438E-04    0.204E-04
RMM:  43    -0.868964859796E+03    0.15490E-05    0.15283E-05  7063   0.400E-04    0.179E-04
RMM:  44    -0.868964858358E+03    0.14382E-05    0.14187E-05  7025   0.380E-04    0.166E-04
RMM:  45    -0.868964857064E+03    0.12945E-05    0.12722E-05  6671   0.352E-04    0.989E-05
RMM:  46    -0.868964855880E+03    0.11838E-05    0.11680E-05  6555   0.340E-04    0.106E-04
RMM:  47    -0.868964854781E+03    0.10991E-05    0.10761E-05  6266   0.327E-04    0.977E-05
RMM:  48    -0.868964853812E+03    0.96882E-06    0.95521E-06  6197   0.318E-04
   1 F= -.86896485E+03 E0= -.86894396E+03  d E =-.868965E+03
 curvature:   0.00 expect dE= 0.000E+00 dE for cont linesearch  0.000E+00
 trial: gam= 0.00000 g(F)=  0.606E-01 g(S)=  0.000E+00 ort = 0.000E+00 (trialstep = 0.100E+01)
 search vector abs. value=  0.606E-01
 bond charge predicted
       N       E                     dE             d eps       ncg     rms          rms(c)
DAV:   1    -0.869004075986E+03   -0.39221E-01   -0.11134E+01 34192   0.472E+00    0.111E+00
RMM:   2    -0.869836262532E+03   -0.83219E+00   -0.19530E+00 36840   0.283E+00    0.126E+01
RMM:   3    -0.869029501154E+03    0.80676E+00   -0.48976E-01 32896   0.198E+00    0.183E+00
RMM:   4    -0.869010084042E+03    0.19417E-01   -0.18181E-01 43203   0.466E-01    0.656E-01
RMM:   5    -0.869016751531E+03   -0.66675E-02   -0.62304E-02 44962   0.292E-01    0.109E+00
RMM:   6    -0.869011018626E+03    0.57329E-02   -0.18977E-02 36470   0.251E-01    0.338E-01
RMM:   7    -0.869014402135E+03   -0.33835E-02   -0.18261E-02 38406   0.244E-01    0.896E-01
RMM:   8    -0.869010227314E+03    0.41748E-02   -0.57420E-03 32976   0.195E-01    0.247E-01
RMM:   9    -0.869010470034E+03   -0.24272E-03   -0.37033E-03 42069   0.937E-02    0.298E-01
RMM:  10    -0.869010047572E+03    0.42246E-03   -0.97485E-04 35551   0.668E-02    0.651E-02
RMM:  11    -0.869010083111E+03   -0.35539E-04   -0.60447E-04 48162   0.255E-02    0.705E-02
RMM:  12    -0.869010083140E+03   -0.28289E-07   -0.86709E-05 38010   0.162E-02    0.683E-02
RMM:  13    -0.869010061801E+03    0.21339E-04   -0.33245E-05 35553   0.125E-02    0.230E-02
RMM:  14    -0.869010069495E+03   -0.76946E-05   -0.46571E-05 40468   0.117E-02    0.426E-02
RMM:  15    -0.869010061364E+03    0.81315E-05   -0.12942E-05 32926   0.951E-03    0.152E-02
RMM:  16    -0.869010061481E+03   -0.11714E-06   -0.55268E-06 30085   0.431E-03
   2 F= -.86901006E+03 E0= -.86898926E+03  d E =-.452077E-01
 trial-energy change:   -0.045208  1 .order   -0.045406   -0.060639   -0.030174
 step:   2.0780(harm=  1.9904)  dis= 0.01979  next Energy=  -869.026077 (dE=-0.612E-01)
 bond charge predicted
       N       E                     dE             d eps       ncg     rms          rms(c)
DAV:   1    -0.869018690470E+03   -0.86291E-02   -0.12938E+01 32908   0.509E+00    0.120E+00
RMM:   2    -0.869990811329E+03   -0.97212E+00   -0.22948E+00 36813   0.307E+00    0.136E+01
RMM:   3    -0.869047635012E+03    0.94318E+00   -0.57534E-01 32896   0.215E+00    0.197E+00
RMM:   4    -0.869025640569E+03    0.21994E-01   -0.21130E-01 43413   0.499E-01    0.714E-01
RMM:   5    -0.869033231147E+03   -0.75906E-02   -0.71963E-02 44867   0.314E-01    0.117E+00
RMM:   6    -0.869026701521E+03    0.65296E-02   -0.22031E-02 36486   0.270E-01    0.360E-01
RMM:   7    -0.869030578584E+03   -0.38771E-02   -0.20486E-02 38173   0.261E-01    0.972E-01
RMM:   8    -0.869025746108E+03    0.48325E-02   -0.66370E-03 32984   0.211E-01    0.254E-01
RMM:   9    -0.869026122818E+03   -0.37671E-03   -0.45351E-03 42059   0.104E-01    0.338E-01
RMM:  10    -0.869025564033E+03    0.55879E-03   -0.11579E-03 35173   0.750E-02    0.686E-02
RMM:  11    -0.869025613773E+03   -0.49741E-04   -0.75623E-04 48552   0.273E-02    0.811E-02
RMM:  12    -0.869025608940E+03    0.48332E-05   -0.10327E-04 38251   0.173E-02    0.716E-02
RMM:  13    -0.869025587131E+03    0.21809E-04   -0.40954E-05 36453   0.130E-02    0.277E-02
RMM:  14    -0.869025595174E+03   -0.80431E-05   -0.50821E-05 39407   0.128E-02    0.444E-02
RMM:  15    -0.869025586040E+03    0.91341E-05   -0.16653E-05 33262   0.103E-02    0.158E-02
RMM:  16    -0.869025587102E+03   -0.10618E-05   -0.11865E-05 34521   0.522E-03    0.191E-02
RMM:  17    -0.869025585560E+03    0.15414E-05   -0.17912E-06 20871   0.400E-03    0.686E-03
RMM:  18    -0.869025585432E+03    0.12849E-06   -0.68486E-07 18533   0.214E-03
   3 F= -.86902559E+03 E0= -.86900503E+03  d E =-.607316E-01
 curvature:  -0.99 expect dE=-0.534E-02 dE for cont linesearch -0.364E-04
 ZBRENT: interpolating
 opt :   2.0271  next Energy=  -869.025624 (dE=-0.608E-01)
 bond charge predicted
       N       E                     dE             d eps       ncg     rms          rms(c)
DAV:   1    -0.869025605790E+03   -0.20229E-04   -0.28848E-02 35520   0.240E-01    0.548E-02
RMM:   2    -0.869027657307E+03   -0.20515E-02   -0.49677E-03 36956   0.140E-01    0.626E-01
RMM:   3    -0.869025660499E+03    0.19968E-02   -0.12160E-03 32896   0.981E-02    0.836E-02
RMM:   4    -0.869025621010E+03    0.39489E-04   -0.47367E-04 44148   0.223E-02    0.323E-02
RMM:   5    -0.869025636591E+03   -0.15581E-04   -0.15726E-04 44222   0.146E-02    0.529E-02
RMM:   6    -0.869025623086E+03    0.13504E-04   -0.45785E-05 36283   0.127E-02    0.181E-02
RMM:   7    -0.869025631035E+03   -0.79488E-05   -0.45382E-05 38350   0.123E-02    0.441E-02
RMM:   8    -0.869025620475E+03    0.10560E-04   -0.14115E-05 32614   0.986E-03    0.965E-03
RMM:   9    -0.869025621621E+03   -0.11457E-05   -0.72851E-06 29195   0.418E-03    0.170E-02
RMM:  10    -0.869025620336E+03    0.12848E-05   -0.18696E-06 18966   0.377E-03    0.517E-03
RMM:  11    -0.869025620255E+03    0.80843E-07   -0.90497E-07 17827   0.198E-03
   4 F= -.86902562E+03 E0= -.86900505E+03  d E =-.607664E-01
 curvature:  -1.03 expect dE=-0.528E-02 dE for cont linesearch -0.465E-07
 trial: gam= 0.08352 g(F)=  0.512E-02 g(S)=  0.000E+00 ort = 0.523E-04 (trialstep = 0.121E+01)
 search vector abs. value=  0.555E-02
 bond charge predicted
       N       E                     dE             d eps       ncg     rms          rms(c)
DAV:   1    -0.869029133687E+03   -0.35134E-02   -0.15085E+00 33036   0.174E+00    0.350E-01
RMM:   2    -0.869104922275E+03   -0.75789E-01   -0.18446E-01 36719   0.892E-01    0.374E+00
RMM:   3    -0.869032338873E+03    0.72583E-01   -0.42141E-02 32896   0.591E-01    0.600E-01
RMM:   4    -0.869030216449E+03    0.21224E-02   -0.15565E-02 42321   0.152E-01    0.205E-01
RMM:   5    -0.869031014104E+03   -0.79766E-03   -0.69040E-03 44371   0.107E-01    0.409E-01
RMM:   6    -0.869030216449E+03    0.79766E-03   -0.21069E-03 35914   0.877E-02    0.117E-01
RMM:   7    -0.869030655865E+03   -0.43942E-03   -0.26499E-03 39463   0.883E-02    0.313E-01
RMM:   8    -0.869030108933E+03    0.54693E-03   -0.74923E-04 33004   0.694E-02    0.650E-02
RMM:   9    -0.869030162883E+03   -0.53950E-04   -0.51390E-04 43565   0.310E-02    0.105E-01
RMM:  10    -0.869030113257E+03    0.49626E-04   -0.11308E-04 35772   0.221E-02    0.322E-02
RMM:  11    -0.869030116075E+03   -0.28185E-05   -0.76623E-05 46753   0.890E-03    0.297E-02
RMM:  12    -0.869030114803E+03    0.12722E-05   -0.12783E-05 33472   0.688E-03    0.263E-02
RMM:  13    -0.869030111511E+03    0.32916E-05   -0.56628E-06 27266   0.572E-03    0.739E-03
RMM:  14    -0.869030111988E+03   -0.47631E-06   -0.35410E-06 22363   0.356E-03
   5 F= -.86903011E+03 E0= -.86900940E+03  d E =-.449173E-02
 trial-energy change:   -0.004492  1 .order   -0.004513   -0.006173   -0.002852
 step:   2.3225(harm=  2.2409)  dis= 0.00501  next Energy=  -869.031417 (dE=-0.580E-02)
 bond charge predicted
       N       E                     dE             d eps       ncg     rms          rms(c)
DAV:   1    -0.869030403842E+03   -0.29233E-03   -0.12955E+00 32948   0.161E+00    0.325E-01
RMM:   2    -0.869095770439E+03   -0.65367E-01   -0.15896E-01 36712   0.829E-01    0.348E+00
RMM:   3    -0.869033203359E+03    0.62567E-01   -0.36333E-02 32896   0.549E-01    0.562E-01
RMM:   4    -0.869031330688E+03    0.18727E-02   -0.13392E-02 42168   0.142E-01    0.191E-01
RMM:   5    -0.869032025801E+03   -0.69511E-03   -0.60120E-03 44614   0.991E-02    0.382E-01
RMM:   6    -0.869031334797E+03    0.69100E-03   -0.18144E-03 35907   0.813E-02    0.110E-01
RMM:   7    -0.869031706441E+03   -0.37164E-03   -0.22785E-03 39598   0.817E-02    0.289E-01
RMM:   8    -0.869031241993E+03    0.46445E-03   -0.64198E-04 33023   0.640E-02    0.610E-02
RMM:   9    -0.869031288686E+03   -0.46693E-04   -0.44348E-04 43452   0.291E-02    0.981E-02
RMM:  10    -0.869031244561E+03    0.44126E-04   -0.99545E-05 35611   0.211E-02    0.290E-02
RMM:  11    -0.869031247333E+03   -0.27719E-05   -0.66879E-05 46260   0.838E-03    0.274E-02
RMM:  12    -0.869031246208E+03    0.11243E-05   -0.10585E-05 31727   0.614E-03    0.239E-02
RMM:  13    -0.869031243507E+03    0.27016E-05   -0.44908E-06 24844   0.518E-03    0.700E-03
RMM:  14    -0.869031243883E+03   -0.37630E-06   -0.29112E-06 20722   0.345E-03
   6 F= -.86903124E+03 E0= -.86901040E+03  d E =-.562363E-02
 curvature:  -1.21 expect dE=-0.860E-03 dE for cont linesearch -0.154E-04
 ZBRENT: interpolating
 opt :   2.2096  next Energy=  -869.031259 (dE=-0.564E-02)
 bond charge predicted
       N       E                     dE             d eps       ncg     rms          rms(c)
DAV:   1    -0.869031250236E+03   -0.67289E-05   -0.13227E-02 34144   0.163E-01    0.330E-02
RMM:   2    -0.869031938847E+03   -0.68861E-03   -0.16280E-03 36489   0.845E-02    0.357E-01
RMM:   3    -0.869031280395E+03    0.65845E-03   -0.37326E-04 32896   0.556E-02    0.561E-02
RMM:   4    -0.869031260326E+03    0.20069E-04   -0.13609E-04 41774   0.144E-02    0.194E-02
RMM:   5    -0.869031267967E+03   -0.76416E-05   -0.59543E-05 43819   0.101E-02    0.394E-02
RMM:   6    -0.869031260577E+03    0.73904E-05   -0.18494E-05 33898   0.819E-03    0.107E-02
RMM:   7    -0.869031264673E+03   -0.40962E-05   -0.22637E-05 38024   0.841E-03    0.298E-02
RMM:   8    -0.869031259857E+03    0.48164E-05   -0.65695E-06 27772   0.676E-03    0.605E-03
RMM:   9    -0.869031260133E+03   -0.27598E-06   -0.20670E-06 19769   0.251E-03
   7 F= -.86903126E+03 E0= -.86901043E+03  d E =-.563988E-02
 curvature:  -1.18 expect dE=-0.741E-03 dE for cont linesearch -0.208E-06
 trial: gam= 0.12743 g(F)=  0.630E-03 g(S)=  0.000E+00 ort =-0.313E-04 (trialstep = 0.141E+01)
 search vector abs. value=  0.712E-03
 bond charge predicted
       N       E                     dE             d eps       ncg     rms          rms(c)
DAV:   1    -0.869031608048E+03   -0.34819E-03   -0.26649E-01 33308   0.728E-01    0.126E-01
RMM:   2    -0.869039361903E+03   -0.77539E-02   -0.21242E-02 36003   0.328E-01    0.119E+00
RMM:   3    -0.869032173980E+03    0.71879E-02   -0.47397E-03 32896   0.202E-01    0.233E-01
RMM:   4    -0.869031863413E+03    0.31057E-03   -0.15503E-03 41677   0.556E-02    0.766E-02
RMM:   5    -0.869031983336E+03   -0.11992E-03   -0.87441E-04 43424   0.418E-02    0.166E-01
RMM:   6    -0.869031845886E+03    0.13745E-03   -0.30177E-04 34711   0.365E-02    0.480E-02
RMM:   7    -0.869031933345E+03   -0.87459E-04   -0.45405E-04 39522   0.365E-02    0.137E-01
RMM:   8    -0.869031831570E+03    0.10178E-03   -0.12006E-04 33003   0.282E-02    0.247E-02
RMM:   9    -0.869031836724E+03   -0.51542E-05   -0.70264E-05 46048   0.918E-03    0.320E-02
RMM:  10    -0.869031833089E+03    0.36352E-05   -0.14278E-05 33923   0.633E-03    0.138E-02
RMM:  11    -0.869031832609E+03    0.47962E-06   -0.37076E-06 24084   0.339E-03
   8 F= -.86903183E+03 E0= -.86901103E+03  d E =-.572477E-03
 trial-energy change:   -0.000572  1 .order   -0.000572   -0.000880   -0.000265
 step:   2.0123(harm=  2.0123)  dis= 0.00166  next Energy=  -869.031890 (dE=-0.630E-03)
 reached required accuracy - stopping structural energy minimisation
