 107 107   0   0
  0.1031640E+02  0.1033485E-08  0.1033485E-08  0.1033485E-08  0.5000000E-15
  1.000000000000000E-004
  CAR 
 Opt                                     
      9.81796496     -8.62108194  301      6.93628928      1.00000000
     -8.621  0.0000E+00  0.0000E+00
     -8.560  0.0000E+00  0.0000E+00
     -8.498  0.0000E+00  0.0000E+00
     -8.437  0.0000E+00  0.0000E+00
     -8.375  0.0000E+00  0.0000E+00
     -8.314  0.0000E+00  0.0000E+00
     -8.252 -0.9307E-29 -0.5720E-30
     -8.191 -0.1218E-26 -0.7541E-28
     -8.129 -0.1325E-24 -0.8218E-26
     -8.068 -0.1191E-22 -0.7401E-24
     -8.006 -0.8842E-21 -0.5509E-22
     -7.945 -0.5422E-19 -0.3388E-20
     -7.884 -0.2745E-17 -0.1721E-18
     -7.822 -0.1147E-15 -0.7222E-17
     -7.761 -0.3827E-14 -0.2424E-15
     -7.699 -0.1085E-12 -0.6914E-14
     -7.638 -0.2531E-11 -0.1625E-12
     -7.576 -0.4855E-10 -0.3146E-11
     -7.515 -0.7653E-09 -0.5018E-10
     -7.453 -0.9898E-08 -0.6585E-09
     -7.392 -0.1048E-06 -0.7102E-08
     -7.330 -0.9068E-06 -0.6284E-07
     -7.269 -0.6383E-05 -0.4551E-06
     -7.207 -0.3636E-04 -0.2690E-05
     -7.146 -0.1663E-03 -0.1291E-04
     -7.084 -0.6029E-03 -0.4997E-04
     -7.023 -0.1689E-02 -0.1538E-03
     -6.962 -0.3467E-02 -0.3669E-03
     -6.900 -0.4401E-02 -0.6374E-03
     -6.839 -0.8203E-04 -0.6424E-03
     -6.777  0.1518E-01  0.2904E-03
     -6.716  0.4205E-01  0.2875E-02
     -6.654  0.7037E-01  0.7200E-02
     -6.593  0.8350E-01  0.1233E-01
     -6.531  0.7249E-01  0.1679E-01
     -6.470  0.4488E-01  0.1955E-01
     -6.408  0.1727E-01  0.2061E-01
     -6.347  0.8098E-03  0.2066E-01
     -6.285 -0.4310E-02  0.2039E-01
     -6.224 -0.3636E-02  0.2017E-01
     -6.163 -0.1833E-02  0.2006E-01
     -6.101 -0.6716E-03  0.2001E-01
     -6.040 -0.1896E-03  0.2000E-01
     -5.978 -0.4233E-04  0.2000E-01
     -5.917 -0.7580E-05  0.2000E-01
     -5.855 -0.1098E-05  0.2000E-01
     -5.794 -0.1294E-06  0.2000E-01
     -5.732 -0.1245E-07  0.2000E-01
     -5.671 -0.9807E-09  0.2000E-01
     -5.609 -0.6338E-10  0.2000E-01
     -5.548 -0.3365E-11  0.2000E-01
     -5.486 -0.1470E-12  0.2000E-01
     -5.425 -0.5311E-14  0.2000E-01
     -5.364 -0.1445E-15  0.2000E-01
     -5.302  0.0000E+00  0.2000E-01
     -5.241  0.0000E+00  0.2000E-01
     -5.179  0.0000E+00  0.2000E-01
     -5.118  0.0000E+00  0.2000E-01
     -5.056  0.0000E+00  0.2000E-01
     -4.995  0.0000E+00  0.2000E-01
     -4.933  0.0000E+00  0.2000E-01
     -4.872  0.0000E+00  0.2000E-01
     -4.810  0.0000E+00  0.2000E-01
     -4.749  0.0000E+00  0.2000E-01
     -4.687  0.0000E+00  0.2000E-01
     -4.626  0.0000E+00  0.2000E-01
     -4.564  0.0000E+00  0.2000E-01
     -4.503  0.0000E+00  0.2000E-01
     -4.442  0.0000E+00  0.2000E-01
     -4.380  0.0000E+00  0.2000E-01
     -4.319  0.0000E+00  0.2000E-01
     -4.257  0.0000E+00  0.2000E-01
     -4.196  0.0000E+00  0.2000E-01
     -4.134  0.0000E+00  0.2000E-01
     -4.073  0.0000E+00  0.2000E-01
     -4.011  0.0000E+00  0.2000E-01
     -3.950  0.0000E+00  0.2000E-01
     -3.888  0.0000E+00  0.2000E-01
     -3.827  0.0000E+00  0.2000E-01
     -3.765  0.0000E+00  0.2000E-01
     -3.704  0.0000E+00  0.2000E-01
     -3.643  0.0000E+00  0.2000E-01
     -3.581  0.0000E+00  0.2000E-01
     -3.520  0.0000E+00  0.2000E-01
     -3.458  0.0000E+00  0.2000E-01
     -3.397  0.0000E+00  0.2000E-01
     -3.335 -0.7813E-30  0.2000E-01
     -3.274 -0.1037E-27  0.2000E-01
     -3.212 -0.1146E-25  0.2000E-01
     -3.151 -0.1045E-23  0.2000E-01
     -3.089 -0.7878E-22  0.2000E-01
     -3.028 -0.4904E-20  0.2000E-01
     -2.966 -0.2520E-18  0.2000E-01
     -2.905 -0.1069E-16  0.2000E-01
     -2.844 -0.3618E-15  0.2000E-01
     -2.782 -0.1044E-13  0.2000E-01
     -2.721 -0.2473E-12  0.2000E-01
     -2.659 -0.4822E-11  0.2000E-01
     -2.598 -0.7731E-10  0.2000E-01
     -2.536 -0.1018E-08  0.2000E-01
     -2.475 -0.1099E-07  0.2000E-01
     -2.413 -0.9709E-07  0.2000E-01
     -2.352 -0.7005E-06  0.2000E-01
     -2.290 -0.4114E-05  0.2000E-01
     -2.229 -0.1958E-04  0.2000E-01
     -2.167 -0.7507E-04  0.1999E-01
     -2.106 -0.2295E-03  0.1998E-01
     -2.044 -0.5491E-03  0.1995E-01
     -1.983 -0.9840E-03  0.1989E-01
     -1.922 -0.1142E-02  0.1982E-01
     -1.860 -0.1377E-03  0.1981E-01
     -1.799  0.3220E-02  0.2000E-01
     -1.737  0.9815E-02  0.2061E-01
     -1.676  0.1943E-01  0.2180E-01
     -1.614  0.3028E-01  0.2366E-01
     -1.553  0.3941E-01  0.2609E-01
     -1.491  0.4428E-01  0.2881E-01
     -1.430  0.4470E-01  0.3156E-01
     -1.368  0.4362E-01  0.3424E-01
     -1.307  0.4586E-01  0.3706E-01
     -1.245  0.5407E-01  0.4038E-01
     -1.184  0.6493E-01  0.4437E-01
     -1.123  0.7133E-01  0.4875E-01
     -1.061  0.7005E-01  0.5306E-01
     -1.000  0.6545E-01  0.5708E-01
     -0.938  0.6431E-01  0.6104E-01
     -0.877  0.6922E-01  0.6529E-01
     -0.815  0.7848E-01  0.7011E-01
     -0.754  0.8929E-01  0.7560E-01
     -0.692  0.9864E-01  0.8166E-01
     -0.631  0.1033E+00  0.8801E-01
     -0.569  0.1018E+00  0.9427E-01
     -0.508  0.9707E-01  0.1002E+00
     -0.446  0.9573E-01  0.1061E+00
     -0.385  0.1039E+00  0.1125E+00
     -0.324  0.1204E+00  0.1199E+00
     -0.262  0.1348E+00  0.1282E+00
     -0.201  0.1352E+00  0.1365E+00
     -0.139  0.1201E+00  0.1439E+00
     -0.078  0.1009E+00  0.1501E+00
     -0.016  0.9141E-01  0.1557E+00
      0.045  0.9650E-01  0.1616E+00
      0.107  0.1113E+00  0.1685E+00
      0.168  0.1285E+00  0.1764E+00
      0.230  0.1444E+00  0.1853E+00
      0.291  0.1585E+00  0.1950E+00
      0.353  0.1693E+00  0.2054E+00
      0.414  0.1727E+00  0.2160E+00
      0.476  0.1658E+00  0.2262E+00
      0.537  0.1516E+00  0.2355E+00
      0.598  0.1383E+00  0.2440E+00
      0.660  0.1320E+00  0.2521E+00
      0.721  0.1329E+00  0.2603E+00
      0.783  0.1384E+00  0.2688E+00
      0.844  0.1480E+00  0.2779E+00
      0.906  0.1612E+00  0.2878E+00
      0.967  0.1750E+00  0.2986E+00
      1.029  0.1869E+00  0.3101E+00
      1.090  0.1983E+00  0.3223E+00
      1.152  0.2098E+00  0.3352E+00
      1.213  0.2177E+00  0.3485E+00
      1.275  0.2172E+00  0.3619E+00
      1.336  0.2083E+00  0.3747E+00
      1.397  0.1977E+00  0.3868E+00
      1.459  0.1965E+00  0.3989E+00
      1.520  0.2147E+00  0.4121E+00
      1.582  0.2517E+00  0.4276E+00
      1.643  0.2903E+00  0.4454E+00
      1.705  0.3084E+00  0.4644E+00
      1.766  0.3009E+00  0.4829E+00
      1.828  0.2913E+00  0.5008E+00
      1.889  0.3166E+00  0.5202E+00
      1.951  0.3983E+00  0.5447E+00
      2.012  0.5278E+00  0.5772E+00
      2.074  0.6764E+00  0.6187E+00
      2.135  0.8158E+00  0.6689E+00
      2.196  0.9264E+00  0.7258E+00
      2.258  0.9958E+00  0.7870E+00
      2.319  0.1022E+01  0.8498E+00
      2.381  0.1018E+01  0.9124E+00
      2.442  0.1010E+01  0.9744E+00
      2.504  0.1015E+01  0.1037E+01
      2.565  0.1037E+01  0.1101E+01
      2.627  0.1068E+01  0.1166E+01
      2.688  0.1107E+01  0.1234E+01
      2.750  0.1165E+01  0.1306E+01
      2.811  0.1247E+01  0.1382E+01
      2.873  0.1339E+01  0.1465E+01
      2.934  0.1418E+01  0.1552E+01
      2.996  0.1473E+01  0.1642E+01
      3.057  0.1516E+01  0.1736E+01
      3.118  0.1564E+01  0.1832E+01
      3.180  0.1613E+01  0.1931E+01
      3.241  0.1645E+01  0.2032E+01
      3.303  0.1648E+01  0.2133E+01
      3.364  0.1622E+01  0.2233E+01
      3.426  0.1577E+01  0.2330E+01
      3.487  0.1527E+01  0.2424E+01
      3.549  0.1490E+01  0.2515E+01
      3.610  0.1477E+01  0.2606E+01
      3.672  0.1479E+01  0.2697E+01
      3.733  0.1474E+01  0.2788E+01
      3.795  0.1446E+01  0.2876E+01
      3.856  0.1399E+01  0.2962E+01
      3.917  0.1351E+01  0.3045E+01
      3.979  0.1320E+01  0.3127E+01
      4.040  0.1309E+01  0.3207E+01
      4.102  0.1305E+01  0.3287E+01
      4.163  0.1294E+01  0.3367E+01
      4.225  0.1279E+01  0.3445E+01
      4.286  0.1281E+01  0.3524E+01
      4.348  0.1322E+01  0.3605E+01
      4.409  0.1401E+01  0.3691E+01
      4.471  0.1504E+01  0.3784E+01
      4.532  0.1613E+01  0.3883E+01
      4.594  0.1714E+01  0.3988E+01
      4.655  0.1780E+01  0.4098E+01
      4.716  0.1786E+01  0.4208E+01
      4.778  0.1739E+01  0.4314E+01
      4.839  0.1691E+01  0.4418E+01
      4.901  0.1705E+01  0.4523E+01
      4.962  0.1806E+01  0.4634E+01
      5.024  0.1959E+01  0.4755E+01
      5.085  0.2103E+01  0.4884E+01
      5.147  0.2196E+01  0.5019E+01
      5.208  0.2235E+01  0.5156E+01
      5.270  0.2245E+01  0.5294E+01
      5.331  0.2260E+01  0.5433E+01
      5.393  0.2308E+01  0.5575E+01
      5.454  0.2394E+01  0.5722E+01
      5.516  0.2494E+01  0.5875E+01
      5.577  0.2552E+01  0.6032E+01
      5.638  0.2512E+01  0.6187E+01
      5.700  0.2361E+01  0.6332E+01
      5.761  0.2142E+01  0.6464E+01
      5.823  0.1926E+01  0.6582E+01
      5.884  0.1755E+01  0.6690E+01
      5.946  0.1629E+01  0.6790E+01
      6.007  0.1534E+01  0.6884E+01
      6.069  0.1466E+01  0.6974E+01
      6.130  0.1439E+01  0.7063E+01
      6.192  0.1463E+01  0.7153E+01
      6.253  0.1530E+01  0.7247E+01
      6.315  0.1618E+01  0.7346E+01
      6.376  0.1706E+01  0.7451E+01
      6.437  0.1787E+01  0.7561E+01
      6.499  0.1868E+01  0.7676E+01
      6.560  0.1950E+01  0.7795E+01
      6.622  0.2014E+01  0.7919E+01
      6.683  0.2035E+01  0.8044E+01
      6.745  0.2015E+01  0.8168E+01
      6.806  0.1981E+01  0.8290E+01
      6.868  0.1948E+01  0.8410E+01
      6.929  0.1903E+01  0.8527E+01
      6.991  0.1828E+01  0.8639E+01
      7.052  0.1739E+01  0.8746E+01
      7.114  0.1685E+01  0.8850E+01
      7.175  0.1691E+01  0.8953E+01
      7.236  0.1738E+01  0.9060E+01
      7.298  0.1782E+01  0.9170E+01
      7.359  0.1803E+01  0.9281E+01
      7.421  0.1821E+01  0.9393E+01
      7.482  0.1876E+01  0.9508E+01
      7.544  0.1988E+01  0.9630E+01
      7.605  0.2125E+01  0.9761E+01
      7.667  0.2197E+01  0.9896E+01
      7.728  0.2088E+01  0.1002E+02
      7.790  0.1731E+01  0.1013E+02
      7.851  0.1185E+01  0.1020E+02
      7.913  0.6160E+00  0.1024E+02
      7.974  0.1915E+00  0.1025E+02
      8.036 -0.2437E-01  0.1025E+02
      8.097 -0.7918E-01  0.1025E+02
      8.158 -0.6052E-01  0.1024E+02
      8.220 -0.3054E-01  0.1024E+02
      8.281 -0.1159E-01  0.1024E+02
      8.343 -0.3455E-02  0.1024E+02
      8.404 -0.8256E-03  0.1024E+02
      8.466 -0.1598E-03  0.1024E+02
      8.527 -0.2521E-04  0.1024E+02
      8.589 -0.3255E-05  0.1024E+02
      8.650 -0.3449E-06  0.1024E+02
      8.712 -0.3006E-07  0.1024E+02
      8.773 -0.2157E-08  0.1024E+02
      8.835 -0.1276E-09  0.1024E+02
      8.896 -0.6226E-11  0.1024E+02
      8.957 -0.2509E-12  0.1024E+02
      9.019 -0.8368E-14  0.1024E+02
      9.080 -0.2032E-15  0.1024E+02
      9.142  0.0000E+00  0.1024E+02
      9.203  0.0000E+00  0.1024E+02
      9.265  0.0000E+00  0.1024E+02
      9.326  0.0000E+00  0.1024E+02
      9.388  0.0000E+00  0.1024E+02
      9.449  0.0000E+00  0.1024E+02
      9.511  0.0000E+00  0.1024E+02
      9.572  0.0000E+00  0.1024E+02
      9.634  0.0000E+00  0.1024E+02
      9.695  0.0000E+00  0.1024E+02
      9.757  0.0000E+00  0.1024E+02
      9.818  0.0000E+00  0.1024E+02
