<?xml version="1.0" encoding="ISO-8859-1"?>
<modeling>
 <generator>
  <i name="program" type="string">vasp </i>
  <i name="version" type="string">5.4.4.18Apr17-6-g9f103f2a35  </i>
  <i name="subversion" type="string">(build Aug 17 2017 06:00:38) complex            parallel </i>
  <i name="platform" type="string">LinuxIFC </i>
  <i name="date" type="string">2019 07 13 </i>
  <i name="time" type="string">03:01:32 </i>
 </generator>
 <incar>
  <i type="string" name="SYSTEM">Opt</i>
  <i type="int" name="ISTART">     0</i>
  <i type="string" name="PREC">normal</i>
  <i type="string" name="ALGO"> Fast</i>
  <i type="int" name="ISPIN">     1</i>
  <i type="int" name="ICHARG">     2</i>
  <i type="int" name="NELM">   400</i>
  <i type="int" name="IBRION">     2</i>
  <i name="EDIFF">      0.00000100</i>
  <i name="EDIFFG">     -0.01000000</i>
  <i type="int" name="NSW">   100</i>
  <i type="int" name="ISIF">     2</i>
  <i type="int" name="ISYM">     0</i>
  <i name="ENCUT">    400.00000000</i>
  <i type="int" name="NGX">    72</i>
  <i type="int" name="NGY">    72</i>
  <i type="int" name="NGZ">    72</i>
  <i name="POTIM">      0.50000000</i>
  <i type="string" name="LREAL">Auto</i>
  <i type="logical" name="LWAVE"> F  </i>
  <i type="logical" name="LCHARG"> F  </i>
  <v type="int" name="KPOINT_BSE">    -1     0     0     0</v>
  <i type="int" name="NELM">   400</i>
 </incar>
 <structure name="primitive_cell" >
  <crystal>
   <varray name="basis" >
    <v>      10.33484705       0.00000000       0.00000000 </v>
    <v>       0.00000000      10.33484705       0.00000000 </v>
    <v>       0.00000000       0.00000000      10.33484705 </v>
   </varray>
   <i name="volume">   1103.85533447 </i>
   <varray name="rec_basis" >
    <v>       0.09676002       0.00000000       0.00000000 </v>
    <v>       0.00000000       0.09676002       0.00000000 </v>
    <v>       0.00000000       0.00000000       0.09676002 </v>
   </varray>
  </crystal>
  <varray name="positions" >
   <v>       0.00000000       0.00000000       0.00000000 </v>
   <v>       0.00000000       0.16666893       0.16666893 </v>
   <v>       0.16666893       0.00000000       0.16666893 </v>
   <v>       0.16666893       0.16666893       0.00000000 </v>
   <v>       0.00000000      -0.16666896       0.16666893 </v>
   <v>       0.00000000       0.16666893      -0.16666896 </v>
   <v>       0.16666893      -0.16666896       0.00000000 </v>
   <v>       0.16666893       0.00000000      -0.16666896 </v>
   <v>      -0.16666896       0.00000000       0.16666893 </v>
   <v>      -0.16666896       0.16666893       0.00000000 </v>
   <v>       0.00000000      -0.16666896      -0.16666896 </v>
   <v>      -0.16666896      -0.16666896       0.00000000 </v>
   <v>      -0.16666896       0.00000000      -0.16666896 </v>
   <v>       0.00000000      -0.33333103       0.00000000 </v>
   <v>       0.00000000       0.00000000      -0.33333103 </v>
   <v>      -0.33333103       0.00000000       0.00000000 </v>
   <v>       0.00000000       0.33333106       0.00000000 </v>
   <v>       0.00000000       0.00000000       0.33333106 </v>
   <v>       0.33333106       0.00000000       0.00000000 </v>
   <v>       0.16666893      -0.33333104       0.16666893 </v>
   <v>       0.16666893       0.16666893      -0.33333104 </v>
   <v>      -0.33333104       0.16666893       0.16666893 </v>
   <v>       0.16666893      -0.33333104      -0.16666896 </v>
   <v>       0.16666893      -0.16666896      -0.33333104 </v>
   <v>      -0.33333104      -0.16666896       0.16666893 </v>
   <v>      -0.33333104       0.16666893      -0.16666896 </v>
   <v>      -0.16666896      -0.33333104       0.16666893 </v>
   <v>      -0.16666896       0.16666893      -0.33333104 </v>
   <v>       0.16666893       0.33333107       0.16666893 </v>
   <v>       0.16666893       0.16666893       0.33333107 </v>
   <v>       0.33333107       0.16666893       0.16666893 </v>
   <v>      -0.33333104      -0.16666896      -0.16666896 </v>
   <v>      -0.16666896      -0.33333104      -0.16666896 </v>
   <v>      -0.16666896      -0.16666896      -0.33333104 </v>
   <v>       0.16666893      -0.16666896       0.33333107 </v>
   <v>       0.16666893       0.33333107      -0.16666896 </v>
   <v>       0.33333107      -0.16666896       0.16666893 </v>
   <v>       0.33333107       0.16666893      -0.16666896 </v>
   <v>      -0.16666896       0.33333107       0.16666893 </v>
   <v>      -0.16666896       0.16666893       0.33333107 </v>
   <v>       0.33333107      -0.16666896      -0.16666896 </v>
   <v>      -0.16666896      -0.16666896       0.33333107 </v>
   <v>      -0.16666896       0.33333107      -0.16666896 </v>
   <v>       0.00000000      -0.33333104      -0.33333104 </v>
   <v>      -0.33333104      -0.33333104       0.00000000 </v>
   <v>      -0.33333104       0.00000000      -0.33333104 </v>
   <v>       0.00000000      -0.33333104       0.33333107 </v>
   <v>       0.00000000       0.33333107      -0.33333104 </v>
   <v>       0.33333107      -0.33333104       0.00000000 </v>
   <v>       0.33333107       0.00000000      -0.33333104 </v>
   <v>      -0.33333104       0.33333107       0.00000000 </v>
   <v>      -0.33333104       0.00000000       0.33333107 </v>
   <v>       0.00000000       0.33333107       0.33333107 </v>
   <v>       0.33333107       0.33333107       0.00000000 </v>
   <v>       0.33333107       0.00000000       0.33333107 </v>
   <v>       0.00000000      -0.50000000       0.16666894 </v>
   <v>       0.00000000       0.16666894      -0.50000000 </v>
   <v>       0.16666894      -0.50000000       0.00000000 </v>
   <v>       0.16666894       0.00000000      -0.50000000 </v>
   <v>      -0.50000000       0.00000000       0.16666894 </v>
   <v>      -0.50000000       0.16666894       0.00000000 </v>
   <v>       0.00000000      -0.16666897      -0.50000000 </v>
   <v>       0.00000000      -0.50000000      -0.16666897 </v>
   <v>      -0.50000000      -0.16666897       0.00000000 </v>
   <v>      -0.50000000       0.00000000      -0.16666897 </v>
   <v>      -0.16666897      -0.50000000       0.00000000 </v>
   <v>      -0.16666897       0.00000000      -0.50000000 </v>
   <v>      -0.33333104      -0.33333104      -0.33333104 </v>
   <v>       0.33333107      -0.33333104      -0.33333104 </v>
   <v>      -0.33333104      -0.33333104       0.33333107 </v>
   <v>      -0.33333104       0.33333107      -0.33333104 </v>
   <v>       0.33333107      -0.33333104       0.33333107 </v>
   <v>       0.33333107       0.33333107      -0.33333104 </v>
   <v>      -0.33333104       0.33333107       0.33333107 </v>
   <v>       0.33333107       0.33333107       0.33333107 </v>
   <v>       0.16666893      -0.33333104      -0.50000000 </v>
   <v>       0.16666893      -0.50000000      -0.33333104 </v>
   <v>      -0.50000000      -0.33333104       0.16666893 </v>
   <v>      -0.50000000       0.16666893      -0.33333104 </v>
   <v>      -0.33333104      -0.50000000       0.16666893 </v>
   <v>      -0.33333104       0.16666893      -0.50000000 </v>
   <v>      -0.50000000      -0.33333104      -0.16666896 </v>
   <v>      -0.50000000      -0.16666896      -0.33333104 </v>
   <v>      -0.33333104      -0.16666896      -0.50000000 </v>
   <v>      -0.33333104      -0.50000000      -0.16666896 </v>
   <v>      -0.16666896      -0.33333104      -0.50000000 </v>
   <v>      -0.16666896      -0.50000000      -0.33333104 </v>
   <v>       0.16666893       0.33333107      -0.50000000 </v>
   <v>       0.16666893      -0.50000000       0.33333107 </v>
   <v>       0.33333107      -0.50000000       0.16666893 </v>
   <v>       0.33333107       0.16666893      -0.50000000 </v>
   <v>      -0.50000000       0.33333107       0.16666893 </v>
   <v>      -0.50000000       0.16666893       0.33333107 </v>
   <v>       0.33333107      -0.16666896      -0.50000000 </v>
   <v>       0.33333107      -0.50000000      -0.16666896 </v>
   <v>      -0.50000000      -0.16666896       0.33333107 </v>
   <v>      -0.50000000       0.33333107      -0.16666896 </v>
   <v>      -0.16666896       0.33333107      -0.50000000 </v>
   <v>      -0.16666896      -0.50000000       0.33333107 </v>
   <v>       0.00000000      -0.50000000      -0.50000000 </v>
   <v>      -0.50000000      -0.50000000       0.00000000 </v>
   <v>      -0.50000000       0.00000000      -0.50000000 </v>
   <v>      -0.50000000      -0.33333103      -0.50000000 </v>
   <v>      -0.33333103      -0.50000000      -0.50000000 </v>
   <v>      -0.50000000       0.33333106      -0.50000000 </v>
   <v>      -0.50000000      -0.50000000       0.33333106 </v>
   <v>       0.33333106      -0.50000000      -0.50000000 </v>
  </varray>
 </structure>
 <varray name="primitive_index" >
  <v type="int" >        1 </v>
  <v type="int" >        2 </v>
  <v type="int" >       19 </v>
  <v type="int" >       20 </v>
  <v type="int" >        6 </v>
  <v type="int" >       14 </v>
  <v type="int" >       21 </v>
  <v type="int" >       25 </v>
  <v type="int" >       99 </v>
  <v type="int" >      100 </v>
  <v type="int" >       18 </v>
  <v type="int" >      101 </v>
  <v type="int" >      105 </v>
  <v type="int" >        5 </v>
  <v type="int" >       13 </v>
  <v type="int" >       87 </v>
  <v type="int" >        3 </v>
  <v type="int" >        7 </v>
  <v type="int" >       37 </v>
  <v type="int" >       28 </v>
  <v type="int" >       31 </v>
  <v type="int" >       79 </v>
  <v type="int" >       33 </v>
  <v type="int" >       34 </v>
  <v type="int" >       80 </v>
  <v type="int" >       83 </v>
  <v type="int" >       92 </v>
  <v type="int" >       95 </v>
  <v type="int" >       27 </v>
  <v type="int" >       29 </v>
  <v type="int" >       38 </v>
  <v type="int" >       86 </v>
  <v type="int" >       97 </v>
  <v type="int" >       98 </v>
  <v type="int" >       30 </v>
  <v type="int" >       32 </v>
  <v type="int" >       39 </v>
  <v type="int" >       42 </v>
  <v type="int" >       91 </v>
  <v type="int" >       93 </v>
  <v type="int" >       45 </v>
  <v type="int" >       94 </v>
  <v type="int" >       96 </v>
  <v type="int" >       17 </v>
  <v type="int" >       73 </v>
  <v type="int" >       77 </v>
  <v type="int" >       11 </v>
  <v type="int" >       15 </v>
  <v type="int" >       48 </v>
  <v type="int" >       52 </v>
  <v type="int" >       71 </v>
  <v type="int" >       74 </v>
  <v type="int" >        9 </v>
  <v type="int" >       46 </v>
  <v type="int" >       49 </v>
  <v type="int" >        4 </v>
  <v type="int" >        8 </v>
  <v type="int" >       35 </v>
  <v type="int" >       36 </v>
  <v type="int" >       54 </v>
  <v type="int" >       55 </v>
  <v type="int" >       12 </v>
  <v type="int" >       16 </v>
  <v type="int" >       59 </v>
  <v type="int" >       66 </v>
  <v type="int" >       89 </v>
  <v type="int" >       90 </v>
  <v type="int" >       85 </v>
  <v type="int" >       44 </v>
  <v type="int" >       82 </v>
  <v type="int" >       84 </v>
  <v type="int" >       41 </v>
  <v type="int" >       43 </v>
  <v type="int" >       81 </v>
  <v type="int" >       40 </v>
  <v type="int" >       24 </v>
  <v type="int" >       26 </v>
  <v type="int" >       58 </v>
  <v type="int" >       67 </v>
  <v type="int" >       72 </v>
  <v type="int" >       75 </v>
  <v type="int" >       69 </v>
  <v type="int" >       70 </v>
  <v type="int" >       76 </v>
  <v type="int" >       78 </v>
  <v type="int" >      104 </v>
  <v type="int" >      106 </v>
  <v type="int" >       22 </v>
  <v type="int" >       23 </v>
  <v type="int" >       47 </v>
  <v type="int" >       50 </v>
  <v type="int" >       56 </v>
  <v type="int" >       61 </v>
  <v type="int" >       51 </v>
  <v type="int" >       53 </v>
  <v type="int" >       65 </v>
  <v type="int" >       68 </v>
  <v type="int" >      102 </v>
  <v type="int" >      103 </v>
  <v type="int" >       10 </v>
  <v type="int" >       57 </v>
  <v type="int" >       60 </v>
  <v type="int" >       64 </v>
  <v type="int" >       88 </v>
  <v type="int" >       62 </v>
  <v type="int" >       63 </v>
  <v type="int" >      107 </v>
 </varray>
 <kpoints>
  <generation param="Monkhorst-Pack">
   <v type="int" name="divisions">       4        4        4 </v>
   <v name="usershift">      0.00000000       0.00000000       0.00000000 </v>
   <v name="genvec1">      0.25000000       0.00000000       0.00000000 </v>
   <v name="genvec2">      0.00000000       0.25000000       0.00000000 </v>
   <v name="genvec3">      0.00000000       0.00000000       0.25000000 </v>
   <v name="shift">      0.50000000       0.50000000       0.50000000 </v>
  </generation>
  <varray name="kpointlist" >
   <v>       0.12500000       0.12500000       0.12500000 </v>
   <v>       0.37500000       0.12500000       0.12500000 </v>
   <v>      -0.37500000       0.12500000       0.12500000 </v>
   <v>      -0.12500000       0.12500000       0.12500000 </v>
   <v>       0.12500000       0.37500000       0.12500000 </v>
   <v>       0.37500000       0.37500000       0.12500000 </v>
   <v>      -0.37500000       0.37500000       0.12500000 </v>
   <v>      -0.12500000       0.37500000       0.12500000 </v>
   <v>       0.12500000      -0.37500000       0.12500000 </v>
   <v>       0.37500000      -0.37500000       0.12500000 </v>
   <v>      -0.37500000      -0.37500000       0.12500000 </v>
   <v>      -0.12500000      -0.37500000       0.12500000 </v>
   <v>       0.12500000      -0.12500000       0.12500000 </v>
   <v>       0.37500000      -0.12500000       0.12500000 </v>
   <v>      -0.37500000      -0.12500000       0.12500000 </v>
   <v>      -0.12500000      -0.12500000       0.12500000 </v>
   <v>       0.12500000       0.12500000       0.37500000 </v>
   <v>       0.37500000       0.12500000       0.37500000 </v>
   <v>      -0.37500000       0.12500000       0.37500000 </v>
   <v>      -0.12500000       0.12500000       0.37500000 </v>
   <v>       0.12500000       0.37500000       0.37500000 </v>
   <v>       0.37500000       0.37500000       0.37500000 </v>
   <v>      -0.37500000       0.37500000       0.37500000 </v>
   <v>      -0.12500000       0.37500000       0.37500000 </v>
   <v>       0.12500000      -0.37500000       0.37500000 </v>
   <v>       0.37500000      -0.37500000       0.37500000 </v>
   <v>      -0.37500000      -0.37500000       0.37500000 </v>
   <v>      -0.12500000      -0.37500000       0.37500000 </v>
   <v>       0.12500000      -0.12500000       0.37500000 </v>
   <v>       0.37500000      -0.12500000       0.37500000 </v>
   <v>      -0.37500000      -0.12500000       0.37500000 </v>
   <v>      -0.12500000      -0.12500000       0.37500000 </v>
  </varray>
  <varray name="weights" >
   <v>       0.03125000 </v>
   <v>       0.03125000 </v>
   <v>       0.03125000 </v>
   <v>       0.03125000 </v>
   <v>       0.03125000 </v>
   <v>       0.03125000 </v>
   <v>       0.03125000 </v>
   <v>       0.03125000 </v>
   <v>       0.03125000 </v>
   <v>       0.03125000 </v>
   <v>       0.03125000 </v>
   <v>       0.03125000 </v>
   <v>       0.03125000 </v>
   <v>       0.03125000 </v>
   <v>       0.03125000 </v>
   <v>       0.03125000 </v>
   <v>       0.03125000 </v>
   <v>       0.03125000 </v>
   <v>       0.03125000 </v>
   <v>       0.03125000 </v>
   <v>       0.03125000 </v>
   <v>       0.03125000 </v>
   <v>       0.03125000 </v>
   <v>       0.03125000 </v>
   <v>       0.03125000 </v>
   <v>       0.03125000 </v>
   <v>       0.03125000 </v>
   <v>       0.03125000 </v>
   <v>       0.03125000 </v>
   <v>       0.03125000 </v>
   <v>       0.03125000 </v>
   <v>       0.03125000 </v>
  </varray>
 </kpoints>
 <parameters>
  <separator name="general" >
   <i type="string" name="SYSTEM">Opt</i>
   <i type="logical" name="LCOMPAT"> F  </i>
  </separator>
  <separator name="electronic" >
   <i type="string" name="PREC">normal</i>
   <i name="ENMAX">    400.00000000</i>
   <i name="ENAUG">    511.36800000</i>
   <i name="EDIFF">      0.00000100</i>
   <i type="int" name="IALGO">    68</i>
   <i type="int" name="IWAVPR">    11</i>
   <i type="int" name="NBANDS">   512</i>
   <i name="NELECT">    854.00000000</i>
   <i type="int" name="TURBO">     0</i>
   <i type="int" name="IRESTART">     0</i>
   <i type="int" name="NREBOOT">     0</i>
   <i type="int" name="NMIN">     0</i>
   <i name="EREF">      0.00000000</i>
   <separator name="electronic smearing" >
    <i type="int" name="ISMEAR">     1</i>
    <i name="SIGMA">      0.20000000</i>
    <i name="KSPACING">      0.50000000</i>
    <i type="logical" name="KGAMMA"> T  </i>
   </separator>
   <separator name="electronic projectors" >
    <i type="logical" name="LREAL"> T  </i>
    <v name="ROPT">     -0.00050000     -0.00050000</v>
    <i type="int" name="LMAXPAW">  -100</i>
    <i type="int" name="LMAXMIX">     2</i>
    <i type="logical" name="NLSPLINE"> F  </i>
   </separator>
   <separator name="electronic startup" >
    <i type="int" name="ISTART">     0</i>
    <i type="int" name="ICHARG">     2</i>
    <i type="int" name="INIWAV">     1</i>
   </separator>
   <separator name="electronic spin" >
    <i type="int" name="ISPIN">     1</i>
    <i type="logical" name="LNONCOLLINEAR"> F  </i>
    <v name="MAGMOM">      1.00000000      1.00000000      1.00000000      1.00000000      1.00000000      1.00000000      1.00000000      1.00000000      1.00000000      1.00000000      1.00000000      1.00000000      1.00000000      1.00000000      1.00000000      1.00000000      1.00000000      1.00000000      1.00000000      1.00000000
      1.00000000      1.00000000      1.00000000      1.00000000      1.00000000      1.00000000      1.00000000      1.00000000      1.00000000      1.00000000      1.00000000      1.00000000      1.00000000      1.00000000      1.00000000      1.00000000      1.00000000      1.00000000      1.00000000      1.00000000
      1.00000000      1.00000000      1.00000000      1.00000000      1.00000000      1.00000000      1.00000000      1.00000000      1.00000000      1.00000000      1.00000000      1.00000000      1.00000000      1.00000000      1.00000000      1.00000000      1.00000000      1.00000000      1.00000000      1.00000000
      1.00000000      1.00000000      1.00000000      1.00000000      1.00000000      1.00000000      1.00000000      1.00000000      1.00000000      1.00000000      1.00000000      1.00000000      1.00000000      1.00000000      1.00000000      1.00000000      1.00000000      1.00000000      1.00000000      1.00000000
      1.00000000      1.00000000      1.00000000      1.00000000      1.00000000      1.00000000      1.00000000      1.00000000      1.00000000      1.00000000      1.00000000      1.00000000      1.00000000      1.00000000      1.00000000      1.00000000      1.00000000      1.00000000      1.00000000      1.00000000
      1.00000000      1.00000000      1.00000000      1.00000000      1.00000000      1.00000000      1.00000000</v>
    <i name="NUPDOWN">     -1.00000000</i>
    <i type="logical" name="LSORBIT"> F  </i>
    <v name="SAXIS">      0.00000000      0.00000000      1.00000000</v>
    <i type="logical" name="LSPIRAL"> F  </i>
    <v name="QSPIRAL">      0.00000000      0.00000000      0.00000000</v>
    <i type="logical" name="LZEROZ"> F  </i>
   </separator>
   <separator name="electronic exchange-correlation" >
    <i type="logical" name="LASPH"> F  </i>
    <i type="logical" name="LMETAGGA"> F  </i>
   </separator>
   <separator name="electronic convergence" >
    <i type="int" name="NELM">   400</i>
    <i type="int" name="NELMDL">    -5</i>
    <i type="int" name="NELMIN">     2</i>
    <i name="ENINI">    400.00000000</i>
    <separator name="electronic convergence detail" >
     <i type="logical" name="LDIAG"> T  </i>
     <i type="logical" name="LSUBROT"> F  </i>
     <i name="WEIMIN">      0.00100000</i>
     <i name="EBREAK">      0.00000000</i>
     <i name="DEPER">      0.30000000</i>
     <i type="int" name="NRMM">     4</i>
     <i name="TIME">      0.40000000</i>
    </separator>
   </separator>
   <separator name="electronic mixer" >
    <i name="AMIX">      0.40000000</i>
    <i name="BMIX">      1.00000000</i>
    <i name="AMIN">      0.10000000</i>
    <i name="AMIX_MAG">      1.60000000</i>
    <i name="BMIX_MAG">      1.00000000</i>
    <separator name="electronic mixer details" >
     <i type="int" name="IMIX">     4</i>
     <i type="logical" name="MIXFIRST"> F  </i>
     <i type="int" name="MAXMIX">   -45</i>
     <i name="WC">    100.00000000</i>
     <i type="int" name="INIMIX">     1</i>
     <i type="int" name="MIXPRE">     1</i>
     <i type="int" name="MREMOVE">     5</i>
    </separator>
   </separator>
   <separator name="electronic dipolcorrection" >
    <i type="logical" name="LDIPOL"> F  </i>
    <i type="logical" name="LMONO"> F  </i>
    <i type="int" name="IDIPOL">     0</i>
    <i name="EPSILON">      1.00000000</i>
    <v name="DIPOL">   -100.00000000   -100.00000000   -100.00000000</v>
    <i name="EFIELD">      0.00000000</i>
   </separator>
  </separator>
  <separator name="grids" >
   <i type="int" name="NGX">    72</i>
   <i type="int" name="NGY">    72</i>
   <i type="int" name="NGZ">    72</i>
   <i type="int" name="NGXF">   144</i>
   <i type="int" name="NGYF">   144</i>
   <i type="int" name="NGZF">   144</i>
   <i type="logical" name="ADDGRID"> F  </i>
  </separator>
  <separator name="ionic" >
   <i type="int" name="NSW">   100</i>
   <i type="int" name="IBRION">     2</i>
   <i type="int" name="MDALGO">     0</i>
   <i type="int" name="ISIF">     2</i>
   <i name="PSTRESS">      0.00000000</i>
   <i name="EDIFFG">     -0.01000000</i>
   <i type="int" name="NFREE">     1</i>
   <i name="POTIM">      0.50000000</i>
   <i name="SMASS">     -3.00000000</i>
   <i name="SCALEE">      1.00000000</i>
  </separator>
  <separator name="ionic md" >
   <i name="TEBEG">      0.00010000</i>
   <i name="TEEND">      0.00010000</i>
   <i type="int" name="NBLOCK">     1</i>
   <i type="int" name="KBLOCK">   100</i>
   <i type="int" name="NPACO">   256</i>
   <i name="APACO">     16.00000000</i>
  </separator>
  <separator name="symmetry" >
   <i type="int" name="ISYM">     0</i>
   <i name="SYMPREC">      0.00001000</i>
  </separator>
  <separator name="dos" >
   <i type="int" name="LORBIT">     0</i>
   <v name="RWIGS">     -1.00000000     -1.00000000</v>
   <i type="int" name="NEDOS">   301</i>
   <i name="EMIN">     10.00000000</i>
   <i name="EMAX">    -10.00000000</i>
   <i name="EFERMI">      0.00000000</i>
  </separator>
  <separator name="writing" >
   <i type="int" name="NWRITE">     2</i>
   <i type="logical" name="LWAVE"> F  </i>
   <i type="logical" name="LDOWNSAMPLE"> F  </i>
   <i type="logical" name="LCHARG"> F  </i>
   <i type="logical" name="LPARD"> F  </i>
   <i type="logical" name="LVTOT"> F  </i>
   <i type="logical" name="LVHAR"> F  </i>
   <i type="logical" name="LELF"> F  </i>
   <i type="logical" name="LOPTICS"> F  </i>
   <v name="STM">      0.00000000      0.00000000      0.00000000      0.00000000      0.00000000      0.00000000      0.00000000</v>
  </separator>
  <separator name="performance" >
   <i type="int" name="NPAR">     2</i>
   <i type="int" name="NSIM">     4</i>
   <i type="int" name="NBLK">    -1</i>
   <i type="logical" name="LPLANE"> T  </i>
   <i type="logical" name="LSCALAPACK"> T  </i>
   <i type="logical" name="LSCAAWARE"> F  </i>
   <i type="logical" name="LSCALU"> F  </i>
   <i type="logical" name="LASYNC"> F  </i>
   <i type="logical" name="LORBITALREAL"> F  </i>
  </separator>
  <separator name="miscellaneous" >
   <i type="int" name="IDIOT">     3</i>
   <i type="int" name="ISPECIAL">     0</i>
   <i type="logical" name="LMUSIC"> F  </i>
   <v name="POMASS">     55.84700000    127.60000000</v>
   <v name="DARWINR">      0.00000000      0.00000000</v>
   <v name="DARWINV">      1.00000000      1.00000000</v>
   <i type="logical" name="LCORR"> T  </i>
  </separator>
  <i type="logical" name="GGA_COMPAT"> T  </i>
  <i type="logical" name="LBERRY"> F  </i>
  <i type="int" name="ICORELEVEL">     0</i>
  <i type="logical" name="LDAU"> F  </i>
  <i type="int" name="I_CONSTRAINED_M">     0</i>
  <separator name="electronic exchange-correlation" >
   <i type="string" name="GGA">--</i>
   <i type="int" name="VOSKOWN">     0</i>
   <i type="logical" name="LHFCALC"> F  </i>
   <i type="string" name="PRECFOCK"></i>
   <i type="logical" name="LSYMGRAD"> F  </i>
   <i type="logical" name="LHFONE"> F  </i>
   <i type="logical" name="LRHFCALC"> F  </i>
   <i type="logical" name="LTHOMAS"> F  </i>
   <i type="logical" name="LMODELHF"> F  </i>
   <i name="ENCUT4O">     -1.00000000</i>
   <i type="int" name="EXXOEP">     0</i>
   <i type="int" name="FOURORBIT">     0</i>
   <i name="AEXX">      0.00000000</i>
   <i name="HFALPHA">      0.00000000</i>
   <i name="MCALPHA">      0.00000000</i>
   <i name="ALDAX">      1.00000000</i>
   <i name="AGGAX">      1.00000000</i>
   <i name="ALDAC">      1.00000000</i>
   <i name="AGGAC">      1.00000000</i>
   <i type="int" name="NKREDX">     1</i>
   <i type="int" name="NKREDY">     1</i>
   <i type="int" name="NKREDZ">     1</i>
   <i type="logical" name="SHIFTRED"> F  </i>
   <i type="logical" name="ODDONLY"> F  </i>
   <i type="logical" name="EVENONLY"> F  </i>
   <i type="int" name="LMAXFOCK">     0</i>
   <i type="int" name="NMAXFOCKAE">     0</i>
   <i type="logical" name="LFOCKAEDFT"> F  </i>
   <i name="HFSCREEN">      0.00000000</i>
   <i name="HFSCREENC">      0.00000000</i>
   <i type="int" name="NBANDSGWLOW">     0</i>
  </separator>
  <separator name="vdW DFT" >
   <i type="logical" name="LUSE_VDW"> F  </i>
   <i name="Zab_VDW">     -0.84910000</i>
   <i name="PARAM1">      0.12340000</i>
   <i name="PARAM2">      1.00000000</i>
   <i name="PARAM3">      0.00000000</i>
  </separator>
  <separator name="model GW" >
   <i type="int" name="MODEL_GW">     0</i>
   <i name="MODEL_EPS0">      6.18984300</i>
   <i name="MODEL_ALPHA">      1.00000000</i>
  </separator>
  <separator name="linear response parameters" >
   <i type="logical" name="LEPSILON"> F  </i>
   <i type="logical" name="LRPA"> F  </i>
   <i type="logical" name="LNABLA"> F  </i>
   <i type="logical" name="LVEL"> F  </i>
   <i type="int" name="KINTER">     0</i>
   <i name="CSHIFT">      0.10000000</i>
   <i name="OMEGAMAX">     -1.00000000</i>
   <i name="DEG_THRESHOLD">      0.00200000</i>
   <i name="RTIME">     -0.10000000</i>
   <i name="WPLASMAI">      0.00000000</i>
   <v name="DFIELD">      0.00000000      0.00000000      0.00000000</v>
   <v name="WPLASMA">      0.00000000      0.00000000      0.00000000      0.00000000      0.00000000      0.00000000      0.00000000      0.00000000      0.00000000</v>
  </separator>
  <separator name="orbital magnetization" >
   <i type="logical" name="NUCIND"> F  </i>
   <v name="MAGPOS">      0.00000000      0.00000000      0.00000000</v>
   <i type="logical" name="LNICSALL"> T  </i>
   <i type="logical" name="ORBITALMAG"> F  </i>
   <i type="logical" name="LMAGBLOCH"> F  </i>
   <i type="logical" name="LCHIMAG"> F  </i>
   <i type="logical" name="LGAUGE"> T  </i>
   <i type="int" name="MAGATOM">     0</i>
   <v name="MAGDIPOL">      0.00000000      0.00000000      0.00000000</v>
   <v name="AVECCONST">      0.00000000      0.00000000      0.00000000</v>
  </separator>
  <separator name="response functions" >
   <i type="logical" name="LADDER"> F  </i>
   <i type="logical" name="LRPAFORCE"> F  </i>
   <i type="logical" name="LFXC"> F  </i>
   <i type="logical" name="LHARTREE"> T  </i>
   <i type="int" name="IBSE">     0</i>
   <v type="int" name="KPOINT">    -1     0     0     0</v>
   <i type="logical" name="LTCTE"> F  </i>
   <i type="logical" name="LTETE"> F  </i>
   <i type="logical" name="LTRIPLET"> F  </i>
   <i type="logical" name="LFXCEPS"> F  </i>
   <i type="logical" name="LFXHEG"> F  </i>
   <i type="int" name="NATURALO">     2</i>
   <i type="logical" name="L2ORDER"> F  </i>
   <i type="logical" name="LMP2LT"> F  </i>
   <i type="logical" name="LUSEW"> F  </i>
   <i name="ENCUTGW">     -2.00000000</i>
   <i name="ENCUTGWSOFT">     -2.00000000</i>
   <i name="ENCUTLF">     -1.00000000</i>
   <i type="int" name="LMAXMP2">    -1</i>
   <i name="SCISSOR">      0.00000000</i>
   <i type="int" name="NOMEGA">     0</i>
   <i type="int" name="NOMEGAR">     0</i>
   <i type="int" name="NBANDSGW">    -1</i>
   <i type="int" name="NBANDSO">    -1</i>
   <i type="int" name="NBANDSV">    -1</i>
   <i type="int" name="NELM">   400</i>
   <i type="int" name="NELMHF">     1</i>
   <i type="int" name="DIM">     3</i>
   <i type="int" name="ANTIRES">     0</i>
   <i name="OMEGAMAX">    -30.00000000</i>
   <i name="OMEGAMIN">    -30.00000000</i>
   <i name="OMEGATL">   -200.00000000</i>
   <i type="int" name="OMEGAGRID">   140</i>
   <i name="CSHIFT">     -0.10000000</i>
   <i type="logical" name="SELFENERGY"> F  </i>
   <i type="logical" name="LSPECTRAL"> F  </i>
   <i type="logical" name="LSPECTRALGW"> F  </i>
   <i type="logical" name="LSINGLES"> F  </i>
   <i type="logical" name="LFERMIGW"> F  </i>
   <i type="logical" name="ODDONLYGW"> F  </i>
   <i type="logical" name="EVENONLYGW"> F  </i>
   <i type="int" name="NKREDLFX">     1</i>
   <i type="int" name="NKREDLFY">     1</i>
   <i type="int" name="NKREDLFZ">     1</i>
   <i type="int" name="MAXMEM">  2800</i>
   <i type="int" name="TELESCOPE">     0</i>
   <i type="int" name="TAUPAR">     1</i>
   <i type="int" name="OMEGAPAR">    -1</i>
   <i name="LAMBDA">      1.00000000</i>
  </separator>
  <separator name="External order field" >
   <i name="OFIELD_KAPPA">      0.00000000</i>
   <v name="OFIELD_K">      0.00000000      0.00000000      0.00000000</v>
   <i name="OFIELD_Q6_NEAR">      0.00000000</i>
   <i name="OFIELD_Q6_FAR">      0.00000000</i>
   <i name="OFIELD_A">      0.00000000</i>
  </separator>
 </parameters>
 <atominfo>
  <atoms>     107 </atoms>
  <types>       2 </types>
  <array name="atoms" >
   <dimension dim="1">ion</dimension>
   <field type="string">element</field>
   <field type="int">atomtype</field>
   <set>
    <rc><c>Fe</c><c>   1</c></rc>
    <rc><c>Fe</c><c>   1</c></rc>
    <rc><c>Fe</c><c>   1</c></rc>
    <rc><c>Fe</c><c>   1</c></rc>
    <rc><c>Fe</c><c>   1</c></rc>
    <rc><c>Fe</c><c>   1</c></rc>
    <rc><c>Fe</c><c>   1</c></rc>
    <rc><c>Fe</c><c>   1</c></rc>
    <rc><c>Fe</c><c>   1</c></rc>
    <rc><c>Fe</c><c>   1</c></rc>
    <rc><c>Fe</c><c>   1</c></rc>
    <rc><c>Fe</c><c>   1</c></rc>
    <rc><c>Fe</c><c>   1</c></rc>
    <rc><c>Fe</c><c>   1</c></rc>
    <rc><c>Fe</c><c>   1</c></rc>
    <rc><c>Fe</c><c>   1</c></rc>
    <rc><c>Fe</c><c>   1</c></rc>
    <rc><c>Fe</c><c>   1</c></rc>
    <rc><c>Fe</c><c>   1</c></rc>
    <rc><c>Fe</c><c>   1</c></rc>
    <rc><c>Fe</c><c>   1</c></rc>
    <rc><c>Fe</c><c>   1</c></rc>
    <rc><c>Fe</c><c>   1</c></rc>
    <rc><c>Fe</c><c>   1</c></rc>
    <rc><c>Fe</c><c>   1</c></rc>
    <rc><c>Fe</c><c>   1</c></rc>
    <rc><c>Fe</c><c>   1</c></rc>
    <rc><c>Fe</c><c>   1</c></rc>
    <rc><c>Fe</c><c>   1</c></rc>
    <rc><c>Fe</c><c>   1</c></rc>
    <rc><c>Fe</c><c>   1</c></rc>
    <rc><c>Fe</c><c>   1</c></rc>
    <rc><c>Fe</c><c>   1</c></rc>
    <rc><c>Fe</c><c>   1</c></rc>
    <rc><c>Fe</c><c>   1</c></rc>
    <rc><c>Fe</c><c>   1</c></rc>
    <rc><c>Fe</c><c>   1</c></rc>
    <rc><c>Fe</c><c>   1</c></rc>
    <rc><c>Fe</c><c>   1</c></rc>
    <rc><c>Fe</c><c>   1</c></rc>
    <rc><c>Fe</c><c>   1</c></rc>
    <rc><c>Fe</c><c>   1</c></rc>
    <rc><c>Fe</c><c>   1</c></rc>
    <rc><c>Fe</c><c>   1</c></rc>
    <rc><c>Fe</c><c>   1</c></rc>
    <rc><c>Fe</c><c>   1</c></rc>
    <rc><c>Fe</c><c>   1</c></rc>
    <rc><c>Fe</c><c>   1</c></rc>
    <rc><c>Fe</c><c>   1</c></rc>
    <rc><c>Fe</c><c>   1</c></rc>
    <rc><c>Fe</c><c>   1</c></rc>
    <rc><c>Fe</c><c>   1</c></rc>
    <rc><c>Fe</c><c>   1</c></rc>
    <rc><c>Fe</c><c>   1</c></rc>
    <rc><c>Fe</c><c>   1</c></rc>
    <rc><c>Fe</c><c>   1</c></rc>
    <rc><c>Fe</c><c>   1</c></rc>
    <rc><c>Fe</c><c>   1</c></rc>
    <rc><c>Fe</c><c>   1</c></rc>
    <rc><c>Fe</c><c>   1</c></rc>
    <rc><c>Fe</c><c>   1</c></rc>
    <rc><c>Fe</c><c>   1</c></rc>
    <rc><c>Fe</c><c>   1</c></rc>
    <rc><c>Fe</c><c>   1</c></rc>
    <rc><c>Fe</c><c>   1</c></rc>
    <rc><c>Fe</c><c>   1</c></rc>
    <rc><c>Fe</c><c>   1</c></rc>
    <rc><c>Fe</c><c>   1</c></rc>
    <rc><c>Fe</c><c>   1</c></rc>
    <rc><c>Fe</c><c>   1</c></rc>
    <rc><c>Fe</c><c>   1</c></rc>
    <rc><c>Fe</c><c>   1</c></rc>
    <rc><c>Fe</c><c>   1</c></rc>
    <rc><c>Fe</c><c>   1</c></rc>
    <rc><c>Fe</c><c>   1</c></rc>
    <rc><c>Fe</c><c>   1</c></rc>
    <rc><c>Fe</c><c>   1</c></rc>
    <rc><c>Fe</c><c>   1</c></rc>
    <rc><c>Fe</c><c>   1</c></rc>
    <rc><c>Fe</c><c>   1</c></rc>
    <rc><c>Fe</c><c>   1</c></rc>
    <rc><c>Fe</c><c>   1</c></rc>
    <rc><c>Fe</c><c>   1</c></rc>
    <rc><c>Fe</c><c>   1</c></rc>
    <rc><c>Fe</c><c>   1</c></rc>
    <rc><c>Fe</c><c>   1</c></rc>
    <rc><c>Fe</c><c>   1</c></rc>
    <rc><c>Fe</c><c>   1</c></rc>
    <rc><c>Fe</c><c>   1</c></rc>
    <rc><c>Fe</c><c>   1</c></rc>
    <rc><c>Fe</c><c>   1</c></rc>
    <rc><c>Fe</c><c>   1</c></rc>
    <rc><c>Fe</c><c>   1</c></rc>
    <rc><c>Fe</c><c>   1</c></rc>
    <rc><c>Fe</c><c>   1</c></rc>
    <rc><c>Fe</c><c>   1</c></rc>
    <rc><c>Fe</c><c>   1</c></rc>
    <rc><c>Fe</c><c>   1</c></rc>
    <rc><c>Fe</c><c>   1</c></rc>
    <rc><c>Fe</c><c>   1</c></rc>
    <rc><c>Fe</c><c>   1</c></rc>
    <rc><c>Fe</c><c>   1</c></rc>
    <rc><c>Fe</c><c>   1</c></rc>
    <rc><c>Fe</c><c>   1</c></rc>
    <rc><c>Fe</c><c>   1</c></rc>
    <rc><c>Fe</c><c>   1</c></rc>
    <rc><c>Te</c><c>   2</c></rc>
   </set>
  </array>
  <array name="atomtypes" >
   <dimension dim="1">type</dimension>
   <field type="int">atomspertype</field>
   <field type="string">element</field>
   <field>mass</field>
   <field>valence</field>
   <field type="string">pseudopotential</field>
   <set>
    <rc><c> 106</c><c>Fe</c><c>     55.84700000</c><c>      8.00000000</c><c> PAW_PBE Fe 06Sep2000                   </c></rc>
    <rc><c>   1</c><c>Te</c><c>    127.60000000</c><c>      6.00000000</c><c> PAW_PBE Te 08Apr2002                   </c></rc>
   </set>
  </array>
 </atominfo>
 <structure name="initialpos" >
  <crystal>
   <varray name="basis" >
    <v>      10.33484705       0.00000000       0.00000000 </v>
    <v>       0.00000000      10.33484705       0.00000000 </v>
    <v>       0.00000000       0.00000000      10.33484705 </v>
   </varray>
   <i name="volume">   1103.85533447 </i>
   <varray name="rec_basis" >
    <v>       0.09676002       0.00000000       0.00000000 </v>
    <v>       0.00000000       0.09676002       0.00000000 </v>
    <v>       0.00000000       0.00000000       0.09676002 </v>
   </varray>
  </crystal>
  <varray name="positions" >
   <v>       0.00000000       0.00000000       0.00000000 </v>
   <v>       0.00000000       0.16666893       0.16666893 </v>
   <v>       0.00000000       0.33333106       0.00000000 </v>
   <v>       0.00000000       0.50000000       0.16666894 </v>
   <v>       0.00000000       0.66666897       0.00000000 </v>
   <v>       0.00000000       0.83333104       0.16666893 </v>
   <v>       0.00000000       0.00000000       0.33333106 </v>
   <v>       0.00000000       0.16666894       0.50000000 </v>
   <v>       0.00000000       0.33333107       0.33333107 </v>
   <v>       0.00000000       0.50000000       0.50000000 </v>
   <v>       0.00000000       0.66666896       0.33333107 </v>
   <v>       0.00000000       0.83333103       0.50000000 </v>
   <v>       0.00000000       0.00000000       0.66666897 </v>
   <v>       0.00000000       0.16666893       0.83333104 </v>
   <v>       0.00000000       0.33333107       0.66666896 </v>
   <v>       0.00000000       0.50000000       0.83333103 </v>
   <v>       0.00000000       0.66666896       0.66666896 </v>
   <v>       0.00000000       0.83333104       0.83333104 </v>
   <v>       0.16666893       0.00000000       0.16666893 </v>
   <v>       0.16666893       0.16666893       0.00000000 </v>
   <v>       0.16666893       0.83333104       0.00000000 </v>
   <v>       0.16666893       0.33333107       0.50000000 </v>
   <v>       0.16666893       0.50000000       0.33333107 </v>
   <v>       0.16666893       0.66666896       0.50000000 </v>
   <v>       0.16666893       0.00000000       0.83333104 </v>
   <v>       0.16666893       0.50000000       0.66666896 </v>
   <v>       0.16666893       0.33333107       0.16666893 </v>
   <v>       0.16666893       0.66666896       0.16666893 </v>
   <v>       0.16666893       0.16666893       0.33333107 </v>
   <v>       0.16666893       0.83333104       0.33333107 </v>
   <v>       0.16666893       0.16666893       0.66666896 </v>
   <v>       0.16666893       0.33333107       0.83333104 </v>
   <v>       0.16666893       0.66666896       0.83333104 </v>
   <v>       0.16666893       0.83333104       0.66666896 </v>
   <v>       0.16666894       0.50000000       0.00000000 </v>
   <v>       0.16666894       0.00000000       0.50000000 </v>
   <v>       0.33333106       0.00000000       0.00000000 </v>
   <v>       0.33333107       0.16666893       0.16666893 </v>
   <v>       0.33333107       0.83333104       0.16666893 </v>
   <v>       0.33333107       0.33333107       0.33333107 </v>
   <v>       0.33333107       0.66666896       0.33333107 </v>
   <v>       0.33333107       0.16666893       0.83333104 </v>
   <v>       0.33333107       0.33333107       0.66666896 </v>
   <v>       0.33333107       0.66666896       0.66666896 </v>
   <v>       0.33333107       0.83333104       0.83333104 </v>
   <v>       0.33333107       0.33333107       0.00000000 </v>
   <v>       0.33333107       0.50000000       0.16666893 </v>
   <v>       0.33333107       0.66666896       0.00000000 </v>
   <v>       0.33333107       0.00000000       0.33333107 </v>
   <v>       0.33333107       0.16666893       0.50000000 </v>
   <v>       0.33333107       0.83333104       0.50000000 </v>
   <v>       0.33333107       0.00000000       0.66666896 </v>
   <v>       0.33333107       0.50000000       0.83333104 </v>
   <v>       0.50000000       0.00000000       0.16666894 </v>
   <v>       0.50000000       0.16666894       0.00000000 </v>
   <v>       0.50000000       0.33333107       0.16666893 </v>
   <v>       0.50000000       0.50000000       0.00000000 </v>
   <v>       0.50000000       0.66666896       0.16666893 </v>
   <v>       0.50000000       0.83333103       0.00000000 </v>
   <v>       0.50000000       0.00000000       0.50000000 </v>
   <v>       0.50000000       0.16666893       0.33333107 </v>
   <v>       0.50000000       0.33333106       0.50000000 </v>
   <v>       0.50000000       0.50000000       0.33333106 </v>
   <v>       0.50000000       0.66666897       0.50000000 </v>
   <v>       0.50000000       0.83333104       0.33333107 </v>
   <v>       0.50000000       0.00000000       0.83333103 </v>
   <v>       0.50000000       0.16666893       0.66666896 </v>
   <v>       0.50000000       0.33333107       0.83333104 </v>
   <v>       0.50000000       0.66666896       0.83333104 </v>
   <v>       0.50000000       0.83333104       0.66666896 </v>
   <v>       0.66666896       0.33333107       0.00000000 </v>
   <v>       0.66666896       0.50000000       0.16666893 </v>
   <v>       0.66666896       0.66666896       0.00000000 </v>
   <v>       0.66666896       0.00000000       0.33333107 </v>
   <v>       0.66666896       0.16666893       0.50000000 </v>
   <v>       0.66666896       0.83333104       0.50000000 </v>
   <v>       0.66666896       0.00000000       0.66666896 </v>
   <v>       0.66666896       0.50000000       0.83333104 </v>
   <v>       0.66666896       0.16666893       0.16666893 </v>
   <v>       0.66666896       0.83333104       0.16666893 </v>
   <v>       0.66666896       0.33333107       0.33333107 </v>
   <v>       0.66666896       0.66666896       0.33333107 </v>
   <v>       0.66666896       0.16666893       0.83333104 </v>
   <v>       0.66666896       0.33333107       0.66666896 </v>
   <v>       0.66666896       0.66666896       0.66666896 </v>
   <v>       0.66666896       0.83333104       0.83333104 </v>
   <v>       0.66666897       0.00000000       0.00000000 </v>
   <v>       0.66666897       0.50000000       0.50000000 </v>
   <v>       0.83333103       0.50000000       0.00000000 </v>
   <v>       0.83333103       0.00000000       0.50000000 </v>
   <v>       0.83333104       0.33333107       0.16666893 </v>
   <v>       0.83333104       0.66666896       0.16666893 </v>
   <v>       0.83333104       0.16666893       0.33333107 </v>
   <v>       0.83333104       0.83333104       0.33333107 </v>
   <v>       0.83333104       0.16666893       0.66666896 </v>
   <v>       0.83333104       0.33333107       0.83333104 </v>
   <v>       0.83333104       0.66666896       0.83333104 </v>
   <v>       0.83333104       0.83333104       0.66666896 </v>
   <v>       0.83333104       0.00000000       0.16666893 </v>
   <v>       0.83333104       0.16666893       0.00000000 </v>
   <v>       0.83333104       0.83333104       0.00000000 </v>
   <v>       0.83333104       0.33333107       0.50000000 </v>
   <v>       0.83333104       0.50000000       0.33333107 </v>
   <v>       0.83333104       0.66666896       0.50000000 </v>
   <v>       0.83333104       0.00000000       0.83333104 </v>
   <v>       0.83333104       0.50000000       0.66666896 </v>
   <v>       0.33333106       0.50000000       0.50000000 </v>
  </varray>
 </structure>
 <calculation>
  <scstep>
   <time name="dav">  502.85  503.02</time>
   <time name="total">  503.48  503.66</time>
   <energy>
    <i name="alphaZ">   7085.54738553 </i>
    <i name="ewald"> -64800.19282450 </i>
    <i name="hartreedc"> -11413.85045979 </i>
    <i name="XCdc">    411.85586560 </i>
    <i name="pawpsdc">  50869.49801454 </i>
    <i name="pawaedc"> -51640.13888436 </i>
    <i name="eentropy">     -0.00214350 </i>
    <i name="bandstr">  13766.41654528 </i>
    <i name="atom">  63236.02203821 </i>
    <i name="e_fr_energy">   7515.15553701 </i>
    <i name="e_wo_entrp">   7515.15768051 </i>
    <i name="e_0_energy">   7515.15625151 </i>
   </energy>
  </scstep>
  <scstep>
   <time name="dav">  467.31  467.42</time>
   <time name="total">  467.36  467.47</time>
   <energy>
    <i name="e_fr_energy">     -9.57527418 </i>
    <i name="e_wo_entrp">     -9.57939540 </i>
    <i name="e_0_energy">     -9.57664792 </i>
   </energy>
  </scstep>
  <scstep>
   <time name="dav">  429.38  429.50</time>
   <time name="total">  429.43  429.55</time>
   <energy>
    <i name="e_fr_energy">   -832.34725419 </i>
    <i name="e_wo_entrp">   -832.35972258 </i>
    <i name="e_0_energy">   -832.35141032 </i>
   </energy>
  </scstep>
  <scstep>
   <time name="dav">  678.29  678.48</time>
   <time name="total">  678.33  678.53</time>
   <energy>
    <i name="e_fr_energy">  -1007.33560187 </i>
    <i name="e_wo_entrp">  -1007.33232056 </i>
    <i name="e_0_energy">  -1007.33450810 </i>
   </energy>
  </scstep>
  <scstep>
   <time name="dav">  611.95  612.11</time>
   <time name="total">  628.00  628.16</time>
   <energy>
    <i name="e_fr_energy">  -1022.26752560 </i>
    <i name="e_wo_entrp">  -1022.24765858 </i>
    <i name="e_0_energy">  -1022.26090326 </i>
   </energy>
  </scstep>
  <scstep>
   <time name="diag">   42.16   42.17</time>
   <time name="diis">  268.46  268.93</time>
   <time name="orth">    8.48    8.50</time>
   <time name="total">  333.90  334.40</time>
   <energy>
    <i name="e_fr_energy">   -877.30268856 </i>
    <i name="e_wo_entrp">   -877.32348138 </i>
    <i name="e_0_energy">   -877.30961950 </i>
   </energy>
  </scstep>
  <scstep>
   <time name="diag">   44.02   44.05</time>
   <time name="diis">  351.34  351.51</time>
   <time name="orth">    8.75    8.79</time>
   <time name="total">  419.07  419.32</time>
   <energy>
    <i name="e_fr_energy">  -1143.85764449 </i>
    <i name="e_wo_entrp">  -1143.78484085 </i>
    <i name="e_0_energy">  -1143.83337661 </i>
   </energy>
  </scstep>
  <scstep>
   <time name="diag">   44.66   44.69</time>
   <time name="diis">  282.21  282.38</time>
   <time name="orth">    9.11    9.11</time>
   <time name="total">  350.54  350.77</time>
   <energy>
    <i name="e_fr_energy">   -878.09643911 </i>
    <i name="e_wo_entrp">   -878.03688989 </i>
    <i name="e_0_energy">   -878.07658937 </i>
   </energy>
  </scstep>
  <scstep>
   <time name="diag">   40.61   40.62</time>
   <time name="diis">  286.22  286.42</time>
   <time name="orth">    8.68    8.68</time>
   <time name="total">  350.40  350.63</time>
   <energy>
    <i name="e_fr_energy">   -862.25237214 </i>
    <i name="e_wo_entrp">   -862.21548284 </i>
    <i name="e_0_energy">   -862.24007571 </i>
   </energy>
  </scstep>
  <scstep>
   <time name="diag">   43.49   43.53</time>
   <time name="diis">  391.77  392.07</time>
   <time name="orth">    9.09    9.09</time>
   <time name="total">  459.79  460.14</time>
   <energy>
    <i name="e_fr_energy">   -865.55560242 </i>
    <i name="e_wo_entrp">   -865.55078819 </i>
    <i name="e_0_energy">   -865.55399768 </i>
   </energy>
  </scstep>
  <scstep>
   <time name="diag">   45.17   45.22</time>
   <time name="diis">  327.19  327.33</time>
   <time name="orth">    8.64    8.64</time>
   <time name="total">  396.06  396.24</time>
   <energy>
    <i name="e_fr_energy">   -863.96068790 </i>
    <i name="e_wo_entrp">   -863.94572669 </i>
    <i name="e_0_energy">   -863.95570083 </i>
   </energy>
  </scstep>
  <scstep>
   <time name="diag">   42.35   42.38</time>
   <time name="diis">  405.72  406.00</time>
   <time name="orth">    8.60    8.61</time>
   <time name="total">  471.16  471.50</time>
   <energy>
    <i name="e_fr_energy">   -863.55722343 </i>
    <i name="e_wo_entrp">   -863.53318247 </i>
    <i name="e_0_energy">   -863.54920978 </i>
   </energy>
  </scstep>
  <scstep>
   <time name="diag">   41.73   41.73</time>
   <time name="diis">  333.77  333.91</time>
   <time name="orth">    8.03    8.03</time>
   <time name="total">  397.21  397.36</time>
   <energy>
    <i name="e_fr_energy">   -862.81667256 </i>
    <i name="e_wo_entrp">   -862.79123628 </i>
    <i name="e_0_energy">   -862.80819380 </i>
   </energy>
  </scstep>
  <scstep>
   <time name="diag">   47.38   47.43</time>
   <time name="diis">  398.36  398.60</time>
   <time name="orth">    9.05    9.05</time>
   <time name="total">  471.58  471.88</time>
   <energy>
    <i name="e_fr_energy">   -862.43338793 </i>
    <i name="e_wo_entrp">   -862.40271546 </i>
    <i name="e_0_energy">   -862.42316377 </i>
   </energy>
  </scstep>
  <scstep>
   <time name="diag">   53.51   53.55</time>
   <time name="diis">  525.09  525.52</time>
   <time name="orth">    9.88    9.88</time>
   <time name="total">  607.01  607.48</time>
   <energy>
    <i name="e_fr_energy">   -862.46457280 </i>
    <i name="e_wo_entrp">   -862.43371469 </i>
    <i name="e_0_energy">   -862.45428677 </i>
   </energy>
  </scstep>
  <scstep>
   <time name="diag">   58.72   58.79</time>
   <time name="diis">  365.52  365.73</time>
   <time name="orth">    9.82    9.82</time>
   <time name="total">  453.51  453.81</time>
   <energy>
    <i name="e_fr_energy">   -862.23108902 </i>
    <i name="e_wo_entrp">   -862.19972960 </i>
    <i name="e_0_energy">   -862.22063588 </i>
   </energy>
  </scstep>
  <scstep>
   <time name="diag">   60.25   60.28</time>
   <time name="diis">  401.67  401.86</time>
   <time name="orth">    9.76    9.77</time>
   <time name="total">  491.39  491.64</time>
   <energy>
    <i name="e_fr_energy">   -862.18029191 </i>
    <i name="e_wo_entrp">   -862.14897330 </i>
    <i name="e_0_energy">   -862.16985237 </i>
   </energy>
  </scstep>
  <scstep>
   <time name="diag">   63.10   63.13</time>
   <time name="diis">  397.65  397.83</time>
   <time name="orth">    9.85    9.85</time>
   <time name="total">  492.13  492.35</time>
   <energy>
    <i name="e_fr_energy">   -862.09135724 </i>
    <i name="e_wo_entrp">   -862.06058307 </i>
    <i name="e_0_energy">   -862.08109919 </i>
   </energy>
  </scstep>
  <scstep>
   <time name="diag">   63.31   63.32</time>
   <time name="diis">  556.25  556.45</time>
   <time name="orth">    8.19    8.20</time>
   <time name="total">  644.37  644.60</time>
   <energy>
    <i name="e_fr_energy">   -862.08516936 </i>
    <i name="e_wo_entrp">   -862.05474232 </i>
    <i name="e_0_energy">   -862.07502702 </i>
   </energy>
  </scstep>
  <scstep>
   <time name="diag">   53.69   53.71</time>
   <time name="diis">  521.74  521.97</time>
   <time name="orth">    9.44    9.45</time>
   <time name="total">  603.91  604.18</time>
   <energy>
    <i name="e_fr_energy">   -862.08689042 </i>
    <i name="e_wo_entrp">   -862.05719000 </i>
    <i name="e_0_energy">   -862.07699028 </i>
   </energy>
  </scstep>
  <scstep>
   <time name="diag">   58.27   58.29</time>
   <time name="diis">  468.75  469.03</time>
   <time name="orth">    8.89    8.89</time>
   <time name="total">  555.75  556.07</time>
   <energy>
    <i name="e_fr_energy">   -862.08408301 </i>
    <i name="e_wo_entrp">   -862.05485710 </i>
    <i name="e_0_energy">   -862.07434104 </i>
   </energy>
  </scstep>
  <scstep>
   <time name="diag">   72.33   72.36</time>
   <time name="diis">  540.76  541.02</time>
   <time name="orth">   10.39   10.39</time>
   <time name="total">  645.90  646.19</time>
   <energy>
    <i name="e_fr_energy">   -862.08547029 </i>
    <i name="e_wo_entrp">   -862.05608923 </i>
    <i name="e_0_energy">   -862.07567660 </i>
   </energy>
  </scstep>
  <scstep>
   <time name="diag">   66.03   66.04</time>
   <time name="diis">  406.95  407.02</time>
   <time name="orth">    9.25    9.26</time>
   <time name="total">  502.00  502.12</time>
   <energy>
    <i name="e_fr_energy">   -862.08029736 </i>
    <i name="e_wo_entrp">   -862.05108817 </i>
    <i name="e_0_energy">   -862.07056096 </i>
   </energy>
  </scstep>
  <scstep>
   <time name="diag">   63.13   63.16</time>
   <time name="diis">  467.99  468.06</time>
   <time name="orth">    9.21    9.21</time>
   <time name="total">  559.18  559.27</time>
   <energy>
    <i name="e_fr_energy">   -862.07915842 </i>
    <i name="e_wo_entrp">   -862.04999657 </i>
    <i name="e_0_energy">   -862.06943780 </i>
   </energy>
  </scstep>
  <scstep>
   <time name="diag">   62.66   62.66</time>
   <time name="diis">  570.06  570.18</time>
   <time name="orth">   10.44   10.45</time>
   <time name="total">  669.77  669.92</time>
   <energy>
    <i name="e_fr_energy">   -862.07919862 </i>
    <i name="e_wo_entrp">   -862.05029658 </i>
    <i name="e_0_energy">   -862.06956460 </i>
   </energy>
  </scstep>
  <scstep>
   <time name="diag">   65.02   65.02</time>
   <time name="diis">  483.35  483.50</time>
   <time name="orth">    9.52    9.52</time>
   <time name="total">  577.62  577.78</time>
   <energy>
    <i name="e_fr_energy">   -862.07896492 </i>
    <i name="e_wo_entrp">   -862.05007151 </i>
    <i name="e_0_energy">   -862.06933378 </i>
   </energy>
  </scstep>
  <scstep>
   <time name="diag">   69.62   69.64</time>
   <time name="diis">  581.58  581.71</time>
   <time name="orth">    9.27    9.28</time>
   <time name="total">  680.00  680.16</time>
   <energy>
    <i name="e_fr_energy">   -862.07895767 </i>
    <i name="e_wo_entrp">   -862.05013461 </i>
    <i name="e_0_energy">   -862.06934998 </i>
   </energy>
  </scstep>
  <scstep>
   <time name="diag">   59.81   59.81</time>
   <time name="diis">  477.32  477.42</time>
   <time name="orth">    9.20    9.21</time>
   <time name="total">  564.77  564.87</time>
   <energy>
    <i name="e_fr_energy">   -862.07892775 </i>
    <i name="e_wo_entrp">   -862.05026093 </i>
    <i name="e_0_energy">   -862.06937215 </i>
   </energy>
  </scstep>
  <scstep>
   <time name="diag">   64.51   64.52</time>
   <time name="diis">  466.38  466.47</time>
   <time name="orth">    9.64    9.64</time>
   <time name="total">  558.85  558.96</time>
   <energy>
    <i name="e_fr_energy">   -862.07889807 </i>
    <i name="e_wo_entrp">   -862.05027983 </i>
    <i name="e_0_energy">   -862.06935865 </i>
   </energy>
  </scstep>
  <scstep>
   <time name="diag">   59.54   59.55</time>
   <time name="diis">  579.16  579.31</time>
   <time name="orth">    9.32    9.32</time>
   <time name="total">  666.02  666.17</time>
   <energy>
    <i name="e_fr_energy">   -862.07889325 </i>
    <i name="e_wo_entrp">   -862.05035074 </i>
    <i name="e_0_energy">   -862.06937908 </i>
   </energy>
  </scstep>
  <scstep>
   <time name="diag">   64.58   64.60</time>
   <time name="diis">  427.86  428.11</time>
   <time name="orth">    9.75    9.76</time>
   <time name="total">  522.05  522.33</time>
   <energy>
    <i name="e_fr_energy">   -862.07887401 </i>
    <i name="e_wo_entrp">   -862.05041247 </i>
    <i name="e_0_energy">   -862.06938683 </i>
   </energy>
  </scstep>
  <scstep>
   <time name="diag">   63.35   63.36</time>
   <time name="diis">  319.93  320.07</time>
   <time name="orth">    9.97    9.97</time>
   <time name="total">  415.58  415.76</time>
   <energy>
    <i name="e_fr_energy">   -862.07886814 </i>
    <i name="e_wo_entrp">   -862.05047353 </i>
    <i name="e_0_energy">   -862.06940327 </i>
   </energy>
  </scstep>
  <scstep>
   <time name="diag">   71.97   71.99</time>
   <time name="diis">  290.20  290.24</time>
   <time name="orth">    9.46    9.46</time>
   <time name="total">  391.61  391.68</time>
   <energy>
    <i name="e_fr_energy">   -862.07886192 </i>
    <i name="e_wo_entrp">   -862.05053139 </i>
    <i name="e_0_energy">   -862.06941841 </i>
   </energy>
  </scstep>
  <scstep>
   <time name="diag">   56.74   56.75</time>
   <time name="diis">  321.72  321.76</time>
   <time name="orth">    9.45    9.45</time>
   <time name="total">  408.23  408.29</time>
   <energy>
    <i name="e_fr_energy">   -862.07885719 </i>
    <i name="e_wo_entrp">   -862.05057674 </i>
    <i name="e_0_energy">   -862.06943038 </i>
   </energy>
  </scstep>
  <scstep>
   <time name="diag">   63.65   63.65</time>
   <time name="diis">  253.19  253.31</time>
   <time name="orth">    9.92    9.92</time>
   <time name="total">  349.17  349.32</time>
   <energy>
    <i name="e_fr_energy">   -862.07885400 </i>
    <i name="e_wo_entrp">   -862.05061850 </i>
    <i name="e_0_energy">   -862.06944217 </i>
   </energy>
  </scstep>
  <scstep>
   <time name="diag">   83.18   83.23</time>
   <time name="diis">  272.49  272.53</time>
   <time name="orth">    9.65    9.65</time>
   <time name="total">  384.65  384.74</time>
   <energy>
    <i name="e_fr_energy">   -862.07885067 </i>
    <i name="e_wo_entrp">   -862.05065558 </i>
    <i name="e_0_energy">   -862.06945231 </i>
   </energy>
  </scstep>
  <scstep>
   <time name="diag">   68.92   68.95</time>
   <time name="diis">  282.81  282.90</time>
   <time name="orth">    9.27    9.27</time>
   <time name="total">  380.29  380.42</time>
   <energy>
    <i name="e_fr_energy">   -862.07884819 </i>
    <i name="e_wo_entrp">   -862.05068930 </i>
    <i name="e_0_energy">   -862.06946190 </i>
   </energy>
  </scstep>
  <scstep>
   <time name="diag">   66.36   66.38</time>
   <time name="diis">  251.09  251.15</time>
   <time name="orth">    9.11    9.11</time>
   <time name="total">  351.38  351.47</time>
   <energy>
    <i name="e_fr_energy">   -862.07884567 </i>
    <i name="e_wo_entrp">   -862.05072296 </i>
    <i name="e_0_energy">   -862.06947143 </i>
   </energy>
  </scstep>
  <scstep>
   <time name="diag">   71.53   71.54</time>
   <time name="diis">  281.04  281.07</time>
   <time name="orth">    9.44    9.44</time>
   <time name="total">  384.78  384.84</time>
   <energy>
    <i name="e_fr_energy">   -862.07884360 </i>
    <i name="e_wo_entrp">   -862.05075118 </i>
    <i name="e_0_energy">   -862.06947946 </i>
   </energy>
  </scstep>
  <scstep>
   <time name="diag">   64.17   64.17</time>
   <time name="diis">  235.75  235.81</time>
   <time name="orth">   11.01   11.02</time>
   <time name="total">  344.13  344.21</time>
   <energy>
    <i name="e_fr_energy">   -862.07884178 </i>
    <i name="e_wo_entrp">   -862.05077682 </i>
    <i name="e_0_energy">   -862.06948679 </i>
   </energy>
  </scstep>
  <scstep>
   <time name="diag">   78.42   78.44</time>
   <time name="diis">  233.27  233.32</time>
   <time name="orth">    9.92    9.92</time>
   <time name="total">  347.08  347.14</time>
   <energy>
    <i name="e_fr_energy">   -862.07884019 </i>
    <i name="e_wo_entrp">   -862.05079950 </i>
    <i name="e_0_energy">   -862.06949329 </i>
   </energy>
  </scstep>
  <scstep>
   <time name="diag">   70.50   70.51</time>
   <time name="diis">  222.18  222.24</time>
   <time name="orth">   10.21   10.21</time>
   <time name="total">  324.54  324.62</time>
   <energy>
    <i name="e_fr_energy">   -862.07883860 </i>
    <i name="e_wo_entrp">   -862.05082149 </i>
    <i name="e_0_energy">   -862.06949956 </i>
   </energy>
  </scstep>
  <scstep>
   <time name="diag">   77.07   77.10</time>
   <time name="diis">  244.08  244.11</time>
   <time name="orth">    9.45    9.45</time>
   <time name="total">  352.76  352.83</time>
   <energy>
    <i name="e_fr_energy">   -862.07883722 </i>
    <i name="e_wo_entrp">   -862.05084072 </i>
    <i name="e_0_energy">   -862.06950505 </i>
   </energy>
  </scstep>
  <scstep>
   <time name="diag">   64.11   64.13</time>
   <time name="diis">  198.51  198.56</time>
   <time name="orth">   11.09   11.09</time>
   <time name="total">  306.47  306.57</time>
   <energy>
    <i name="e_fr_energy">   -862.07883588 </i>
    <i name="e_wo_entrp">   -862.05085898 </i>
    <i name="e_0_energy">   -862.06951024 </i>
   </energy>
  </scstep>
  <scstep>
   <time name="diag">   83.21   83.25</time>
   <time name="diis">  225.62  225.68</time>
   <time name="orth">    9.25    9.25</time>
   <time name="total">  337.61  337.72</time>
   <energy>
    <i name="e_fr_energy">   -862.07883466 </i>
    <i name="e_wo_entrp">   -862.05087550 </i>
    <i name="e_0_energy">   -862.06951494 </i>
   </energy>
  </scstep>
  <scstep>
   <time name="diag">   66.75   66.76</time>
   <time name="diis">  225.17  225.22</time>
   <time name="orth">    9.99    9.99</time>
   <time name="total">  327.53  327.59</time>
   <energy>
    <i name="e_fr_energy">   -862.07883354 </i>
    <i name="e_wo_entrp">   -862.05089082 </i>
    <i name="e_0_energy">   -862.06951930 </i>
   </energy>
  </scstep>
  <scstep>
   <time name="diag">   65.42   65.43</time>
   <time name="diis">  203.15  203.21</time>
   <time name="orth">   10.02   10.02</time>
   <time name="total">  279.28  279.36</time>
   <energy>
    <i name="alphaZ">   7085.54738553 </i>
    <i name="ewald"> -64800.19282450 </i>
    <i name="hartreedc">  -9630.77015507 </i>
    <i name="XCdc">    328.69215156 </i>
    <i name="pawpsdc">  57134.60029086 </i>
    <i name="pawaedc"> -58015.08142821 </i>
    <i name="eentropy">     -0.02792813 </i>
    <i name="bandstr">   3799.13163721 </i>
    <i name="atom">  63236.02203821 </i>
    <i name="e_fr_energy">   -862.07883255 </i>
    <i name="e_wo_entrp">   -862.05090442 </i>
    <i name="e_0_energy">   -862.06952317 </i>
   </energy>
  </scstep>
  <structure>
   <crystal>
    <varray name="basis" >
     <v>      10.33484705       0.00000000       0.00000000 </v>
     <v>       0.00000000      10.33484705       0.00000000 </v>
     <v>       0.00000000       0.00000000      10.33484705 </v>
    </varray>
    <i name="volume">   1103.85533447 </i>
    <varray name="rec_basis" >
     <v>       0.09676002       0.00000000       0.00000000 </v>
     <v>       0.00000000       0.09676002       0.00000000 </v>
     <v>       0.00000000       0.00000000       0.09676002 </v>
    </varray>
   </crystal>
   <varray name="positions" >
    <v>       0.00000000       0.00000000       0.00000000 </v>
    <v>       0.00000000       0.16666893       0.16666893 </v>
    <v>       0.00000000       0.33333106       0.00000000 </v>
    <v>       0.00000000       0.50000000       0.16666894 </v>
    <v>       0.00000000       0.66666897       0.00000000 </v>
    <v>       0.00000000       0.83333104       0.16666893 </v>
    <v>       0.00000000       0.00000000       0.33333106 </v>
    <v>       0.00000000       0.16666894       0.50000000 </v>
    <v>       0.00000000       0.33333107       0.33333107 </v>
    <v>       0.00000000       0.50000000       0.50000000 </v>
    <v>       0.00000000       0.66666896       0.33333107 </v>
    <v>       0.00000000       0.83333103       0.50000000 </v>
    <v>       0.00000000       0.00000000       0.66666897 </v>
    <v>       0.00000000       0.16666893       0.83333104 </v>
    <v>       0.00000000       0.33333107       0.66666896 </v>
    <v>       0.00000000       0.50000000       0.83333103 </v>
    <v>       0.00000000       0.66666896       0.66666896 </v>
    <v>       0.00000000       0.83333104       0.83333104 </v>
    <v>       0.16666893       0.00000000       0.16666893 </v>
    <v>       0.16666893       0.16666893       0.00000000 </v>
    <v>       0.16666893       0.83333104       0.00000000 </v>
    <v>       0.16666893       0.33333107       0.50000000 </v>
    <v>       0.16666893       0.50000000       0.33333107 </v>
    <v>       0.16666893       0.66666896       0.50000000 </v>
    <v>       0.16666893       0.00000000       0.83333104 </v>
    <v>       0.16666893       0.50000000       0.66666896 </v>
    <v>       0.16666893       0.33333107       0.16666893 </v>
    <v>       0.16666893       0.66666896       0.16666893 </v>
    <v>       0.16666893       0.16666893       0.33333107 </v>
    <v>       0.16666893       0.83333104       0.33333107 </v>
    <v>       0.16666893       0.16666893       0.66666896 </v>
    <v>       0.16666893       0.33333107       0.83333104 </v>
    <v>       0.16666893       0.66666896       0.83333104 </v>
    <v>       0.16666893       0.83333104       0.66666896 </v>
    <v>       0.16666894       0.50000000       0.00000000 </v>
    <v>       0.16666894       0.00000000       0.50000000 </v>
    <v>       0.33333106       0.00000000       0.00000000 </v>
    <v>       0.33333107       0.16666893       0.16666893 </v>
    <v>       0.33333107       0.83333104       0.16666893 </v>
    <v>       0.33333107       0.33333107       0.33333107 </v>
    <v>       0.33333107       0.66666896       0.33333107 </v>
    <v>       0.33333107       0.16666893       0.83333104 </v>
    <v>       0.33333107       0.33333107       0.66666896 </v>
    <v>       0.33333107       0.66666896       0.66666896 </v>
    <v>       0.33333107       0.83333104       0.83333104 </v>
    <v>       0.33333107       0.33333107       0.00000000 </v>
    <v>       0.33333107       0.50000000       0.16666893 </v>
    <v>       0.33333107       0.66666896       0.00000000 </v>
    <v>       0.33333107       0.00000000       0.33333107 </v>
    <v>       0.33333107       0.16666893       0.50000000 </v>
    <v>       0.33333107       0.83333104       0.50000000 </v>
    <v>       0.33333107       0.00000000       0.66666896 </v>
    <v>       0.33333107       0.50000000       0.83333104 </v>
    <v>       0.50000000       0.00000000       0.16666894 </v>
    <v>       0.50000000       0.16666894       0.00000000 </v>
    <v>       0.50000000       0.33333107       0.16666893 </v>
    <v>       0.50000000       0.50000000       0.00000000 </v>
    <v>       0.50000000       0.66666896       0.16666893 </v>
    <v>       0.50000000       0.83333103       0.00000000 </v>
    <v>       0.50000000       0.00000000       0.50000000 </v>
    <v>       0.50000000       0.16666893       0.33333107 </v>
    <v>       0.50000000       0.33333106       0.50000000 </v>
    <v>       0.50000000       0.50000000       0.33333106 </v>
    <v>       0.50000000       0.66666897       0.50000000 </v>
    <v>       0.50000000       0.83333104       0.33333107 </v>
    <v>       0.50000000       0.00000000       0.83333103 </v>
    <v>       0.50000000       0.16666893       0.66666896 </v>
    <v>       0.50000000       0.33333107       0.83333104 </v>
    <v>       0.50000000       0.66666896       0.83333104 </v>
    <v>       0.50000000       0.83333104       0.66666896 </v>
    <v>       0.66666896       0.33333107       0.00000000 </v>
    <v>       0.66666896       0.50000000       0.16666893 </v>
    <v>       0.66666896       0.66666896       0.00000000 </v>
    <v>       0.66666896       0.00000000       0.33333107 </v>
    <v>       0.66666896       0.16666893       0.50000000 </v>
    <v>       0.66666896       0.83333104       0.50000000 </v>
    <v>       0.66666896       0.00000000       0.66666896 </v>
    <v>       0.66666896       0.50000000       0.83333104 </v>
    <v>       0.66666896       0.16666893       0.16666893 </v>
    <v>       0.66666896       0.83333104       0.16666893 </v>
    <v>       0.66666896       0.33333107       0.33333107 </v>
    <v>       0.66666896       0.66666896       0.33333107 </v>
    <v>       0.66666896       0.16666893       0.83333104 </v>
    <v>       0.66666896       0.33333107       0.66666896 </v>
    <v>       0.66666896       0.66666896       0.66666896 </v>
    <v>       0.66666896       0.83333104       0.83333104 </v>
    <v>       0.66666897       0.00000000       0.00000000 </v>
    <v>       0.66666897       0.50000000       0.50000000 </v>
    <v>       0.83333103       0.50000000       0.00000000 </v>
    <v>       0.83333103       0.00000000       0.50000000 </v>
    <v>       0.83333104       0.33333107       0.16666893 </v>
    <v>       0.83333104       0.66666896       0.16666893 </v>
    <v>       0.83333104       0.16666893       0.33333107 </v>
    <v>       0.83333104       0.83333104       0.33333107 </v>
    <v>       0.83333104       0.16666893       0.66666896 </v>
    <v>       0.83333104       0.33333107       0.83333104 </v>
    <v>       0.83333104       0.66666896       0.83333104 </v>
    <v>       0.83333104       0.83333104       0.66666896 </v>
    <v>       0.83333104       0.00000000       0.16666893 </v>
    <v>       0.83333104       0.16666893       0.00000000 </v>
    <v>       0.83333104       0.83333104       0.00000000 </v>
    <v>       0.83333104       0.33333107       0.50000000 </v>
    <v>       0.83333104       0.50000000       0.33333107 </v>
    <v>       0.83333104       0.66666896       0.50000000 </v>
    <v>       0.83333104       0.00000000       0.83333104 </v>
    <v>       0.83333104       0.50000000       0.66666896 </v>
    <v>       0.33333106       0.50000000       0.50000000 </v>
   </varray>
  </structure>
  <varray name="forces" >
   <v>      -0.06402399      -0.00000130       0.06262392 </v>
   <v>       0.00390721      -0.04797724       0.00350689 </v>
   <v>      -0.01257817       0.02009571      -0.00590177 </v>
   <v>       0.18946452      -0.00000062       0.18905632 </v>
   <v>      -0.01257695      -0.02009702      -0.00590088 </v>
   <v>       0.00390898       0.04797955       0.00350630 </v>
   <v>      -0.01080011      -0.00000314      -0.03517623 </v>
   <v>       0.15529028       0.15661131       0.01078125 </v>
   <v>       0.01615363      -0.01743465      -0.03611626 </v>
   <v>      -0.02649296       0.00000159      -0.00546591 </v>
   <v>       0.01615470       0.01743419      -0.03611591 </v>
   <v>       0.15528824      -0.15660933       0.01078151 </v>
   <v>       0.03999161      -0.00000247      -0.02046295 </v>
   <v>       0.00195937       0.01737172      -0.00786843 </v>
   <v>       0.03213659      -0.01673933       0.01487819 </v>
   <v>       0.22338569      -0.00000031      -0.19664462 </v>
   <v>       0.03213708       0.01673805       0.01487735 </v>
   <v>       0.00196096      -0.01736964      -0.00786917 </v>
   <v>      -0.03599397      -0.00000161      -0.01119697 </v>
   <v>      -0.01226930      -0.03079560       0.02857784 </v>
   <v>      -0.01226964       0.03079640       0.02857918 </v>
   <v>      -1.43741698      -1.43609470       0.00631918 </v>
   <v>      -1.37083245       0.00000012      -1.36999563 </v>
   <v>      -1.43741653       1.43609184       0.00631826 </v>
   <v>       0.03212663      -0.00000098      -0.00692684 </v>
   <v>      -1.23569505      -0.00000009       1.48155024 </v>
   <v>      -0.03694050      -0.01744000       0.01574801 </v>
   <v>      -0.03694057       0.01743984       0.01574744 </v>
   <v>      -0.04367345       0.01549766      -0.04285113 </v>
   <v>      -0.04367229      -0.01549733      -0.04285167 </v>
   <v>       0.15608686       0.19944003       0.03481715 </v>
   <v>      -0.01933051      -0.04786463      -0.00909604 </v>
   <v>      -0.01933149       0.04786337      -0.00909443 </v>
   <v>       0.15608421      -0.19943687       0.03481738 </v>
   <v>       0.18070806       0.00000116      -0.22302780 </v>
   <v>      -0.00531690       0.00000016      -0.00589568 </v>
   <v>       0.00123337      -0.00000115       0.00268676 </v>
   <v>       0.01119206       0.15663111       0.15487985 </v>
   <v>       0.01119105      -0.15662988       0.15487867 </v>
   <v>       0.00679323      -1.43595141      -1.43647136 </v>
   <v>       0.00678955       1.43595062      -1.43647168 </v>
   <v>      -0.01214626       0.18578606      -0.15560784 </v>
   <v>       0.06418840      -1.33334086       1.35319165 </v>
   <v>       0.06418072       1.33333944       1.35319312 </v>
   <v>      -0.01214903      -0.18578125      -0.15560627 </v>
   <v>      -0.01296977      -0.01647171      -0.02926912 </v>
   <v>      -0.00504184       0.00000124      -0.02689345 </v>
   <v>      -0.01297239       0.01647084      -0.02926664 </v>
   <v>      -0.00550335      -0.00000055      -0.00449246 </v>
   <v>      -0.01531393      -0.05963632      -0.01569416 </v>
   <v>      -0.01531537       0.05963848      -0.01569722 </v>
   <v>       0.00493913      -0.00000027       0.01688698 </v>
   <v>       0.07543486      -0.00000216       0.14011676 </v>
   <v>      -0.02005298      -0.00000096       0.03960152 </v>
   <v>      -0.01308906       0.20318759      -0.22179125 </v>
   <v>       0.01528360      -0.01674796       0.03174924 </v>
   <v>      -0.00701631      -0.00000381      -0.24318731 </v>
   <v>       0.01528280       0.01674651       0.03175206 </v>
   <v>      -0.01309039      -0.20318341      -0.22178707 </v>
   <v>       0.01732238       0.00000034       0.00451113 </v>
   <v>       0.03522553       0.19943402       0.15691531 </v>
   <v>       1.35354640      -1.33311328       0.06379125 </v>
   <v>       1.48173905       0.00000021      -1.23469686 </v>
   <v>       1.35354656       1.33310987       0.06378549 </v>
   <v>       0.03522478      -0.19943247       0.15691240 </v>
   <v>      -0.00406607       0.00000192      -0.01144094 </v>
   <v>       0.01515368       0.22920651       0.01476352 </v>
   <v>       0.07639941       0.04880462      -0.01146355 </v>
   <v>       0.07639811      -0.04880964      -0.01146006 </v>
   <v>       0.01515407      -0.22919982       0.01476163 </v>
   <v>       0.02209097       0.00187616      -0.00707732 </v>
   <v>      -0.19747862      -0.00000035       0.22296503 </v>
   <v>       0.02209256      -0.00187863      -0.00707484 </v>
   <v>      -0.00773540       0.00000121       0.03291787 </v>
   <v>      -0.15641720       0.18577784      -0.01253823 </v>
   <v>      -0.15641454      -0.18577508      -0.01254030 </v>
   <v>      -0.01225059       0.00000138      -0.00446237 </v>
   <v>      -0.09294617      -0.00000346      -0.09211018 </v>
   <v>      -0.00868190       0.01736269       0.00156313 </v>
   <v>      -0.00868170      -0.01735972       0.00156397 </v>
   <v>      -0.00987785      -0.04786509      -0.01854802 </v>
   <v>      -0.00987679       0.04786257      -0.01854709 </v>
   <v>      -0.00237324       0.01212047      -0.00156565 </v>
   <v>      -0.01209965       0.04862490       0.07600585 </v>
   <v>      -0.01209335      -0.04862635       0.07600398 </v>
   <v>      -0.00236992      -0.01211533      -0.00156715 </v>
   <v>       0.04533096       0.00000081      -0.01506716 </v>
   <v>       0.13930906      -0.00000093       0.07493982 </v>
   <v>      -0.20785858      -0.00000119      -0.20829125 </v>
   <v>       0.00310438      -0.00000172       0.00083321 </v>
   <v>      -0.00549065       0.02010122      -0.01297542 </v>
   <v>      -0.00549029      -0.02010188      -0.01297502 </v>
   <v>       0.02898547      -0.03079287      -0.01145095 </v>
   <v>       0.02898581       0.03079465      -0.01145110 </v>
   <v>      -0.22134057       0.20317943      -0.01349621 </v>
   <v>      -0.00666794       0.00188155       0.02289506 </v>
   <v>      -0.00666399      -0.00188347       0.02289596 </v>
   <v>      -0.22133757      -0.20317578      -0.01349828 </v>
   <v>       0.06303228      -0.00000190      -0.06443135 </v>
   <v>       0.03337728      -0.07545734       0.03296888 </v>
   <v>       0.03337829       0.07546088       0.03297016 </v>
   <v>      -0.02889164      -0.01646932      -0.01335571 </v>
   <v>      -0.22259135      -0.00000037       0.18153561 </v>
   <v>      -0.02888839       0.01646755      -0.01335617 </v>
   <v>      -0.01466204      -0.00000058       0.04614824 </v>
   <v>      -0.24281463      -0.00000067      -0.00745753 </v>
   <v>       1.37164272       0.00000035       1.37052233 </v>
  </varray>
  <varray name="stress" >
   <v>      15.79242506       0.00001071      -1.68922854 </v>
   <v>       0.00001053      17.34021637      -0.00000894 </v>
   <v>      -1.68922852      -0.00000893      15.79147370 </v>
  </varray>
  <energy>
   <i name="e_fr_energy">   -862.07883255 </i>
   <i name="e_wo_entrp">   -862.06952317 </i>
   <i name="e_0_energy">     -0.02792813 </i>
  </energy>
  <time name="totalsc">22791.8622800.46</time>
 </calculation>
 <calculation>
  <scstep>
   <time name="dav">  599.57  599.83</time>
   <time name="total">  616.90  617.17</time>
   <energy>
    <i name="alphaZ">   7085.54738553 </i>
    <i name="ewald"> -64692.93582913 </i>
    <i name="hartreedc">  -9740.75995577 </i>
    <i name="XCdc">    328.99044879 </i>
    <i name="pawpsdc">  57134.59974215 </i>
    <i name="pawaedc"> -58015.08097522 </i>
    <i name="eentropy">     -0.00556378 </i>
    <i name="bandstr">   3800.69816187 </i>
    <i name="atom">  63236.02203821 </i>
    <i name="e_fr_energy">   -862.92454736 </i>
    <i name="e_wo_entrp">   -862.91898358 </i>
    <i name="e_0_energy">   -862.92269277 </i>
   </energy>
  </scstep>
  <scstep>
   <time name="diag">   60.33   60.35</time>
   <time name="diis">  486.64  486.74</time>
   <time name="orth">    9.77    9.77</time>
   <time name="total">  576.89  577.02</time>
   <energy>
    <i name="e_fr_energy">   -903.73510179 </i>
    <i name="e_wo_entrp">   -903.72858423 </i>
    <i name="e_0_energy">   -903.73292927 </i>
   </energy>
  </scstep>
  <scstep>
   <time name="diag">   64.46   64.47</time>
   <time name="diis">  426.13  426.28</time>
   <time name="orth">    8.78    8.79</time>
   <time name="total">  518.01  518.20</time>
   <energy>
    <i name="e_fr_energy">   -865.78385466 </i>
    <i name="e_wo_entrp">   -865.75558031 </i>
    <i name="e_0_energy">   -865.77442988 </i>
   </energy>
  </scstep>
  <scstep>
   <time name="diag">   61.64   61.69</time>
   <time name="diis">  451.84  452.04</time>
   <time name="orth">   10.56   10.56</time>
   <time name="total">  545.10  545.35</time>
   <energy>
    <i name="e_fr_energy">   -863.68986121 </i>
    <i name="e_wo_entrp">   -863.66106995 </i>
    <i name="e_0_energy">   -863.68026412 </i>
   </energy>
  </scstep>
  <scstep>
   <time name="diag">   69.33   69.36</time>
   <time name="diis">  601.03  601.23</time>
   <time name="orth">   11.02   11.03</time>
   <time name="total">  712.87  713.10</time>
   <energy>
    <i name="e_fr_energy">   -863.63218593 </i>
    <i name="e_wo_entrp">   -863.60326099 </i>
    <i name="e_0_energy">   -863.62254429 </i>
   </energy>
  </scstep>
  <scstep>
   <time name="diag">   65.97   65.99</time>
   <time name="diis">  517.37  517.51</time>
   <time name="orth">    9.13    9.13</time>
   <time name="total">  612.74  612.92</time>
   <energy>
    <i name="e_fr_energy">   -863.53271393 </i>
    <i name="e_wo_entrp">   -863.51725356 </i>
    <i name="e_0_energy">   -863.52756047 </i>
   </energy>
  </scstep>
  <scstep>
   <time name="diag">   72.95   72.96</time>
   <time name="diis">  585.21  585.40</time>
   <time name="orth">   10.88   10.88</time>
   <time name="total">  700.62  700.83</time>
   <energy>
    <i name="e_fr_energy">   -863.58195714 </i>
    <i name="e_wo_entrp">   -863.56655674 </i>
    <i name="e_0_energy">   -863.57682367 </i>
   </energy>
  </scstep>
  <scstep>
   <time name="diag">   70.62   70.64</time>
   <time name="diis">  426.83  426.91</time>
   <time name="orth">    8.98    8.98</time>
   <time name="total">  525.35  525.45</time>
   <energy>
    <i name="e_fr_energy">   -863.44481229 </i>
    <i name="e_wo_entrp">   -863.42204640 </i>
    <i name="e_0_energy">   -863.43722366 </i>
   </energy>
  </scstep>
  <scstep>
   <time name="diag">   61.42   61.45</time>
   <time name="diis">  434.76  434.92</time>
   <time name="orth">    9.61    9.61</time>
   <time name="total">  524.18  524.38</time>
   <energy>
    <i name="e_fr_energy">   -863.40733892 </i>
    <i name="e_wo_entrp">   -863.38561999 </i>
    <i name="e_0_energy">   -863.40009928 </i>
   </energy>
  </scstep>
  <scstep>
   <time name="diag">   62.59   62.62</time>
   <time name="diis">  572.95  573.28</time>
   <time name="orth">   10.54   10.55</time>
   <time name="total">  672.59  672.97</time>
   <energy>
    <i name="e_fr_energy">   -863.49858904 </i>
    <i name="e_wo_entrp">   -863.47361526 </i>
    <i name="e_0_energy">   -863.49026445 </i>
   </energy>
  </scstep>
  <scstep>
   <time name="diag">   74.59   74.60</time>
   <time name="diis">  420.99  421.11</time>
   <time name="orth">    9.75    9.76</time>
   <time name="total">  525.73  525.86</time>
   <energy>
    <i name="e_fr_energy">   -863.42823147 </i>
    <i name="e_wo_entrp">   -863.40273568 </i>
    <i name="e_0_energy">   -863.41973287 </i>
   </energy>
  </scstep>
  <scstep>
   <time name="diag">   63.96   63.97</time>
   <time name="diis">  574.44  574.61</time>
   <time name="orth">    9.86    9.86</time>
   <time name="total">  667.29  667.46</time>
   <energy>
    <i name="e_fr_energy">   -863.42266136 </i>
    <i name="e_wo_entrp">   -863.39783945 </i>
    <i name="e_0_energy">   -863.41438739 </i>
   </energy>
  </scstep>
  <scstep>
   <time name="diag">   66.20   66.23</time>
   <time name="diis">  488.08  488.26</time>
   <time name="orth">    9.99    9.99</time>
   <time name="total">  588.62  588.84</time>
   <energy>
    <i name="e_fr_energy">   -863.39853294 </i>
    <i name="e_wo_entrp">   -863.37540369 </i>
    <i name="e_0_energy">   -863.39082319 </i>
   </energy>
  </scstep>
  <scstep>
   <time name="diag">   69.99   70.00</time>
   <time name="diis">  585.47  585.65</time>
   <time name="orth">    9.84    9.84</time>
   <time name="total">  688.11  688.30</time>
   <energy>
    <i name="e_fr_energy">   -863.39664301 </i>
    <i name="e_wo_entrp">   -863.37381478 </i>
    <i name="e_0_energy">   -863.38903360 </i>
   </energy>
  </scstep>
  <scstep>
   <time name="diag">   74.97   74.97</time>
   <time name="diis">  568.90  569.06</time>
   <time name="orth">    9.94    9.94</time>
[...]
       <r>    -5.8552    -0.0001     2.0000 </r>
       <r>    -5.7938    -0.0000     2.0000 </r>
       <r>    -5.7323    -0.0000     2.0000 </r>
       <r>    -5.6708    -0.0000     2.0000 </r>
       <r>    -5.6094    -0.0000     2.0000 </r>
       <r>    -5.5479    -0.0000     2.0000 </r>
       <r>    -5.4864    -0.0000     2.0000 </r>
       <r>    -5.4250    -0.0000     2.0000 </r>
       <r>    -5.3635    -0.0000     2.0000 </r>
       <r>    -5.3021     0.0000     2.0000 </r>
       <r>    -5.2406     0.0000     2.0000 </r>
       <r>    -5.1791     0.0000     2.0000 </r>
       <r>    -5.1177     0.0000     2.0000 </r>
       <r>    -5.0562     0.0000     2.0000 </r>
       <r>    -4.9947     0.0000     2.0000 </r>
       <r>    -4.9333     0.0000     2.0000 </r>
       <r>    -4.8718     0.0000     2.0000 </r>
       <r>    -4.8103     0.0000     2.0000 </r>
       <r>    -4.7489     0.0000     2.0000 </r>
       <r>    -4.6874     0.0000     2.0000 </r>
       <r>    -4.6260     0.0000     2.0000 </r>
       <r>    -4.5645     0.0000     2.0000 </r>
       <r>    -4.5030     0.0000     2.0000 </r>
       <r>    -4.4416     0.0000     2.0000 </r>
       <r>    -4.3801     0.0000     2.0000 </r>
       <r>    -4.3186     0.0000     2.0000 </r>
       <r>    -4.2572     0.0000     2.0000 </r>
       <r>    -4.1957     0.0000     2.0000 </r>
       <r>    -4.1342     0.0000     2.0000 </r>
       <r>    -4.0728     0.0000     2.0000 </r>
       <r>    -4.0113     0.0000     2.0000 </r>
       <r>    -3.9499     0.0000     2.0000 </r>
       <r>    -3.8884     0.0000     2.0000 </r>
       <r>    -3.8269     0.0000     2.0000 </r>
       <r>    -3.7655     0.0000     2.0000 </r>
       <r>    -3.7040     0.0000     2.0000 </r>
       <r>    -3.6425     0.0000     2.0000 </r>
       <r>    -3.5811     0.0000     2.0000 </r>
       <r>    -3.5196     0.0000     2.0000 </r>
       <r>    -3.4581     0.0000     2.0000 </r>
       <r>    -3.3967     0.0000     2.0000 </r>
       <r>    -3.3352    -0.0000     2.0000 </r>
       <r>    -3.2738    -0.0000     2.0000 </r>
       <r>    -3.2123    -0.0000     2.0000 </r>
       <r>    -3.1508    -0.0000     2.0000 </r>
       <r>    -3.0894    -0.0000     2.0000 </r>
       <r>    -3.0279    -0.0000     2.0000 </r>
       <r>    -2.9664    -0.0000     2.0000 </r>
       <r>    -2.9050    -0.0000     2.0000 </r>
       <r>    -2.8435    -0.0000     2.0000 </r>
       <r>    -2.7821    -0.0000     2.0000 </r>
       <r>    -2.7206    -0.0000     2.0000 </r>
       <r>    -2.6591    -0.0000     2.0000 </r>
       <r>    -2.5977    -0.0000     2.0000 </r>
       <r>    -2.5362    -0.0000     2.0000 </r>
       <r>    -2.4747    -0.0000     2.0000 </r>
       <r>    -2.4133    -0.0000     2.0000 </r>
       <r>    -2.3518    -0.0001     2.0000 </r>
       <r>    -2.2903    -0.0004     2.0000 </r>
       <r>    -2.2289    -0.0020     1.9998 </r>
       <r>    -2.1674    -0.0075     1.9994 </r>
       <r>    -2.1060    -0.0230     1.9980 </r>
       <r>    -2.0445    -0.0549     1.9946 </r>
       <r>    -1.9830    -0.0984     1.9886 </r>
       <r>    -1.9216    -0.1142     1.9815 </r>
       <r>    -1.8601    -0.0138     1.9807 </r>
       <r>    -1.7986     0.3220     2.0005 </r>
       <r>    -1.7372     0.9815     2.0608 </r>
       <r>    -1.6757     1.9435     2.1803 </r>
       <r>    -1.6142     3.0282     2.3664 </r>
       <r>    -1.5528     3.9407     2.6086 </r>
       <r>    -1.4913     4.4285     2.8808 </r>
       <r>    -1.4299     4.4702     3.1555 </r>
       <r>    -1.3684     4.3624     3.4237 </r>
       <r>    -1.3069     4.5863     3.7056 </r>
       <r>    -1.2455     5.4067     4.0379 </r>
       <r>    -1.1840     6.4928     4.4369 </r>
       <r>    -1.1225     7.1334     4.8754 </r>
       <r>    -1.0611     7.0049     5.3059 </r>
       <r>    -0.9996     6.5454     5.7082 </r>
       <r>    -0.9381     6.4314     6.1035 </r>
       <r>    -0.8767     6.9220     6.5290 </r>
       <r>    -0.8152     7.8479     7.0113 </r>
       <r>    -0.7538     8.9286     7.5601 </r>
       <r>    -0.6923     9.8645     8.1664 </r>
       <r>    -0.6308    10.3316     8.8014 </r>
       <r>    -0.5694    10.1845     9.4274 </r>
       <r>    -0.5079     9.7070    10.0240 </r>
       <r>    -0.4464     9.5728    10.6124 </r>
       <r>    -0.3850    10.3902    11.2510 </r>
       <r>    -0.3235    12.0429    11.9912 </r>
       <r>    -0.2620    13.4841    12.8200 </r>
       <r>    -0.2006    13.5224    13.6511 </r>
       <r>    -0.1391    12.0113    14.3894 </r>
       <r>    -0.0777    10.0908    15.0096 </r>
       <r>    -0.0162     9.1412    15.5715 </r>
       <r>     0.0453     9.6501    16.1646 </r>
       <r>     0.1067    11.1278    16.8486 </r>
       <r>     0.1682    12.8471    17.6382 </r>
       <r>     0.2297    14.4398    18.5257 </r>
       <r>     0.2911    15.8505    19.4999 </r>
       <r>     0.3526    16.9308    20.5406 </r>
       <r>     0.4141    17.2738    21.6023 </r>
       <r>     0.4755    16.5814    22.6214 </r>
       <r>     0.5370    15.1611    23.5533 </r>
       <r>     0.5984    13.8289    24.4032 </r>
       <r>     0.6599    13.2038    25.2148 </r>
       <r>     0.7214    13.2888    26.0316 </r>
       <r>     0.7828    13.8397    26.8822 </r>
       <r>     0.8443    14.8018    27.7920 </r>
       <r>     0.9058    16.1224    28.7829 </r>
       <r>     0.9672    17.4966    29.8583 </r>
       <r>     1.0287    18.6929    31.0072 </r>
       <r>     1.0901    19.8328    32.2262 </r>
       <r>     1.1516    20.9838    33.5160 </r>
       <r>     1.2131    21.7696    34.8540 </r>
       <r>     1.2745    21.7164    36.1888 </r>
       <r>     1.3360    20.8298    37.4691 </r>
       <r>     1.3975    19.7674    38.6840 </r>
       <r>     1.4589    19.6456    39.8915 </r>
       <r>     1.5204    21.4714    41.2112 </r>
       <r>     1.5819    25.1650    42.7580 </r>
       <r>     1.6433    29.0299    44.5422 </r>
       <r>     1.7048    30.8389    46.4377 </r>
       <r>     1.7662    30.0867    48.2869 </r>
       <r>     1.8277    29.1269    50.0772 </r>
       <r>     1.8892    31.6561    52.0229 </r>
       <r>     1.9506    39.8311    54.4710 </r>
       <r>     2.0121    52.7793    57.7150 </r>
       <r>     2.0736    67.6417    61.8725 </r>
       <r>     2.1350    81.5792    66.8867 </r>
       <r>     2.1965    92.6385    72.5806 </r>
       <r>     2.2580    99.5769    78.7009 </r>
       <r>     2.3194   102.1570    84.9798 </r>
       <r>     2.3809   101.7867    91.2360 </r>
       <r>     2.4423   100.9557    97.4411 </r>
       <r>     2.5038   101.5180   103.6807 </r>
       <r>     2.5653   103.6847   110.0536 </r>
       <r>     2.6267   106.7672   116.6158 </r>
       <r>     2.6882   110.6991   123.4198 </r>
       <r>     2.7497   116.4634   130.5780 </r>
       <r>     2.8111   124.6584   138.2400 </r>
       <r>     2.8726   133.9373   146.4722 </r>
       <r>     2.9341   141.8150   155.1887 </r>
       <r>     2.9955   147.2613   164.2399 </r>
       <r>     3.0570   151.5984   173.5576 </r>
       <r>     3.1184   156.3930   183.1701 </r>
       <r>     3.1799   161.2856   193.0833 </r>
       <r>     3.2414   164.4896   203.1934 </r>
       <r>     3.3028   164.7555   213.3198 </r>
       <r>     3.3643   162.1791   223.2879 </r>
       <r>     3.4258   157.6923   232.9802 </r>
       <r>     3.4872   152.7120   242.3664 </r>
       <r>     3.5487   148.9968   251.5243 </r>
       <r>     3.6102   147.6523   260.5995 </r>
       <r>     3.6716   147.8876   269.6892 </r>
       <r>     3.7331   147.4411   278.7515 </r>
       <r>     3.7945   144.6474   287.6420 </r>
       <r>     3.8560   139.8865   296.2399 </r>
       <r>     3.9175   135.0713   304.5419 </r>
       <r>     3.9789   131.9831   312.6540 </r>
       <r>     4.0404   130.8976   320.6994 </r>
       <r>     4.1019   130.5141   328.7213 </r>
       <r>     4.1633   129.4153   336.6756 </r>
       <r>     4.2248   127.8894   344.5361 </r>
       <r>     4.2863   128.1141   352.4105 </r>
       <r>     4.3477   132.1799   360.5347 </r>
       <r>     4.4092   140.1396   369.1482 </r>
       <r>     4.4706   150.3922   378.3918 </r>
       <r>     4.5321   161.3303   388.3077 </r>
       <r>     4.5936   171.4028   398.8427 </r>
       <r>     4.6550   178.0188   409.7844 </r>
       <r>     4.7165   178.5956   420.7615 </r>
       <r>     4.7780   173.8635   431.4478 </r>
       <r>     4.8394   169.0777   441.8399 </r>
       <r>     4.9009   170.5481   452.3224 </r>
       <r>     4.9623   180.5935   463.4223 </r>
       <r>     5.0238   195.8673   475.4610 </r>
       <r>     5.0853   210.3112   488.3874 </r>
       <r>     5.1467   219.6309   501.8867 </r>
       <r>     5.2082   223.4843   515.6228 </r>
       <r>     5.2697   224.4868   529.4206 </r>
       <r>     5.3311   226.0448   543.3141 </r>
       <r>     5.3926   230.7964   557.4996 </r>
       <r>     5.4541   239.4285   572.2157 </r>
       <r>     5.5155   249.4402   587.5472 </r>
       <r>     5.5770   255.2497   603.2357 </r>
       <r>     5.6384   251.2282   618.6771 </r>
       <r>     5.6999   236.0690   633.1867 </r>
       <r>     5.7614   214.2388   646.3546 </r>
       <r>     5.8228   192.5956   658.1922 </r>
       <r>     5.8843   175.4549   668.9762 </r>
       <r>     5.9458   162.9327   678.9907 </r>
       <r>     6.0072   153.4154   688.4201 </r>
       <r>     6.0687   146.6117   697.4314 </r>
       <r>     6.1302   143.8762   706.2745 </r>
       <r>     6.1916   146.2604   715.2642 </r>
       <r>     6.2531   152.9968   724.6679 </r>
       <r>     6.3145   161.8395   734.6151 </r>
       <r>     6.3760   170.6241   745.1023 </r>
       <r>     6.4375   178.6908   756.0852 </r>
       <r>     6.4989   186.7685   767.5647 </r>
       <r>     6.5604   194.9989   779.5500 </r>
       <r>     6.6219   201.4145   791.9296 </r>
       <r>     6.6833   203.5421   804.4400 </r>
       <r>     6.7448   201.5127   816.8257 </r>
       <r>     6.8063   198.0538   828.9988 </r>
       <r>     6.8677   194.8312   840.9738 </r>
       <r>     6.9292   190.3495   852.6733 </r>
       <r>     6.9906   182.7928   863.9084 </r>
       <r>     7.0521   173.9459   874.5997 </r>
       <r>     7.1136   168.4721   884.9546 </r>
       <r>     7.1750   169.1191   895.3493 </r>
       <r>     7.2365   173.8395   906.0341 </r>
       <r>     7.2980   178.2395   916.9893 </r>
       <r>     7.3594   180.2801   928.0699 </r>
       <r>     7.4209   182.0915   939.2619 </r>
       <r>     7.4824   187.6338   950.7945 </r>
       <r>     7.5438   198.8047   963.0138 </r>
       <r>     7.6053   212.4698   976.0729 </r>
       <r>     7.6667   219.6662   989.5744 </r>
       <r>     7.7282   208.7569  1002.4053 </r>
       <r>     7.7897   173.1410  1013.0471 </r>
       <r>     7.8511   118.5261  1020.3322 </r>
       <r>     7.9126    61.5964  1024.1181 </r>
       <r>     7.9741    19.1456  1025.2948 </r>
       <r>     8.0355    -2.4373  1025.1450 </r>
       <r>     8.0970    -7.9185  1024.6583 </r>
       <r>     8.1585    -6.0515  1024.2864 </r>
       <r>     8.2199    -3.0536  1024.0987 </r>
       <r>     8.2814    -1.1589  1024.0275 </r>
       <r>     8.3428    -0.3455  1024.0062 </r>
       <r>     8.4043    -0.0826  1024.0012 </r>
       <r>     8.4658    -0.0160  1024.0002 </r>
       <r>     8.5272    -0.0025  1024.0000 </r>
       <r>     8.5887    -0.0003  1024.0000 </r>
       <r>     8.6502    -0.0000  1024.0000 </r>
       <r>     8.7116    -0.0000  1024.0000 </r>
       <r>     8.7731    -0.0000  1024.0000 </r>
       <r>     8.8345    -0.0000  1024.0000 </r>
       <r>     8.8960    -0.0000  1024.0000 </r>
       <r>     8.9575    -0.0000  1024.0000 </r>
       <r>     9.0189    -0.0000  1024.0000 </r>
       <r>     9.0804    -0.0000  1024.0000 </r>
       <r>     9.1419     0.0000  1024.0000 </r>
       <r>     9.2033     0.0000  1024.0000 </r>
       <r>     9.2648     0.0000  1024.0000 </r>
       <r>     9.3263     0.0000  1024.0000 </r>
       <r>     9.3877     0.0000  1024.0000 </r>
       <r>     9.4492     0.0000  1024.0000 </r>
       <r>     9.5106     0.0000  1024.0000 </r>
       <r>     9.5721     0.0000  1024.0000 </r>
       <r>     9.6336     0.0000  1024.0000 </r>
       <r>     9.6950     0.0000  1024.0000 </r>
       <r>     9.7565     0.0000  1024.0000 </r>
       <r>     9.8180     0.0000  1024.0000 </r>
      </set>
     </set>
    </array>
   </total>
  </dos>
 </calculation>
 <structure name="finalpos" >
  <crystal>
   <varray name="basis" >
    <v>      10.33484705       0.00000000       0.00000000 </v>
    <v>       0.00000000      10.33484705       0.00000000 </v>
    <v>       0.00000000       0.00000000      10.33484705 </v>
   </varray>
   <i name="volume">   1103.85533447 </i>
   <varray name="rec_basis" >
    <v>       0.09676002       0.00000000       0.00000000 </v>
    <v>       0.00000000       0.09676002       0.00000000 </v>
    <v>       0.00000000       0.00000000       0.09676002 </v>
   </varray>
  </crystal>
  <varray name="positions" >
   <v>      -0.00071998      -0.00000001       0.00041939 </v>
   <v>      -0.00031233       0.16630583       0.16635454 </v>
   <v>      -0.00149169       0.33388970       0.00025135 </v>
   <v>       0.00101732       0.50000001       0.16768419 </v>
   <v>      -0.00149169       0.66611033       0.00025132 </v>
   <v>      -0.00031235       0.83369415       0.16635459 </v>
   <v>      -0.00071882      -0.00000001       0.33276077 </v>
   <v>       0.00031019       0.16683956       0.50032365 </v>
   <v>      -0.00052259       0.33341182       0.33287014 </v>
   <v>       0.00104882       0.50000001       0.50008634 </v>
   <v>      -0.00052260       0.66658820       0.33287013 </v>
   <v>       0.00031020       0.83316044       0.50032367 </v>
   <v>      -0.00133777      -0.00000001       0.66712376 </v>
   <v>      -0.00076497       0.16683276       0.83339497 </v>
   <v>      -0.00028796       0.33287408       0.66707110 </v>
   <v>       0.00006625       0.50000001       0.83347010 </v>
   <v>      -0.00028796       0.66712594       0.66707116 </v>
   <v>      -0.00076497       0.83316722       0.83339497 </v>
   <v>       0.16609442      -0.00000000       0.16594797 </v>
   <v>       0.16593307       0.16546885       0.00064362 </v>
   <v>       0.16593306       0.83453114       0.00064372 </v>
   <v>       0.15930684       0.32656222       0.50028626 </v>
   <v>       0.16148066       0.49999999       0.32814727 </v>
   <v>       0.15930684       0.67343777       0.50028626 </v>
   <v>       0.16633693      -0.00000001       0.83450187 </v>
   <v>       0.15890512       0.50000002       0.67546028 </v>
   <v>       0.16620346       0.33341182       0.16614403 </v>
   <v>       0.16620346       0.66658819       0.16614403 </v>
   <v>       0.16617255       0.16686811       0.33283926 </v>
   <v>       0.16617255       0.83313190       0.33283922 </v>
   <v>       0.16576674       0.16570946       0.66717909 </v>
   <v>       0.16578746       0.33227794       0.83430546 </v>
   <v>       0.16578748       0.66772208       0.83430555 </v>
   <v>       0.16576673       0.83429053       0.66717916 </v>
   <v>       0.16843352       0.50000000      -0.00260309 </v>
   <v>       0.16578710      -0.00000000       0.49993888 </v>
   <v>       0.33351037      -0.00000001       0.00070838 </v>
   <v>       0.33365724       0.16683974       0.16697700 </v>
   <v>       0.33365725       0.83316027       0.16697701 </v>
   <v>       0.33361985       0.32656223       0.32597331 </v>
   <v>       0.33361983       0.67343775       0.32597334 </v>
   <v>       0.33297153       0.16493925       0.83518955 </v>
   <v>       0.33192940       0.32110304       0.67554952 </v>
   <v>       0.33192940       0.67889691       0.67554942 </v>
   <v>       0.33297152       0.83506072       0.83518964 </v>
   <v>       0.33310206       0.33305307      -0.00044566 </v>
   <v>       0.33341967       0.49999999       0.16771538 </v>
   <v>       0.33310208       0.66694694      -0.00044561 </v>
   <v>       0.33327240       0.00000001       0.33245390 </v>
   <v>       0.33318747       0.16715648       0.49985404 </v>
   <v>       0.33318746       0.83284351       0.49985401 </v>
   <v>       0.33345069      -0.00000001       0.66668000 </v>
   <v>       0.33398995       0.50000001       0.83330716 </v>
   <v>       0.50045743      -0.00000002       0.16532893 </v>
   <v>       0.50029555       0.16809352      -0.00269566 </v>
   <v>       0.50040490       0.33287447       0.16637860 </v>
   <v>       0.49969927       0.50000001      -0.00263218 </v>
   <v>       0.50040491       0.66712556       0.16637866 </v>
   <v>       0.50029558       0.83190646      -0.00269574 </v>
   <v>       0.50001361       0.00000001       0.50011706 </v>
   <v>       0.50051265       0.16570950       0.33243311 </v>
   <v>       0.50888270       0.32110314       0.49859582 </v>
   <v>       0.50879344       0.49999999       0.32557238 </v>
   <v>       0.50888263       0.67889680       0.49859579 </v>
   <v>       0.50051266       0.83429053       0.33243314 </v>
   <v>       0.50029741      -0.00000002       0.83438772 </v>
   <v>       0.50069641       0.16734466       0.66736283 </v>
   <v>       0.50092398       0.33347719       0.83372371 </v>
   <v>       0.50092399       0.66652281       0.83372367 </v>
   <v>       0.50069640       0.83265535       0.66736283 </v>
   <v>       0.66770526       0.33300496      -0.00024901 </v>
   <v>       0.66680338       0.50000001       0.16673359 </v>
   <v>       0.66770524       0.66699505      -0.00024899 </v>
   <v>       0.66783545       0.00000000       0.33300359 </v>
   <v>       0.66852292       0.16493951       0.49963807 </v>
   <v>       0.66852292       0.83506053       0.49963818 </v>
   <v>       0.66772126      -0.00000000       0.66696373 </v>
   <v>       0.66442003       0.50000001       0.83108641 </v>
   <v>       0.66672856       0.16683277       0.16590182 </v>
   <v>       0.66672856       0.83316722       0.16590183 </v>
   <v>       0.66763729       0.33227857       0.33245417 </v>
   <v>       0.66763733       0.66772143       0.33245425 </v>
   <v>       0.66698464       0.16653890       0.83365114 </v>
   <v>       0.66705713       0.33347734       0.66759020 </v>
   <v>       0.66705714       0.66652267       0.66759020 </v>
   <v>       0.66698464       0.83346108       0.83365113 </v>
   <v>       0.66658020      -0.00000002      -0.00037792 </v>
   <v>       0.66664077       0.49999999       0.50065622 </v>
   <v>       0.83004109       0.50000002      -0.00329194 </v>
   <v>       0.83404165       0.00000002       0.50017675 </v>
   <v>       0.83358478       0.33388968       0.16517526 </v>
   <v>       0.83358478       0.66611033       0.16517523 </v>
   <v>       0.83397699       0.16546898       0.33259973 </v>
   <v>       0.83397699       0.83453102       0.33259982 </v>
   <v>       0.83063749       0.16809351       0.66696188 </v>
   <v>       0.83308425       0.33300495       0.83437149 </v>
   <v>       0.83308424       0.66699507       0.83437152 </v>
   <v>       0.83063752       0.83190649       0.66696181 </v>
   <v>       0.83375280      -0.00000001       0.16594685 </v>
   <v>       0.83375633       0.16618670       0.00042289 </v>
   <v>       0.83375633       0.83381327       0.00042293 </v>
   <v>       0.83288760       0.33305321       0.49976856 </v>
   <v>       0.83072726       0.50000000       0.33509968 </v>
   <v>       0.83288763       0.66694677       0.49976860 </v>
   <v>       0.83295544      -0.00000002       0.83324665 </v>
   <v>       0.83070114       0.50000000       0.66636558 </v>
   <v>       0.34678623       0.50000006       0.51345304 </v>
  </varray>
 </structure>
</modeling>
