 108 108   0   0
  0.1022088E+02  0.1033485E-08  0.1033485E-08  0.1033485E-08  0.5000000E-15
  1.000000000000000E-004
  CAR 
 Opt                                     
      9.66813739     -3.94144529  301      6.76995594      1.00000000
     -3.941  0.0000E+00  0.0000E+00
     -3.896  0.0000E+00  0.0000E+00
     -3.851  0.0000E+00  0.0000E+00
     -3.805  0.0000E+00  0.0000E+00
     -3.760  0.0000E+00  0.0000E+00
     -3.715  0.0000E+00  0.0000E+00
     -3.669  0.0000E+00  0.0000E+00
     -3.624  0.0000E+00  0.0000E+00
     -3.579 -0.1015E-29 -0.4607E-31
     -3.533 -0.3743E-28 -0.1744E-29
     -3.488 -0.1273E-26 -0.5951E-28
     -3.442 -0.3904E-25 -0.1831E-26
     -3.397 -0.1079E-23 -0.5076E-25
     -3.352 -0.2685E-22 -0.1269E-23
     -3.306 -0.6020E-21 -0.2858E-22
     -3.261 -0.1216E-19 -0.5802E-21
     -3.216 -0.2212E-18 -0.1061E-19
     -3.170 -0.3623E-17 -0.1750E-18
     -3.125 -0.5037E-16 -0.2460E-17
     -3.080 -0.6878E-15 -0.3366E-16
     -3.034 -0.8191E-14 -0.4052E-15
     -2.989 -0.8776E-13 -0.4387E-14
     -2.943 -0.8454E-12 -0.4274E-13
     -2.898 -0.7318E-11 -0.3747E-12
     -2.853 -0.5690E-10 -0.2956E-11
     -2.807 -0.3971E-09 -0.2097E-10
     -2.762 -0.2486E-08 -0.1337E-09
     -2.717 -0.1395E-07 -0.7665E-09
     -2.671 -0.7006E-07 -0.3945E-08
     -2.626 -0.3146E-06 -0.1822E-07
     -2.580 -0.1261E-05 -0.7543E-07
     -2.535 -0.4502E-05 -0.2797E-06
     -2.490 -0.1427E-04 -0.9272E-06
     -2.444 -0.4004E-04 -0.2744E-05
     -2.399 -0.9883E-04 -0.7227E-05
     -2.354 -0.2129E-03 -0.1688E-04
     -2.308 -0.3947E-03 -0.3479E-04
     -2.263 -0.6145E-03 -0.6267E-04
     -2.218 -0.7591E-03 -0.9710E-04
     -2.172 -0.6147E-03 -0.1250E-03
     -2.127  0.8661E-04 -0.1211E-03
     -2.081  0.1564E-02 -0.5011E-04
     -2.036  0.3903E-02  0.1270E-03
     -1.991  0.7084E-02  0.4483E-03
     -1.945  0.1109E-01  0.9516E-03
     -1.900  0.1597E-01  0.1676E-02
     -1.855  0.2159E-01  0.2656E-02
     -1.809  0.2748E-01  0.3902E-02
     -1.764  0.3274E-01  0.5388E-02
     -1.719  0.3653E-01  0.7045E-02
     -1.673  0.3858E-01  0.8795E-02
     -1.628  0.3934E-01  0.1058E-01
     -1.582  0.3964E-01  0.1238E-01
     -1.537  0.4029E-01  0.1421E-01
     -1.492  0.4182E-01  0.1610E-01
     -1.446  0.4454E-01  0.1812E-01
     -1.401  0.4856E-01  0.2033E-01
     -1.356  0.5385E-01  0.2277E-01
     -1.310  0.6010E-01  0.2550E-01
     -1.265  0.6649E-01  0.2851E-01
     -1.220  0.7151E-01  0.3176E-01
     -1.174  0.7332E-01  0.3508E-01
     -1.129  0.7077E-01  0.3829E-01
     -1.083  0.6446E-01  0.4122E-01
     -1.038  0.5687E-01  0.4380E-01
     -0.993  0.5138E-01  0.4613E-01
     -0.947  0.5068E-01  0.4843E-01
     -0.902  0.5581E-01  0.5096E-01
     -0.857  0.6602E-01  0.5395E-01
     -0.811  0.7942E-01  0.5756E-01
     -0.766  0.9363E-01  0.6180E-01
     -0.721  0.1059E+00  0.6661E-01
     -0.675  0.1133E+00  0.7175E-01
     -0.630  0.1131E+00  0.7688E-01
     -0.584  0.1047E+00  0.8163E-01
     -0.539  0.9039E-01  0.8573E-01
     -0.494  0.7526E-01  0.8914E-01
     -0.448  0.6512E-01  0.9210E-01
     -0.403  0.6384E-01  0.9500E-01
     -0.358  0.7176E-01  0.9825E-01
     -0.312  0.8604E-01  0.1022E+00
     -0.267  0.1023E+00  0.1068E+00
     -0.221  0.1162E+00  0.1121E+00
     -0.176  0.1247E+00  0.1177E+00
     -0.131  0.1267E+00  0.1235E+00
     -0.085  0.1233E+00  0.1291E+00
     -0.040  0.1174E+00  0.1344E+00
      0.005  0.1127E+00  0.1395E+00
      0.051  0.1120E+00  0.1446E+00
      0.096  0.1159E+00  0.1498E+00
      0.141  0.1227E+00  0.1554E+00
      0.187  0.1302E+00  0.1613E+00
      0.232  0.1362E+00  0.1675E+00
      0.278  0.1401E+00  0.1738E+00
      0.323  0.1416E+00  0.1803E+00
      0.368  0.1409E+00  0.1867E+00
      0.414  0.1378E+00  0.1929E+00
      0.459  0.1327E+00  0.1989E+00
      0.504  0.1264E+00  0.2047E+00
      0.550  0.1212E+00  0.2102E+00
      0.595  0.1207E+00  0.2156E+00
      0.640  0.1281E+00  0.2214E+00
      0.686  0.1451E+00  0.2280E+00
      0.731  0.1690E+00  0.2357E+00
      0.777  0.1934E+00  0.2445E+00
      0.822  0.2107E+00  0.2540E+00
      0.867  0.2166E+00  0.2639E+00
      0.913  0.2122E+00  0.2735E+00
      0.958  0.2028E+00  0.2827E+00
      1.003  0.1938E+00  0.2915E+00
      1.049  0.1869E+00  0.3000E+00
      1.094  0.1800E+00  0.3081E+00
      1.139  0.1714E+00  0.3159E+00
      1.185  0.1632E+00  0.3233E+00
      1.230  0.1620E+00  0.3307E+00
      1.276  0.1754E+00  0.3386E+00
      1.321  0.2060E+00  0.3480E+00
      1.366  0.2491E+00  0.3593E+00
      1.412  0.2934E+00  0.3726E+00
      1.457  0.3257E+00  0.3873E+00
      1.502  0.3364E+00  0.4026E+00
      1.548  0.3238E+00  0.4173E+00
      1.593  0.2955E+00  0.4307E+00
      1.638  0.2663E+00  0.4428E+00
      1.684  0.2540E+00  0.4543E+00
      1.729  0.2734E+00  0.4667E+00
      1.775  0.3319E+00  0.4818E+00
      1.820  0.4267E+00  0.5011E+00
      1.865  0.5463E+00  0.5259E+00
      1.911  0.6746E+00  0.5565E+00
      1.956  0.7963E+00  0.5926E+00
      2.001  0.9008E+00  0.6335E+00
      2.047  0.9812E+00  0.6780E+00
      2.092  0.1033E+01  0.7249E+00
      2.138  0.1055E+01  0.7727E+00
      2.183  0.1051E+01  0.8204E+00
      2.228  0.1032E+01  0.8672E+00
      2.274  0.1014E+01  0.9133E+00
      2.319  0.1012E+01  0.9592E+00
      2.364  0.1032E+01  0.1006E+01
      2.410  0.1069E+01  0.1054E+01
      2.455  0.1109E+01  0.1105E+01
      2.500  0.1142E+01  0.1157E+01
      2.546  0.1164E+01  0.1209E+01
      2.591  0.1187E+01  0.1263E+01
      2.637  0.1222E+01  0.1319E+01
      2.682  0.1275E+01  0.1377E+01
      2.727  0.1341E+01  0.1437E+01
      2.773  0.1405E+01  0.1501E+01
      2.818  0.1460E+01  0.1567E+01
      2.863  0.1507E+01  0.1636E+01
      2.909  0.1554E+01  0.1706E+01
      2.954  0.1607E+01  0.1779E+01
      2.999  0.1661E+01  0.1854E+01
      3.045  0.1701E+01  0.1932E+01
      3.090  0.1715E+01  0.2009E+01
      3.136  0.1699E+01  0.2087E+01
      3.181  0.1663E+01  0.2162E+01
      3.226  0.1619E+01  0.2235E+01
      3.272  0.1579E+01  0.2307E+01
      3.317  0.1544E+01  0.2377E+01
      3.362  0.1516E+01  0.2446E+01
      3.408  0.1498E+01  0.2514E+01
      3.453  0.1494E+01  0.2582E+01
      3.498  0.1502E+01  0.2650E+01
      3.544  0.1514E+01  0.2718E+01
      3.589  0.1513E+01  0.2787E+01
      3.635  0.1491E+01  0.2855E+01
      3.680  0.1448E+01  0.2920E+01
      3.725  0.1396E+01  0.2984E+01
      3.771  0.1353E+01  0.3045E+01
      3.816  0.1330E+01  0.3105E+01
      3.861  0.1329E+01  0.3166E+01
      3.907  0.1335E+01  0.3226E+01
      3.952  0.1332E+01  0.3287E+01
      3.997  0.1310E+01  0.3346E+01
      4.043  0.1276E+01  0.3404E+01
      4.088  0.1253E+01  0.3461E+01
      4.134  0.1261E+01  0.3518E+01
      4.179  0.1305E+01  0.3577E+01
      4.224  0.1375E+01  0.3640E+01
      4.270  0.1454E+01  0.3706E+01
      4.315  0.1537E+01  0.3775E+01
      4.360  0.1624E+01  0.3849E+01
      4.406  0.1718E+01  0.3927E+01
      4.451  0.1809E+01  0.4009E+01
      4.496  0.1874E+01  0.4094E+01
      4.542  0.1892E+01  0.4180E+01
      4.587  0.1859E+01  0.4264E+01
      4.633  0.1791E+01  0.4345E+01
      4.678  0.1726E+01  0.4424E+01
      4.723  0.1700E+01  0.4501E+01
      4.769  0.1740E+01  0.4580E+01
      4.814  0.1848E+01  0.4664E+01
      4.859  0.2001E+01  0.4754E+01
      4.905  0.2157E+01  0.4852E+01
      4.950  0.2276E+01  0.4955E+01
      4.996  0.2336E+01  0.5061E+01
      5.041  0.2338E+01  0.5168E+01
      5.086  0.2304E+01  0.5272E+01
      5.132  0.2261E+01  0.5375E+01
      5.177  0.2233E+01  0.5476E+01
      5.222  0.2240E+01  0.5578E+01
      5.268  0.2290E+01  0.5681E+01
      5.313  0.2386E+01  0.5790E+01
      5.358  0.2511E+01  0.5904E+01
      5.404  0.2630E+01  0.6023E+01
      5.449  0.2694E+01  0.6145E+01
      5.495  0.2664E+01  0.6266E+01
      5.540  0.2532E+01  0.6381E+01
      5.585  0.2327E+01  0.6486E+01
      5.631  0.2103E+01  0.6582E+01
      5.676  0.1908E+01  0.6668E+01
      5.721  0.1766E+01  0.6748E+01
      5.767  0.1669E+01  0.6824E+01
      5.812  0.1592E+01  0.6896E+01
      5.857  0.1520E+01  0.6965E+01
      5.903  0.1452E+01  0.7031E+01
      5.948  0.1407E+01  0.7095E+01
      5.994  0.1402E+01  0.7159E+01
      6.039  0.1445E+01  0.7224E+01
      6.084  0.1525E+01  0.7293E+01
      6.130  0.1623E+01  0.7367E+01
      6.175  0.1716E+01  0.7445E+01
      6.220  0.1791E+01  0.7526E+01
      6.266  0.1852E+01  0.7610E+01
      6.311  0.1910E+01  0.7697E+01
      6.356  0.1976E+01  0.7786E+01
      6.402  0.2047E+01  0.7879E+01
      6.447  0.2106E+01  0.7975E+01
      6.493  0.2133E+01  0.8072E+01
      6.538  0.2123E+01  0.8168E+01
      6.583  0.2089E+01  0.8263E+01
      6.629  0.2056E+01  0.8356E+01
      6.674  0.2036E+01  0.8448E+01
      6.719  0.2019E+01  0.8540E+01
      6.765  0.1982E+01  0.8630E+01
      6.810  0.1907E+01  0.8716E+01
      6.855  0.1804E+01  0.8798E+01
      6.901  0.1708E+01  0.8876E+01
      6.946  0.1655E+01  0.8951E+01
      6.992  0.1660E+01  0.9026E+01
      7.037  0.1708E+01  0.9104E+01
      7.082  0.1769E+01  0.9184E+01
      7.128  0.1817E+01  0.9266E+01
      7.173  0.1843E+01  0.9350E+01
      7.218  0.1856E+01  0.9434E+01
      7.264  0.1872E+01  0.9519E+01
      7.309  0.1905E+01  0.9605E+01
      7.355  0.1961E+01  0.9694E+01
      7.400  0.2036E+01  0.9787E+01
      7.445  0.2110E+01  0.9882E+01
      7.491  0.2150E+01  0.9980E+01
      7.536  0.2110E+01  0.1008E+02
      7.581  0.1954E+01  0.1016E+02
      7.627  0.1673E+01  0.1024E+02
      7.672  0.1295E+01  0.1030E+02
      7.717  0.8805E+00  0.1034E+02
      7.763  0.5003E+00  0.1036E+02
      7.808  0.2089E+00  0.1037E+02
      7.854  0.2738E-01  0.1037E+02
      7.899 -0.5682E-01  0.1037E+02
      7.944 -0.7535E-01  0.1037E+02
      7.990 -0.6171E-01  0.1036E+02
      8.035 -0.3987E-01  0.1036E+02
      8.080 -0.2170E-01  0.1036E+02
      8.126 -0.1022E-01  0.1036E+02
      8.171 -0.4228E-02  0.1036E+02
      8.216 -0.1547E-02  0.1036E+02
      8.262 -0.5032E-03  0.1036E+02
      8.307 -0.1460E-03  0.1036E+02
      8.353 -0.3788E-04  0.1036E+02
      8.398 -0.8803E-05  0.1036E+02
      8.443 -0.1834E-05  0.1036E+02
      8.489 -0.3432E-06  0.1036E+02
      8.534 -0.5768E-07  0.1036E+02
      8.579 -0.8715E-08  0.1036E+02
      8.625 -0.1184E-08  0.1036E+02
      8.670 -0.1448E-09  0.1036E+02
      8.715 -0.1594E-10  0.1036E+02
      8.761 -0.1580E-11  0.1036E+02
      8.806 -0.1412E-12  0.1036E+02
      8.852 -0.1129E-13  0.1036E+02
      8.897 -0.9177E-15  0.1036E+02
      8.942  0.0000E+00  0.1036E+02
      8.988  0.0000E+00  0.1036E+02
      9.033  0.0000E+00  0.1036E+02
      9.078  0.0000E+00  0.1036E+02
      9.124  0.0000E+00  0.1036E+02
      9.169  0.0000E+00  0.1036E+02
      9.214  0.0000E+00  0.1036E+02
      9.260  0.0000E+00  0.1036E+02
      9.305  0.0000E+00  0.1036E+02
      9.351  0.0000E+00  0.1036E+02
      9.396  0.0000E+00  0.1036E+02
      9.441  0.0000E+00  0.1036E+02
      9.487  0.0000E+00  0.1036E+02
      9.532  0.0000E+00  0.1036E+02
      9.577  0.0000E+00  0.1036E+02
      9.623  0.0000E+00  0.1036E+02
      9.668  0.0000E+00  0.1036E+02
