  108  108  100    1
  0.1022088E+02  0.1033485E-08  0.1033485E-08  0.1033485E-08  0.5000000E-15
  1.000000000000000E-004
  CAR 
 Opt                                     
    864      4    518
 
  0.1250000E+00  0.1250000E+00  0.1250000E+00  0.1250000E+00
    1       -1.941445   1.000000
    2       -0.811231   1.000000
    3       -0.811231   1.000000
    4       -0.811231   1.000000
    5       -0.128844   1.000000
    6       -0.128844   1.000000
    7       -0.128844   1.000000
    8        0.203164   1.000000
    9        0.203164   1.000000
   10        0.203164   1.000000
   11        0.809203   1.000000
   12        0.809203   1.000000
   13        0.809203   1.000000
   14        0.809203   1.000000
   15        0.809203   1.000000
   16        0.809203   1.000000
   17        0.916339   1.000000
   18        1.312117   1.000000
   19        1.312117   1.000000
   20        1.312117   1.000000
   21        1.358039   1.000000
   22        1.358039   1.000000
   23        1.358039   1.000000
   24        1.580648   1.000000
   25        1.580649   1.000000
   26        1.580649   1.000000
   27        1.714606   1.000000
   28        1.786088   1.000000
   29        1.786088   1.000000
   30        1.786088   1.000000
   31        1.888910   1.000000
   32        1.888916   1.000000
   33        1.888916   1.000000
   34        1.982896   1.000000
   35        1.982896   1.000000
   36        1.982896   1.000000
   37        2.339548   1.000000
   38        2.339553   1.000000
   39        2.339553   1.000000
   40        2.461632   1.000000
   41        2.461632   1.000000
   42        2.461632   1.000000
   43        2.461635   1.000000
   44        2.461635   1.000000
   45        2.461635   1.000000
   46        2.476159   1.000000
   47        2.476159   1.000000
   48        2.476159   1.000000
   49        2.522436   1.000000
   50        2.522436   1.000000
   51        2.522436   1.000000
   52        2.522443   1.000000
   53        2.522443   1.000000
   54        2.522443   1.000000
   55        2.544383   1.000000
   56        2.544383   1.000000
   57        2.544383   1.000000
   58        2.544383   1.000000
   59        2.544383   1.000000
   60        2.544383   1.000000
   61        2.622586   1.000000
   62        2.622586   1.000000
   63        2.622586   1.000000
   64        2.624382   1.000000
   65        2.624382   1.000000
   66        2.624382   1.000000
   67        2.716121   1.000000
   68        2.716121   1.000000
   69        2.716121   1.000000
   70        2.716121   1.000000
   71        2.716121   1.000000
   72        2.716121   1.000000
   73        2.755507   1.000000
   74        2.755507   1.000000
   75        2.755507   1.000000
   76        2.755513   1.000000
   77        2.755513   1.000000
   78        2.755513   1.000000
   79        2.758445   1.000000
   80        2.758452   1.000000
   81        2.758452   1.000000
   82        2.814203   1.000000
   83        2.814203   1.000000
   84        2.814203   1.000000
   85        2.814212   1.000000
   86        2.814212   1.000000
   87        2.814212   1.000000
   88        2.923093   1.000000
   89        2.923093   1.000000
   90        2.923093   1.000000
   91        2.923096   1.000000
   92        2.923096   1.000000
   93        2.923096   1.000000
   94        3.039222   1.000000
   95        3.039222   1.000000
   96        3.039222   1.000000
   97        3.056813   1.000000
   98        3.056813   1.000000
   99        3.056813   1.000000
  100        3.087886   1.000000
  101        3.087886   1.000000
  102        3.087886   1.000000
  103        3.087886   1.000000
  104        3.087886   1.000000
  105        3.087886   1.000000
  106        3.150186   1.000000
  107        3.150186   1.000000
  108        3.150186   1.000000
  109        3.150186   1.000000
  110        3.150186   1.000000
  111        3.150186   1.000000
  112        3.314230   1.000000
  113        3.314230   1.000000
  114        3.314231   1.000000
  115        3.314235   1.000000
  116        3.314235   1.000000
  117        3.314235   1.000000
  118        3.322963   1.000000
  119        3.322963   1.000000
  120        3.322963   1.000000
  121        3.425767   1.000000
  122        3.425767   1.000000
  123        3.425767   1.000000
  124        3.428583   1.000000
  125        3.428583   1.000000
  126        3.428583   1.000000
  127        3.474099   1.000000
  128        3.474099   1.000000
  129        3.474099   1.000000
  130        3.474105   1.000000
  131        3.474105   1.000000
  132        3.474105   1.000000
  133        3.498509   1.000000
  134        3.498509   1.000000
  135        3.498509   1.000000
  136        3.498509   1.000000
  137        3.498509   1.000000
  138        3.498509   1.000000
  139        3.551890   1.000000
  140        3.551890   1.000000
  141        3.551890   1.000000
  142        3.551892   1.000000
  143        3.551892   1.000000
  144        3.551892   1.000000
  145        3.670810   1.000000
  146        3.670810   1.000000
  147        3.670810   1.000000
  148        3.670810   1.000000
  149        3.670810   1.000000
  150        3.670810   1.000000
  151        3.709237   1.000000
  152        3.709237   1.000000
  153        3.709237   1.000000
  154        3.732925   1.000000
  155        3.732925   1.000000
  156        3.732925   1.000000
  157        3.732925   1.000000
  158        3.732925   1.000000
  159        3.732925   1.000000
  160        3.885737   1.000000
  161        3.885737   1.000000
  162        3.885737   1.000000
  163        3.885747   1.000000
  164        3.885747   1.000000
  165        3.885747   1.000000
  166        3.902595   1.000000
  167        3.902603   1.000000
  168        3.902603   1.000000
  169        4.093340   1.000000
  170        4.093340   1.000000
  171        4.093340   1.000000
  172        4.093348   1.000000
  173        4.093348   1.000000
  174        4.093348   1.000000
  175        4.232827   1.000000
  176        4.232827   1.000000
  177        4.232827   1.000000
  178        4.251299   1.000000
  179        4.251299   1.000000
  180        4.251299   1.000000
  181        4.284448   1.000000
  182        4.284448   1.000000
  183        4.284448   1.000000
  184        4.298992   1.000000
  185        4.298992   1.000000
  186        4.298992   1.000000
  187        4.298994   1.000000
  188        4.298994   1.000000
  189        4.298994   1.000000
  190        4.307342   1.000000
  191        4.307342   1.000000
  192        4.307342   1.000000
  193        4.431555   1.000000
  194        4.431555   1.000000
  195        4.431555   1.000000
  196        4.431556   1.000000
  197        4.431556   1.000000
  198        4.431556   1.000000
  199        4.452040   1.000000
  200        4.452040   1.000000
  201        4.452040   1.000000
  202        4.458446   1.000000
  203        4.458446   1.000000
  204        4.458446   1.000000
  205        4.458459   1.000000
  206        4.458459   1.000000
  207        4.458459   1.000000
  208        4.470498   1.000000
  209        4.470498   1.000000
  210        4.470498   1.000000
  211        4.470498   1.000000
  212        4.470498   1.000000
  213        4.470498   1.000000
  214        4.588711   1.000000
  215        4.588711   1.000000
  216        4.588711   1.000000
  217        4.613482   1.000000
  218        4.613485   1.000000
  219        4.613485   1.000000
  220        4.627335   1.000000
  221        4.627335   1.000000
  222        4.627335   1.000000
  223        4.717795   1.000000
  224        4.799240   1.000000
  225        4.799240   1.000000
  226        4.799240   1.000000
  227        4.799241   1.000000
  228        4.799241   1.000000
  229        4.799241   1.000000
  230        4.807087   1.000000
  231        4.807087   1.000000
  232        4.807088   1.000000
  233        4.807090   1.000000
  234        4.807090   1.000000
  235        4.807090   1.000000
  236        4.812912   1.000000
  237        4.812912   1.000000
  238        4.812913   1.000000
  239        4.949054   1.000000
  240        4.949054   1.000000
  241        4.949054   1.000000
  242        4.949067   1.000000
  243        4.949067   1.000000
  244        4.949067   1.000000
  245        5.043751   1.000000
  246        5.043751   1.000000
  247        5.043751   1.000000
  248        5.048848   1.000000
  249        5.048848   1.000000
  250        5.048867   1.000000
  251        5.053154   1.000000
  252        5.053154   1.000000
  253        5.053155   1.000000
  254        5.053155   1.000000
  255        5.053155   1.000000
  256        5.053155   1.000000
  257        5.078838   1.000000
  258        5.078838   1.000000
  259        5.078839   1.000000
  260        5.106388   1.000000
  261        5.106388   1.000000
  262        5.106388   1.000000
  263        5.106401   1.000000
  264        5.106401   1.000000
  265        5.106402   1.000000
  266        5.121456   1.000000
  267        5.149947   1.000000
  268        5.149947   1.000000
  269        5.149947   1.000000
  270        5.150071   1.000000
  271        5.150071   1.000000
  272        5.150071   1.000000
  273        5.171538   1.000000
  274        5.171538   1.000000
  275        5.189679   1.000000
  276        5.189679   1.000000
  277        5.206349   1.000000
  278        5.206349   1.000000
  279        5.206349   1.000000
  280        5.206355   1.000000
  281        5.206355   1.000000
  282        5.206355   1.000000
  283        5.222604   1.000000
  284        5.222607   1.000000
  285        5.222607   1.000000
  286        5.268492   1.000000
  287        5.268492   1.000000
  288        5.268518   1.000000
  289        5.270460   1.000000
  290        5.270487   1.000000
  291        5.270487   1.000000
  292        5.287867   1.000000
  293        5.287867   1.000000
  294        5.287867   1.000000
  295        5.287867   1.000000
  296        5.287867   1.000000
  297        5.287867   1.000000
  298        5.315528   1.000000
  299        5.315528   1.000000
  300        5.315528   1.000000
  301        5.346634   1.000000
  302        5.346634   1.000000
  303        5.346635   1.000000
  304        5.359342   1.000000
  305        5.359342   1.000000
  306        5.399923   1.000000
  307        5.399939   1.000000
  308        5.399939   1.000000
  309        5.401988   1.000000
  310        5.401988   1.000000
  311        5.401988   1.000000
  312        5.537014   1.000000
  313        5.553509   1.000000
  314        5.553509   1.000000
  315        5.553521   1.000000
  316        5.569776   1.000000
  317        5.569776   1.000000
  318        5.569776   1.000000
  319        5.577287   1.000000
  320        5.577288   1.000000
  321        5.577288   1.000000
  322        5.577295   1.000000
  323        5.577295   1.000000
  324        5.577296   1.000000
  325        5.579228   1.000000
  326        5.579228   1.000000
  327        5.579228   1.000000
  328        5.603777   1.000000
  329        5.603777   1.000000
  330        5.603777   1.000000
  331        5.719004   1.000000
  332        5.719004   1.000000
  333        5.719004   1.000000
  334        5.721928   1.000000
  335        5.721928   1.000000
  336        5.721928   1.000000
  337        5.728087   1.000000
  338        5.728087   1.000000
  339        5.728087   1.000000
  340        5.728088   1.000000
  341        5.728088   1.000000
  342        5.728088   1.000000
  343        5.745966   1.000000
  344        5.745966   1.000000
  345        5.745966   1.000000
  346        5.795630   1.000000
  347        5.795631   1.000000
  348        5.795631   1.000000
  349        5.795645   1.000000
  350        5.795645   1.000000
  351        5.795645   1.000000
  352        5.839884   1.000000
  353        5.839884   1.000000
  354        5.839884   1.000000
  355        5.877297   1.000000
  356        5.877297   1.000000
  357        5.877297   1.000000
  358        5.877299   1.000000
  359        5.877299   1.000000
  360        5.877299   1.000000
  361        5.909568   1.000000
  362        5.909568   1.000000
  363        5.909568   1.000000
  364        5.955627   1.000000
  365        5.955643   1.000000
  366        5.955643   1.000000
  367        6.056931   1.000003
  368        6.056931   1.000003
  369        6.056932   1.000003
  370        6.084420   1.000007
  371        6.084420   1.000007
  372        6.084420   1.000007
  373        6.218401   1.000339
  374        6.218401   1.000339
  375        6.218401   1.000339
  376        6.218522   1.000340
  377        6.218522   1.000340
  378        6.218522   1.000340
  379        6.219968   1.000353
  380        6.219968   1.000353
  381        6.219968   1.000353
  382        6.223263   1.000383
  383        6.223263   1.000383
  384        6.223263   1.000383
  385        6.224916   1.000399
  386        6.224916   1.000399
  387        6.224916   1.000399
  388        6.302148   1.002306
  389        6.302149   1.002306
  390        6.302149   1.002306
  391        6.404896   1.013478
  392        6.404896   1.013478
  393        6.404897   1.013478
  394        6.404900   1.013479
  395        6.404901   1.013479
  396        6.404901   1.013479
  397        6.472668   1.028252
  398        6.472668   1.028252
  399        6.472669   1.028252
  400        6.472669   1.028252
  401        6.472669   1.028252
  402        6.472669   1.028252
  403        6.596857   1.004958
  404        6.596857   1.004958
  405        6.596857   1.004958
  406        6.596858   1.004957
  407        6.596858   1.004957
  408        6.596858   1.004957
  409        6.616855   0.980689
  410        6.616855   0.980689
  411        6.616855   0.980689
  412        6.616855   0.980688
  413        6.616855   0.980688
  414        6.616855   0.980688
  415        6.662880   0.888907
  416        6.662880   0.888907
  417        6.662897   0.888865
  418        6.672530   0.862948
  419        6.672545   0.862906
  420        6.672545   0.862906
  421        6.691759   0.804504
  422        6.691759   0.804504
  423        6.777191   0.469406
  424        6.777191   0.469406
  425        6.777191   0.469406
  426        6.777211   0.469323
  427        6.777211   0.469323
  428        6.777211   0.469323
  429        6.849450   0.191283
  430        6.849451   0.191281
  431        6.849451   0.191281
  432        6.849452   0.191275
  433        6.849452   0.191275
  434        6.849453   0.191272
  435        6.858954   0.161595
  436        6.858954   0.161593
  437        6.858954   0.161593
  438        6.895383   0.068181
  439        6.895383   0.068181
  440        6.895383   0.068181
  441        7.006795  -0.035190
  442        7.006795  -0.035190
  443        7.006795  -0.035190
  444        7.006807  -0.035191
  445        7.006807  -0.035191
  446        7.006807  -0.035191
  447        7.017416  -0.035434
  448        7.017416  -0.035434
  449        7.017416  -0.035434
  450        7.021517  -0.035297
  451        7.021517  -0.035297
  452        7.045627  -0.032534
  453        7.045627  -0.032534
  454        7.045627  -0.032534
  455        7.045628  -0.032534
  456        7.045628  -0.032534
  457        7.045628  -0.032534
  458        7.071315  -0.027347
  459        7.071315  -0.027347
  460        7.071316  -0.027347
  461        7.071332  -0.027343
  462        7.071333  -0.027343
  463        7.071333  -0.027343
  464        7.109125  -0.018729
  465        7.109125  -0.018729
  466        7.109126  -0.018729
  467        7.121466  -0.016115
  468        7.121466  -0.016115
  469        7.121466  -0.016115
  470        7.183939  -0.006337
  471        7.183941  -0.006336
  472        7.183941  -0.006336
  473        7.203459  -0.004485
  474        7.203459  -0.004485
  475        7.203459  -0.004485
  476        7.231518  -0.002616
  477        7.231518  -0.002616
  478        7.231518  -0.002616
  479        7.236572  -0.002362
  480        7.236573  -0.002362
  481        7.236573  -0.002362
  482        7.294283  -0.000661
  483        7.294291  -0.000661
  484        7.294299  -0.000661
  485        7.332922  -0.000253
  486        7.332924  -0.000253
  487        7.332934  -0.000253
  488        7.332940  -0.000253
  489        7.332965  -0.000253
  490        7.332986  -0.000253
  491        7.365122  -0.000107
  492        7.365125  -0.000107
  493        7.365139  -0.000107
  494        7.365155  -0.000107
  495        7.365207  -0.000107
  496        7.365261  -0.000106
  497        7.427467  -0.000017
  498        7.427468  -0.000017
  499        7.427484  -0.000017
  500        7.427517  -0.000017
  501        7.427550  -0.000017
  502        7.427641  -0.000017
  503        7.445004  -0.000010
  504        7.445051  -0.000010
  505        7.447490  -0.000009
  506        7.447551  -0.000009
  507        7.447635  -0.000009
  508        7.536803  -0.000000
  509        7.537765  -0.000000
  510        7.538726  -0.000000
  511        7.539996  -0.000000
  512        7.540050  -0.000000
  513        7.540114  -0.000000
  514        7.540180  -0.000000
  515        7.540233  -0.000000
  516        7.543799  -0.000000
  517        7.551872  -0.000000
  518        7.568419  -0.000000
 
  0.3750000E+00  0.1250000E+00  0.1250000E+00  0.3750000E+00
    1       -1.745541   1.000000
    2       -1.362312   1.000000
    3       -0.634327   1.000000
    4       -0.634327   1.000000
    5       -0.289583   1.000000
    6       -0.289583   1.000000
    7        0.036320   1.000000
    8        0.036320   1.000000
    9        0.332360   1.000000
   10        0.356365   1.000000
   11        0.356365   1.000000
   12        0.578273   1.000000
   13        0.617436   1.000000
   14        0.903387   1.000000
   15        0.903387   1.000000
   16        1.078485   1.000000
   17        1.078485   1.000000
   18        1.308212   1.000000
   19        1.399336   1.000000
   20        1.470978   1.000000
   21        1.470978   1.000000
   22        1.475553   1.000000
   23        1.726762   1.000000
   24        1.867017   1.000000
   25        1.867021   1.000000
   26        1.882676   1.000000
   27        1.926480   1.000000
   28        1.926480   1.000000
   29        1.933711   1.000000
   30        1.948005   1.000000
   31        1.948005   1.000000
   32        1.990629   1.000000
   33        2.008837   1.000000
   34        2.008842   1.000000
   35        2.090490   1.000000
   36        2.094883   1.000000
   37        2.094883   1.000000
   38        2.118333   1.000000
   39        2.118333   1.000000
   40        2.124415   1.000000
   41        2.162479   1.000000
   42        2.162480   1.000000
   43        2.191230   1.000000
   44        2.191230   1.000000
   45        2.232236   1.000000
   46        2.232242   1.000000
   47        2.275035   1.000000
   48        2.275039   1.000000
   49        2.373918   1.000000
   50        2.373918   1.000000
   51        2.476208   1.000000
   52        2.476208   1.000000
   53        2.503702   1.000000
   54        2.503702   1.000000
   55        2.504794   1.000000
   56        2.504794   1.000000
   57        2.529461   1.000000
   58        2.529461   1.000000
   59        2.530943   1.000000
   60        2.530943   1.000000
   61        2.586957   1.000000
   62        2.586957   1.000000
   63        2.620143   1.000000
   64        2.620143   1.000000
   65        2.625208   1.000000
   66        2.625210   1.000000
   67        2.681262   1.000000
   68        2.681262   1.000000
   69        2.697834   1.000000
   70        2.710834   1.000000
   71        2.710835   1.000000
   72        2.735439   1.000000
   73        2.735441   1.000000
   74        2.752301   1.000000
   75        2.752307   1.000000
   76        2.753462   1.000000
   77        2.753466   1.000000
   78        2.798766   1.000000
   79        2.798766   1.000000
   80        2.800764   1.000000
   81        2.800765   1.000000
   82        2.844897   1.000000
   83        2.887033   1.000000
   84        2.887034   1.000000
   85        2.894836   1.000000
   86        2.894836   1.000000
   87        2.903968   1.000000
   88        2.903968   1.000000
   89        2.915281   1.000000
   90        2.915281   1.000000
   91        2.929638   1.000000
   92        2.950137   1.000000
   93        3.007896   1.000000
   94        3.007907   1.000000
   95        3.021087   1.000000
   96        3.021087   1.000000
   97        3.025064   1.000000
   98        3.025064   1.000000
   99        3.029177   1.000000
  100        3.029177   1.000000
  101        3.034751   1.000000
  102        3.099473   1.000000
  103        3.099473   1.000000
  104        3.127463   1.000000
  105        3.127463   1.000000
  106        3.197350   1.000000
  107        3.197350   1.000000
  108        3.206071   1.000000
  109        3.206071   1.000000
  110        3.222413   1.000000
  111        3.231383   1.000000
  112        3.231391   1.000000
  113        3.237067   1.000000
  114        3.237068   1.000000
  115        3.267718   1.000000
  116        3.267718   1.000000
  117        3.292328   1.000000
  118        3.292328   1.000000
  119        3.315584   1.000000
  120        3.315584   1.000000
  121        3.382359   1.000000
  122        3.382360   1.000000
  123        3.405311   1.000000
  124        3.405311   1.000000
  125        3.406090   1.000000
  126        3.406090   1.000000
  127        3.476082   1.000000
  128        3.498047   1.000000
  129        3.498047   1.000000
  130        3.499612   1.000000
  131        3.499612   1.000000
  132        3.506646   1.000000
  133        3.506647   1.000000
  134        3.538110   1.000000
  135        3.538110   1.000000
  136        3.545058   1.000000
  137        3.545063   1.000000
  138        3.570703   1.000000
  139        3.570703   1.000000
  140        3.612224   1.000000
  141        3.612224   1.000000
  142        3.615531   1.000000
  143        3.615531   1.000000
  144        3.621360   1.000000
  145        3.621361   1.000000
  146        3.628921   1.000000
  147        3.634988   1.000000
  148        3.695739   1.000000
  149        3.695743   1.000000
  150        3.756583   1.000000
  151        3.756583   1.000000
  152        3.777949   1.000000
  153        3.777949   1.000000
  154        3.805454   1.000000
  155        3.805454   1.000000
  156        3.819089   1.000000
  157        3.884992   1.000000
  158        3.884992   1.000000
  159        3.886836   1.000000
  160        3.886836   1.000000
  161        3.900457   1.000000
  162        3.900458   1.000000
  163        3.924030   1.000000
  164        3.924030   1.000000
  165        3.930536   1.000000
  166        3.930538   1.000000
  167        3.956569   1.000000
  168        3.981801   1.000000
  169        3.981801   1.000000
  170        4.008847   1.000000
  171        4.008850   1.000000
  172        4.027756   1.000000
  173        4.035039   1.000000
  174        4.035039   1.000000
  175        4.075923   1.000000
  176        4.075924   1.000000
  177        4.102940   1.000000
  178        4.102940   1.000000
  179        4.160317   1.000000
  180        4.160317   1.000000
  181        4.195533   1.000000
  182        4.195533   1.000000
  183        4.195780   1.000000
  184        4.195790   1.000000
  185        4.209988   1.000000
  186        4.209989   1.000000
  187        4.241424   1.000000
  188        4.241425   1.000000
  189        4.296220   1.000000
  190        4.296220   1.000000
  191        4.307844   1.000000
  192        4.307844   1.000000
  193        4.384324   1.000000
  194        4.384330   1.000000
  195        4.388869   1.000000
  196        4.411924   1.000000
  197        4.411924   1.000000
  198        4.453457   1.000000
  199        4.453459   1.000000
  200        4.456528   1.000000
  201        4.456528   1.000000
  202        4.457114   1.000000
  203        4.457114   1.000000
  204        4.501742   1.000000
  205        4.504469   1.000000
  206        4.504469   1.000000
  207        4.544664   1.000000
  208        4.544664   1.000000
  209        4.559155   1.000000
  210        4.559155   1.000000
  211        4.564743   1.000000
  212        4.581448   1.000000
  213        4.581448   1.000000
  214        4.596967   1.000000
  215        4.614435   1.000000
  216        4.614445   1.000000
  217        4.633275   1.000000
  218        4.633275   1.000000
  219        4.658669   1.000000
  220        4.658669   1.000000
  221        4.669115   1.000000
  222        4.671958   1.000000
  223        4.671958   1.000000
  224        4.714394   1.000000
  225        4.714399   1.000000
  226        4.768247   1.000000
  227        4.768248   1.000000
  228        4.791097   1.000000
  229        4.810210   1.000000
  230        4.844795   1.000000
  231        4.845845   1.000000
  232        4.845845   1.000000
  233        4.865738   1.000000
  234        4.865738   1.000000
  235        4.875406   1.000000
  236        4.875406   1.000000
  237        4.878000   1.000000
  238        4.878007   1.000000
  239        4.879477   1.000000
  240        4.879477   1.000000
  241        4.888867   1.000000
  242        4.904760   1.000000
  243        4.904760   1.000000
  244        4.928387   1.000000
  245        4.928387   1.000000
  246        4.930547   1.000000
  247        4.930547   1.000000
  248        4.937222   1.000000
  249        4.937222   1.000000
  250        4.973374   1.000000
  251        4.973387   1.000000
  252        4.990008   1.000000
  253        4.990008   1.000000
  254        5.009508   1.000000
  255        5.009520   1.000000
  256        5.016732   1.000000
  257        5.016732   1.000000
  258        5.029659   1.000000
  259        5.041554   1.000000
  260        5.041557   1.000000
  261        5.060560   1.000000
  262        5.063745   1.000000
  263        5.077953   1.000000
  264        5.084506   1.000000
  265        5.084506   1.000000
  266        5.085186   1.000000
  267        5.119523   1.000000
  268        5.134110   1.000000
  269        5.173884   1.000000
  270        5.179013   1.000000
  271        5.179027   1.000000
  272        5.185256   1.000000
  273        5.206297   1.000000
  274        5.209196   1.000000
  275        5.209196   1.000000
  276        5.236537   1.000000
  277        5.240705   1.000000
  278        5.247028   1.000000
  279        5.247028   1.000000
  280        5.248225   1.000000
  281        5.248226   1.000000
  282        5.256967   1.000000
  283        5.265157   1.000000
  284        5.265158   1.000000
  285        5.292388   1.000000
  286        5.292389   1.000000
  287        5.293446   1.000000
  288        5.293446   1.000000
  289        5.306668   1.000000
  290        5.306669   1.000000
  291        5.307797   1.000000
  292        5.307813   1.000000
  293        5.374484   1.000000
  294        5.375738   1.000000
  295        5.375738   1.000000
  296        5.377646   1.000000
  297        5.393329   1.000000
  298        5.401532   1.000000
  299        5.404514   1.000000
  300        5.412290   1.000000
  301        5.412290   1.000000
  302        5.413445   1.000000
  303        5.413446   1.000000
  304        5.423590   1.000000
  305        5.436886   1.000000
  306        5.436894   1.000000
  307        5.437397   1.000000
  308        5.437397   1.000000
  309        5.439194   1.000000
  310        5.461153   1.000000
  311        5.461153   1.000000
  312        5.465776   1.000000
  313        5.465777   1.000000
  314        5.498848   1.000000
  315        5.498848   1.000000
  316        5.499909   1.000000
  317        5.499909   1.000000
  318        5.508045   1.000000
  319        5.508045   1.000000
  320        5.519799   1.000000
  321        5.519799   1.000000
  322        5.531016   1.000000
  323        5.543613   1.000000
  324        5.543613   1.000000
  325        5.571054   1.000000
  326        5.571054   1.000000
  327        5.574175   1.000000
  328        5.583890   1.000000
  329        5.583890   1.000000
  330        5.622600   1.000000
  331        5.622600   1.000000
  332        5.632613   1.000000
  333        5.632614   1.000000
  334        5.640990   1.000000
  335        5.647957   1.000000
  336        5.647966   1.000000
  337        5.660557   1.000000
  338        5.660558   1.000000
  339        5.701286   1.000000
  340        5.703972   1.000000
  341        5.703990   1.000000
  342        5.727422   1.000000
  343        5.750045   1.000000
  344        5.802031   1.000000
  345        5.803197   1.000000
  346        5.803205   1.000000
  347        5.822732   1.000000
  348        5.822736   1.000000
  349        5.831030   1.000000
  350        5.831030   1.000000
  351        5.842984   1.000000
  352        5.842984   1.000000
  353        5.850490   1.000000
  354        5.944180   1.000000
  355        5.944180   1.000000
  356        5.983214   1.000000
  357        5.983214   1.000000
  358        6.046822   1.000002
  359        6.046823   1.000002
  360        6.058933   1.000003
  361        6.058933   1.000003
  362        6.070032   1.000004
  363        6.070032   1.000004
  364        6.100917   1.000012
  365        6.100918   1.000012
  366        6.107391   1.000015
  367        6.117868   1.000020
  368        6.117869   1.000020
  369        6.150578   1.000054
  370        6.165638   1.000083
  371        6.165638   1.000083
  372        6.195910   1.000189
  373        6.195910   1.000189
  374        6.197923   1.000200
  375        6.197931   1.000200
  376        6.220316   1.000356
  377        6.236576   1.000532
  378        6.236577   1.000532
  379        6.245854   1.000665
  380        6.245854   1.000665
  381        6.246851   1.000681