 running on    8 total cores
 distrk:  each k-point on    8 cores,    1 groups
 distr:  one band on    4 cores,    2 groups
 using from now: INCAR     
 vasp.5.4.4.18Apr17-6-g9f103f2a35 (build Aug 17 2017 06:00:38) complex          
  
 POSCAR found type information on POSCAR  Fe
 POSCAR found :  1 types and     108 ions
 scaLAPACK will be used
 LDA part: xc-table for Pade appr. of Perdew
 POSCAR, INCAR and KPOINTS ok, starting setup
 FFT: planning ...
 WAVECAR not read
 entering main loop
       N       E                     dE             d eps       ncg     rms          rms(c)
DAV:   1     0.843408924742E+04    0.84341E+04   -0.33547E+05  4144   0.217E+03
DAV:   2     0.126986587491E+03   -0.83071E+04   -0.81461E+04  4144   0.493E+02
DAV:   3    -0.831802726112E+03   -0.95879E+03   -0.81949E+03  4144   0.214E+02
DAV:   4    -0.102783367766E+04   -0.19603E+03   -0.18410E+03  7512   0.619E+01
DAV:   5    -0.104509219762E+04   -0.17259E+02   -0.16320E+02  6704   0.237E+01    0.935E+01
RMM:   6    -0.877351966515E+03    0.16774E+03   -0.13543E+03  4144   0.111E+02    0.888E+00
RMM:   7    -0.880236273131E+03   -0.28843E+01   -0.11046E+02  4534   0.237E+01    0.339E+00
RMM:   8    -0.879308263180E+03    0.92801E+00   -0.13060E+01  4424   0.103E+01    0.383E+00
RMM:   9    -0.879686229796E+03   -0.37797E+00   -0.47149E+00  5782   0.196E+00    0.426E+00
RMM:  10    -0.879484549365E+03    0.20168E+00   -0.10458E+00  4925   0.170E+00    0.957E-01
RMM:  11    -0.879488454651E+03   -0.39053E-02   -0.22383E-01  5031   0.783E-01    0.467E-01
RMM:  12    -0.879489616563E+03   -0.11619E-02   -0.64539E-02  5238   0.345E-01    0.132E-01
RMM:  13    -0.879490174822E+03   -0.55826E-03   -0.99794E-03  6166   0.763E-02    0.419E-02
RMM:  14    -0.879490147605E+03    0.27217E-04   -0.18039E-04  5849   0.246E-02    0.497E-02
RMM:  15    -0.879490059436E+03    0.88169E-04    0.28795E-04  4718   0.204E-02    0.981E-03
RMM:  16    -0.879490011996E+03    0.47440E-04    0.26582E-04  5285   0.116E-02    0.825E-03
RMM:  17    -0.879489979022E+03    0.32973E-04    0.34706E-04  4599   0.670E-03    0.232E-03
RMM:  18    -0.879489959231E+03    0.19792E-04    0.17421E-04  2961   0.168E-03    0.712E-04
RMM:  19    -0.879489944353E+03    0.14877E-04    0.13985E-04  2681   0.189E-03    0.120E-03
RMM:  20    -0.879489928731E+03    0.15623E-04    0.14419E-04  2614   0.172E-03    0.120E-04
RMM:  21    -0.879489908768E+03    0.19962E-04    0.18113E-04  2544   0.130E-03    0.660E-04
RMM:  22    -0.879489897786E+03    0.10982E-04    0.97688E-05  2468   0.137E-03    0.218E-04
RMM:  23    -0.879489889578E+03    0.82077E-05    0.78216E-05  2377   0.957E-04    0.323E-04
RMM:  24    -0.879489882288E+03    0.72901E-05    0.69465E-05  2210   0.923E-04    0.149E-04
RMM:  25    -0.879489872621E+03    0.96675E-05    0.89847E-05  2116   0.743E-04    0.216E-04
RMM:  26    -0.879489865726E+03    0.68943E-05    0.62651E-05  1674   0.625E-04    0.175E-05
RMM:  27    -0.879489860097E+03    0.56297E-05    0.53580E-05  1547   0.560E-04    0.165E-04
RMM:  28    -0.879489855075E+03    0.50214E-05    0.48363E-05  1420   0.507E-04    0.691E-05
RMM:  29    -0.879489850497E+03    0.45784E-05    0.44384E-05  1253   0.465E-04    0.165E-04
RMM:  30    -0.879489846265E+03    0.42317E-05    0.41199E-05  1193   0.437E-04    0.915E-05
RMM:  31    -0.879489842362E+03    0.39029E-05    0.38164E-05  1061   0.408E-04    0.153E-04
RMM:  32    -0.879489838733E+03    0.36291E-05    0.35443E-05  1009   0.388E-04    0.111E-04
RMM:  33    -0.879489835378E+03    0.33548E-05    0.32790E-05   946   0.373E-04    0.151E-04
RMM:  34    -0.879489832279E+03    0.30990E-05    0.30381E-05   917   0.360E-04    0.119E-04
RMM:  35    -0.879489829418E+03    0.28615E-05    0.28041E-05   840   0.348E-04    0.145E-04
RMM:  36    -0.879489826780E+03    0.26382E-05    0.25912E-05   806   0.337E-04    0.133E-04
RMM:  37    -0.879489824347E+03    0.24332E-05    0.23854E-05   872   0.334E-04    0.133E-04
RMM:  38    -0.879489822110E+03    0.22362E-05    0.21982E-05   744   0.322E-04    0.129E-04
RMM:  39    -0.879489820059E+03    0.20512E-05    0.20195E-05   731   0.316E-04    0.139E-04
RMM:  40    -0.879489818171E+03    0.18883E-05    0.18562E-05   711   0.312E-04    0.134E-04
RMM:  41    -0.879489816447E+03    0.17238E-05    0.17019E-05   687   0.306E-04    0.149E-04
RMM:  42    -0.879489814867E+03    0.15804E-05    0.15608E-05   753   0.303E-04    0.165E-04
RMM:  43    -0.879489813417E+03    0.14496E-05    0.14290E-05   644   0.294E-04    0.160E-04
RMM:  44    -0.879489812089E+03    0.13286E-05    0.13083E-05   609   0.292E-04    0.157E-04
RMM:  45    -0.879489810877E+03    0.12112E-05    0.11961E-05   597   0.290E-04    0.161E-04
RMM:  46    -0.879489809771E+03    0.11059E-05    0.10934E-05   591   0.293E-04    0.152E-04
RMM:  47    -0.879489808762E+03    0.10097E-05    0.99826E-06   730   0.298E-04    0.130E-04
RMM:  48    -0.879489807841E+03    0.92082E-06    0.91172E-06   609   0.285E-04
   1 F= -.87948981E+03 E0= -.87946597E+03  d E =-.879490E+03
 curvature:   0.00 expect dE= 0.000E+00 dE for cont linesearch  0.000E+00
 trial: gam= 0.00000 g(F)=  0.376E-37 g(S)=  0.401E-01 ort = 0.000E+00 (trialstep = 0.100E+01)
 search vector abs. value=  0.401E-01
 bond charge predicted
       N       E                     dE             d eps       ncg     rms          rms(c)
DAV:   1    -0.879914317763E+03   -0.42451E+00   -0.11197E+01  4728   0.105E+01    0.500E+00
RMM:   2    -0.879492274769E+03    0.42204E+00   -0.37038E+00  4152   0.524E+00    0.616E-01
RMM:   3    -0.879489239687E+03    0.30351E-02   -0.29189E-01  4596   0.970E-01    0.492E-01
RMM:   4    -0.879483133274E+03    0.61064E-02   -0.12243E-01  4144   0.114E+00    0.486E-01
RMM:   5    -0.879486539396E+03   -0.34061E-02   -0.24120E-02  4183   0.398E-01    0.114E+00
RMM:   6    -0.879479937841E+03    0.66016E-02   -0.16069E-02  4166   0.347E-01    0.963E-02
RMM:   7    -0.879479934209E+03    0.36316E-05   -0.24854E-03  5384   0.593E-02    0.944E-02
RMM:   8    -0.879479859944E+03    0.74265E-04   -0.24748E-04  4198   0.421E-02    0.547E-02
RMM:   9    -0.879479865438E+03   -0.54940E-05   -0.35153E-04  4196   0.453E-02    0.757E-03
RMM:  10    -0.879479872856E+03   -0.74181E-05   -0.62296E-05  4961   0.706E-03    0.752E-03
RMM:  11    -0.879479868678E+03    0.41780E-05   -0.14333E-06  2379   0.398E-03    0.393E-03
RMM:  12    -0.879479869407E+03   -0.72870E-06   -0.91263E-07  2256   0.271E-03
   2 F= -.87947987E+03 E0= -.87945769E+03  d E =0.993843E-02
 trial-energy change:    0.009938  1 .order    0.010274   -0.040075    0.060624
 step:   0.4028(harm=  0.3980)  dis= 0.00000  next Energy=  -879.497901 (dE=-0.809E-02)
 bond charge predicted
       N       E                     dE             d eps       ncg     rms          rms(c)
DAV:   1    -0.879650781852E+03   -0.17091E+00   -0.39683E+00  4616   0.624E+00    0.296E+00
RMM:   2    -0.879501392399E+03    0.14939E+00   -0.12917E+00  4153   0.311E+00    0.368E-01
RMM:   3    -0.879501183661E+03    0.20874E-03   -0.10510E-01  4595   0.572E-01    0.290E-01
RMM:   4    -0.879499350920E+03    0.18327E-02   -0.40512E-02  4144   0.654E-01    0.401E-01
RMM:   5    -0.879499624825E+03   -0.27390E-03   -0.51632E-03  4279   0.164E-01    0.452E-01
RMM:   6    -0.879497915327E+03    0.17095E-02   -0.11027E-02  4163   0.283E-01    0.469E-02
RMM:   7    -0.879497980161E+03   -0.64834E-04   -0.13261E-03  4841   0.386E-02    0.694E-02
RMM:   8    -0.879497884673E+03    0.95488E-04   -0.23608E-04  4157   0.462E-02    0.318E-02
RMM:   9    -0.879497840644E+03    0.44029E-04   -0.12840E-04  4223   0.254E-02    0.383E-03
RMM:  10    -0.879497845042E+03   -0.43977E-05   -0.19992E-05  4005   0.419E-03    0.263E-03
RMM:  11    -0.879497844895E+03    0.14670E-06   -0.95890E-07  2234   0.254E-03
   3 F= -.87949784E+03 E0= -.87947471E+03  d E =-.803705E-02
 curvature:  -0.20 expect dE=-0.148E-04 dE for cont linesearch -0.148E-04
 trial: gam= 0.00000 g(F)=  0.301E-37 g(S)=  0.745E-04 ort =-0.173E-02 (trialstep = 0.881E+00)
 search vector abs. value=  0.745E-04
 reached required accuracy - stopping structural energy minimisation
