 vasp.5.4.4.18Apr17-6-g9f103f2a35 (build Aug 17 2017 06:00:38) complex          
  
 executed on             LinuxIFC date 2019.07.12  14:47:01
 running on    8 total cores
 distrk:  each k-point on    8 cores,    1 groups
 distr:  one band on NCORES_PER_BAND=   4 cores,    2 groups


--------------------------------------------------------------------------------------------------------


 INCAR:
 POTCAR:   PAW_PBE Fe 06Sep2000                   
 POTCAR:   PAW_PBE Fe 06Sep2000                   
   VRHFIN =Fe:  d7 s1                                                           
   LEXCH  = PE                                                                  
   EATOM  =   594.4687 eV,   43.6922 Ry                                         
                                                                                
   TITEL  = PAW_PBE Fe 06Sep2000                                                
   LULTRA =        F    use ultrasoft PP ?                                      
   IUNSCR =        1    unscreen: 0-lin 1-nonlin 2-no                           
   RPACOR =    2.000    partial core radius                                     
   POMASS =   55.847; ZVAL   =    8.000    mass and valenz                      
   RCORE  =    2.300    outmost cutoff radius                                   
   RWIGS  =    2.460; RWIGS  =    1.302    wigner-seitz radius (au A)           
   ENMAX  =  267.883; ENMIN  =  200.912 eV                                      
   RCLOC  =    1.701    cutoff for local pot                                    
   LCOR   =        T    correct aug charges                                     
   LPAW   =        T    paw PP                                                  
   EAUG   =  511.368                                                            
   DEXC   =    -.022                                                            
   RMAX   =    2.817    core radius for proj-oper                               
   RAUG   =    1.300    factor for augmentation sphere                          
   RDEP   =    2.442    radius for radial grids                                 
   QCUT   =   -4.437; QGAM   =    8.874    optimization parameters              
                                                                                
   Description                                                                  
     l     E      TYP  RCUT    TYP  RCUT                                        
     2   .000     23  2.300                                                     
     2   .000     23  2.300                                                     
     0   .000     23  2.300                                                     
     0   .000     23  2.300                                                     
     1  -.200     23  2.300                                                     
     1   .000     23  2.300                                                     
     3   .000      7   .000                                                     
  local pseudopotential read in
  partial core-charges read in
  atomic valenz-charges read in
  non local Contribution for L=           2  read in
    real space projection operators read in
  non local Contribution for L=           2  read in
    real space projection operators read in
  non local Contribution for L=           0  read in
    real space projection operators read in
  non local Contribution for L=           0  read in
    real space projection operators read in
  non local Contribution for L=           1  read in
    real space projection operators read in
  non local Contribution for L=           1  read in
    real space projection operators read in
    PAW grid and wavefunctions read in
 
   number of l-projection  operators is LMAX  =           6
   number of lm-projection operators is LMMAX =          18
 
 Optimization of the real space projectors (new method)

 maximal supplied QI-value         = 16.25
 optimisation between [QCUT,QGAM] = [ 11.38, 22.75] = [ 36.24,144.96] Ry 
 Optimized for a Real-space Cutoff    1.39 Angstroem

   l    n(q)    QCUT    max X(q) W(low)/X(q) W(high)/X(q)  e(spline) 
   2      8    11.376     4.378    0.35E-04    0.16E-04    0.33E-07
   2      8    11.376    23.237    0.45E-03    0.45E-04    0.22E-06
   0      9    11.376    17.641    0.12E-04    0.85E-05    0.14E-07
   0      9    11.376    50.908    0.59E-04    0.86E-04    0.16E-06
   1      9    11.376     6.148    0.76E-04    0.97E-05    0.29E-07
   1      9    11.376     8.345    0.31E-03    0.90E-04    0.12E-06
 PAW_PBE Fe 06Sep2000                   :
 energy of atom  1       EATOM= -594.4687
 kinetic energy error for atom=    0.0026 (will be added to EATOM!!)
 
 
 POSCAR: fcc_Fe_CON_333                          
  positions in direct lattice
  velocities in cartesian coordinates
 exchange correlation table for  LEXCH =        8
   RHO(1)=    0.500       N(1)  =     2000
   RHO(2)=  100.500       N(2)  =     4000
 


--------------------------------------------------------------------------------------------------------


 ion  position               nearest neighbor table
   1  0.000  0.000  0.000-   2 2.44   3 2.44   4 2.44  11 2.44  12 2.44  26 2.44  28 2.44  74 2.44
                            75 2.44  36 2.44  83 2.44  98 2.44
   2  0.000  0.167  0.167-  49 2.44  37 2.44  13 2.44  40 2.44  15 2.44  48 2.44  23 2.44   3 2.44
                             4 2.44   1 2.44  12 2.44  11 2.44
   3  0.167  0.000  0.167-  41 2.44  37 2.44   5 2.44  40 2.44   6 2.44  30 2.44  64 2.44   2 2.44
                             4 2.44   1 2.44  28 2.44  26 2.44
   4  0.167  0.167  0.000-  17 2.44  13 2.44   5 2.44  15 2.44   6 2.44  78 2.44  87 2.44   2 2.44
                             3 2.44   1 2.44  74 2.44  75 2.44
   5  0.333  0.000  0.000-   3 2.44   4 2.44  28 2.44  75 2.44   6 2.44   7 2.44   8 2.44  30 2.44
                            78 2.44  32 2.44  79 2.44 102 2.44
   6  0.333  0.167  0.167-  15 2.44  40 2.44  53 2.44  17 2.44  19 2.44   4 2.44  41 2.44  44 2.44
                             3 2.44   7 2.44   8 2.44   5 2.44
   7  0.500  0.000  0.167-  41 2.44  44 2.44  45 2.44  68 2.44   6 2.44   5 2.44   8 2.44  10 2.44
                            30 2.44   9 2.44  32 2.44  34 2.44
   8  0.500  0.167  0.000-  17 2.44  19 2.44  21 2.44  91 2.44   6 2.44   5 2.44   7 2.44  78 2.44
                            10 2.44  79 2.44   9 2.44  82 2.44
   9  0.667  0.000  0.000-  11 2.44  12 2.44  36 2.44  83 2.44  10 2.44  82 2.44  34 2.44   8 2.44
                             7 2.44 106 2.44  79 2.44  32 2.44
  10  0.667  0.167  0.167-  23 2.44  48 2.44  57 2.44  12 2.44  11 2.44  21 2.44  45 2.44  44 2.44
                            19 2.44   9 2.44   7 2.44   8 2.44
  11  0.833  0.000  0.167-  45 2.44   9 2.44  10 2.44  34 2.44  48 2.44  37 2.44  72 2.44  12 2.44
                             2 2.44  36 2.44   1 2.44  26 2.44
  12  0.833  0.167  0.000-  21 2.44   9 2.44  10 2.44  82 2.44  23 2.44  13 2.44  95 2.44  11 2.44
                             1 2.44  83 2.44   2 2.44  74 2.44
  13  0.000  0.333  0.000-   2 2.44   4 2.44  12 2.44  74 2.44  15 2.44  16 2.44  14 2.44  23 2.44
                            87 2.44  86 2.44  24 2.44  95 2.44
  14  0.000  0.500  0.167-  49 2.44  52 2.44  60 2.44  61 2.44  15 2.44  13 2.44  16 2.44  23 2.44
                            27 2.44  25 2.44  24 2.44  35 2.44
  15  0.167  0.333  0.167-   6 2.44  40 2.44  53 2.44  17 2.44  18 2.44   4 2.44  49 2.44  52 2.44
                             2 2.44  13 2.44  14 2.44  16 2.44
  16  0.167  0.500  0.000-  17 2.44  18 2.44  29 2.44  90 2.44  15 2.44  14 2.44  13 2.44  87 2.44
                            27 2.44  25 2.44  86 2.44  99 2.44
  17  0.333  0.333  0.000-   4 2.44   8 2.44  16 2.44  15 2.44   6 2.44  78 2.44  87 2.44  20 2.44
                            18 2.44  19 2.44  90 2.44  91 2.44
  18  0.333  0.500  0.167-  52 2.44  16 2.44  56 2.44  53 2.44  15 2.44  27 2.44  65 2.44  20 2.44
                            17 2.44  19 2.44  29 2.44  31 2.44
  19  0.500  0.333  0.167-  44 2.44   8 2.44  56 2.44  53 2.44   6 2.44  10 2.44  57 2.44  18 2.44
                            20 2.44  17 2.44  21 2.44  22 2.44
  20  0.500  0.500  0.000-  17 2.44  18 2.44  19 2.44  21 2.44  22 2.44  29 2.44  31 2.44  90 2.44
                            91 2.44  33 2.44  94 2.44 103 2.44
  21  0.667  0.333  0.000-  12 2.44  24 2.44  23 2.44  95 2.44  10 2.44   8 2.44  82 2.44  22 2.44
                            20 2.44  94 2.44  19 2.44  91 2.44
  22  0.667  0.500  0.167-  60 2.44  24 2.44  23 2.44  35 2.44  57 2.44  56 2.44  69 2.44  21 2.44
                            33 2.44  20 2.44  19 2.44  31 2.44
  23  0.833  0.333  0.167-  10 2.44  57 2.44  48 2.44  21 2.44  22 2.44  12 2.44  60 2.44   2 2.44
                            49 2.44  24 2.44  14 2.44  13 2.44
  24  0.833  0.500  0.000-  21 2.44  22 2.44  33 2.44  94 2.44  23 2.44  35 2.44  95 2.44  14 2.44
                            13 2.44 107 2.44  86 2.44  25 2.44
  25  0.000  0.667  0.000-  26 2.44  28 2.44  36 2.44  98 2.44  27 2.44  35 2.44  99 2.44  16 2.44
                            14 2.44 107 2.44  86 2.44  24 2.44
  26  0.000  0.833  0.167-  61 2.44  25 2.44  27 2.44  35 2.44  64 2.44  37 2.44  72 2.44  28 2.44
                             3 2.44  36 2.44   1 2.44  11 2.44
  27  0.167  0.667  0.167-  30 2.44  64 2.44  65 2.44  28 2.44  26 2.44  29 2.44  61 2.44  52 2.44
                            18 2.44  25 2.44  14 2.44  16 2.44
  28  0.167  0.833  0.000-  29 2.44  25 2.44  27 2.44  99 2.44  30 2.44   5 2.44 102 2.44  26 2.44
                            98 2.44   1 2.44   3 2.44  75 2.44
  29  0.333  0.667  0.000-  28 2.44  32 2.44  30 2.44 102 2.44  27 2.44  16 2.44  99 2.44  31 2.44
                            20 2.44  18 2.44 103 2.44  90 2.44
  30  0.333  0.833  0.167-  27 2.44  65 2.44  64 2.44  29 2.44  31 2.44  28 2.44  68 2.44  41 2.44
                             3 2.44  32 2.44   7 2.44   5 2.44
  31  0.500  0.667  0.167-  68 2.44  32 2.44  30 2.44  34 2.44  65 2.44  56 2.44  69 2.44  29 2.44
                            33 2.44  20 2.44  18 2.44  22 2.44
  32  0.500  0.833  0.000-  29 2.44  31 2.44  33 2.44 103 2.44  30 2.44 102 2.44  34 2.44   7 2.44
                             5 2.44 106 2.44  79 2.44   9 2.44
  33  0.667  0.667  0.000-  36 2.44  35 2.44  34 2.44  32 2.44  24 2.44 106 2.44 107 2.44  22 2.44
                            31 2.44 103 2.44  20 2.44  94 2.44
  34  0.667  0.833  0.167-  35 2.44  69 2.44  72 2.44  33 2.44  36 2.44  31 2.44  11 2.44  45 2.44
                            68 2.44  32 2.44   9 2.44   7 2.44
  35  0.833  0.667  0.167-  34 2.44  69 2.44  72 2.44  33 2.44  36 2.44  26 2.44  22 2.44  60 2.44
                            61 2.44  24 2.44  25 2.44  14 2.44
  36  0.833  0.833  0.000-  33 2.44  34 2.44  35 2.44  25 2.44   9 2.44 106 2.44 107 2.44  26 2.44
                            11 2.44  98 2.44   1 2.44  83 2.44
  37  0.000  0.000  0.333-   2 2.44   3 2.44  11 2.44  26 2.44  40 2.44  39 2.44  38 2.44  48 2.44
                            64 2.44  62 2.44  47 2.44  72 2.44
  38  0.000  0.167  0.500-  49 2.44  51 2.44  59 2.44  85 2.44  40 2.44  39 2.44  37 2.44  76 2.44
                            48 2.44  47 2.44  73 2.44  84 2.44
  39  0.167  0.000  0.500-  41 2.44  42 2.44  66 2.44  77 2.44  40 2.44  38 2.44  37 2.44  76 2.44
                            64 2.44  62 2.44  73 2.44 100 2.44
  40  0.167  0.167  0.333-   6 2.44  15 2.44  53 2.44   3 2.44  41 2.44  42 2.44  49 2.44  51 2.44
                             2 2.44  39 2.44  37 2.44  38 2.44
  41  0.333  0.000  0.333-   3 2.44   7 2.44  39 2.44   6 2.44  40 2.44  30 2.44  64 2.44  43 2.44
                            44 2.44  42 2.44  66 2.44  68 2.44
  42  0.333  0.167  0.500-  51 2.44  39 2.44  55 2.44  53 2.44  40 2.44  76 2.44  89 2.44  44 2.44
                            41 2.44  43 2.44  80 2.44  77 2.44
  43  0.500  0.000  0.500-  41 2.44  42 2.44  44 2.44  45 2.44  46 2.44  66 2.44  68 2.44  77 2.44
                            80 2.44  70 2.44  81 2.44 104 2.44
  44  0.500  0.167  0.333-  19 2.44   7 2.44  55 2.44  53 2.44   6 2.44  10 2.44  57 2.44  41 2.44
                            42 2.44  43 2.44  46 2.44  45 2.44
  45  0.667  0.000  0.333-  11 2.44  47 2.44  48 2.44  72 2.44  10 2.44   7 2.44  34 2.44  46 2.44
                            43 2.44  70 2.44  44 2.44  68 2.44
  46  0.667  0.167  0.500-  59 2.44  47 2.44  48 2.44  84 2.44  57 2.44  55 2.44  93 2.44  45 2.44
                            81 2.44  43 2.44  44 2.44  80 2.44
  47  0.833  0.000  0.500-  45 2.44  46 2.44  70 2.44  81 2.44  48 2.44  72 2.44  84 2.44  38 2.44
                            37 2.44 108 2.44  73 2.44  62 2.44
  48  0.833  0.167  0.333-  10 2.44  57 2.44  23 2.44  46 2.44  45 2.44  11 2.44  59 2.44   2 2.44
                            49 2.44  47 2.44  37 2.44  38 2.44
  49  0.000  0.333  0.333-   2 2.44  14 2.44  38 2.44  15 2.44  40 2.44  23 2.44  48 2.44  50 2.44
                            51 2.44  52 2.44  59 2.44  60 2.44
  50  0.000  0.500  0.500-  49 2.44  51 2.44  52 2.44  59 2.44  60 2.44  61 2.44  63 2.44  85 2.44
                            88 2.44  71 2.44  96 2.44  97 2.44
  51  0.167  0.333  0.500-  42 2.44  38 2.44  54 2.44  53 2.44  40 2.44  76 2.44  89 2.44  50 2.44
                            52 2.44  49 2.44  88 2.44  85 2.44
  52  0.167  0.500  0.333-  18 2.44  14 2.44  54 2.44  53 2.44  15 2.44  27 2.44  65 2.44  49 2.44
                            50 2.44  51 2.44  63 2.44  61 2.44
  53  0.333  0.333  0.333-   6 2.44  15 2.44  40 2.44  19 2.44  18 2.44  42 2.44  44 2.44  51 2.44
                            52 2.44  54 2.44  55 2.44  56 2.44
  54  0.333  0.500  0.500-  51 2.44  52 2.44  63 2.44  88 2.44  53 2.44  55 2.44  56 2.44  65 2.44
                            89 2.44  67 2.44  92 2.44 101 2.44
  55  0.500  0.333  0.500-  42 2.44  44 2.44  46 2.44  80 2.44  53 2.44  56 2.44  54 2.44  57 2.44
                            89 2.44  58 2.44  92 2.44  93 2.44
  56  0.500  0.500  0.333-  18 2.44  19 2.44  22 2.44  31 2.44  53 2.44  54 2.44  55 2.44  57 2.44
                            65 2.44  58 2.44  67 2.44  69 2.44
  57  0.667  0.333  0.333-  23 2.44  48 2.44  10 2.44  59 2.44  60 2.44  46 2.44  22 2.44  19 2.44
                            44 2.44  58 2.44  56 2.44  55 2.44
  58  0.667  0.500  0.500-  59 2.44  60 2.44  71 2.44  96 2.44  57 2.44  93 2.44  69 2.44  56 2.44
                            55 2.44 105 2.44  92 2.44  67 2.44
  59  0.833  0.333  0.500-  46 2.44  58 2.44  57 2.44  93 2.44  48 2.44  38 2.44  84 2.44  60 2.44
                            50 2.44  49 2.44  96 2.44  85 2.44
  60  0.833  0.500  0.333-  22 2.44  58 2.44  57 2.44  69 2.44  23 2.44  14 2.44  35 2.44  59 2.44
                            49 2.44  50 2.44  71 2.44  61 2.44
  61  0.000  0.667  0.333-  26 2.44  62 2.44  64 2.44  72 2.44  27 2.44  14 2.44  35 2.44  63 2.44
                            50 2.44  71 2.44  52 2.44  60 2.44
  62  0.000  0.833  0.500-  61 2.44  63 2.44  71 2.44  97 2.44  64 2.44  72 2.44 100 2.44  39 2.44
                            37 2.44 108 2.44  73 2.44  47 2.44
  63  0.167  0.667  0.500-  66 2.44  62 2.44  64 2.44 100 2.44  65 2.44  54 2.44 101 2.44  61 2.44
                            97 2.44  50 2.44  52 2.44  88 2.44
  64  0.167  0.833  0.333-  27 2.44  65 2.44  30 2.44  63 2.44  61 2.44  26 2.44  66 2.44   3 2.44
                            41 2.44  62 2.44  37 2.44  39 2.44
  65  0.333  0.667  0.333-  30 2.44  64 2.44  27 2.44  66 2.44  68 2.44  63 2.44  31 2.44  18 2.44
                            52 2.44  67 2.44  56 2.44  54 2.44
  66  0.333  0.833  0.500-  63 2.44  67 2.44  65 2.44 101 2.44  64 2.44  39 2.44 100 2.44  68 2.44
                            43 2.44  41 2.44 104 2.44  77 2.44
  67  0.500  0.667  0.500-  66 2.44  68 2.44  70 2.44 104 2.44  65 2.44 101 2.44  69 2.44  56 2.44
                            54 2.44 105 2.44  92 2.44  58 2.44
  68  0.500  0.833  0.333-  31 2.44  67 2.44  65 2.44  69 2.44  30 2.44   7 2.44  34 2.44  66 2.44
                            41 2.44  43 2.44  70 2.44  45 2.44
  69  0.667  0.667  0.333-  72 2.44  35 2.44  34 2.44  71 2.44  70 2.44  68 2.44  60 2.44  31 2.44
                            22 2.44  58 2.44  67 2.44  56 2.44
  70  0.667  0.833  0.500-  71 2.44  69 2.44  72 2.44  67 2.44  47 2.44 105 2.44 108 2.44  68 2.44
                            45 2.44 104 2.44  43 2.44  81 2.44
  71  0.833  0.667  0.500-  70 2.44  69 2.44  72 2.44  62 2.44  58 2.44 105 2.44 108 2.44  60 2.44
                            61 2.44  97 2.44  50 2.44  96 2.44
  72  0.833  0.833  0.333-  69 2.44  35 2.44  34 2.44  70 2.44  71 2.44  61 2.44  45 2.44  26 2.44
                            11 2.44  62 2.44  47 2.44  37 2.44
  73  0.000  0.000  0.667-  74 2.44  75 2.44  83 2.44  98 2.44  76 2.44  84 2.44 100 2.44  39 2.44
                            38 2.44 108 2.44  47 2.44  62 2.44
  74  0.000  0.167  0.833-  85 2.44  73 2.44  76 2.44  84 2.44  87 2.44  13 2.44  95 2.44  75 2.44
                             4 2.44  83 2.44   1 2.44  12 2.44
  75  0.167  0.000  0.833-  77 2.44  73 2.44  76 2.44 100 2.44  78 2.44   5 2.44 102 2.44  74 2.44
                            98 2.44   1 2.44   4 2.44  28 2.44
  76  0.167  0.167  0.667-  78 2.44  87 2.44  89 2.44  75 2.44  74 2.44  77 2.44  85 2.44  51 2.44
                            42 2.44  73 2.44  38 2.44  39 2.44
  77  0.333  0.000  0.667-  75 2.44  79 2.44  78 2.44 102 2.44  76 2.44  39 2.44 100 2.44  80 2.44
                            43 2.44  42 2.44 104 2.44  66 2.44
  78  0.333  0.167  0.833-  76 2.44  89 2.44  87 2.44  77 2.44  80 2.44  75 2.44  91 2.44  17 2.44
                             4 2.44  79 2.44   8 2.44   5 2.44
  79  0.500  0.000  0.833-  77 2.44  80 2.44  81 2.44 104 2.44  78 2.44 102 2.44  82 2.44   8 2.44
                             5 2.44 106 2.44   9 2.44  32 2.44
  80  0.500  0.167  0.667-  91 2.44  79 2.44  78 2.44  82 2.44  89 2.44  55 2.44  93 2.44  77 2.44
                            43 2.44  81 2.44  42 2.44  46 2.44
  81  0.667  0.000  0.667-  83 2.44  82 2.44  84 2.44  79 2.44  47 2.44 106 2.44 108 2.44  80 2.44
                            46 2.44 104 2.44  70 2.44  43 2.44
  82  0.667  0.167  0.833-  84 2.44  93 2.44  95 2.44  83 2.44  81 2.44  80 2.44  12 2.44  21 2.44
                            91 2.44  79 2.44   9 2.44   8 2.44
  83  0.833  0.000  0.833-  81 2.44  82 2.44  84 2.44  73 2.44   9 2.44 106 2.44 108 2.44  74 2.44
                            12 2.44  98 2.44  36 2.44   1 2.44
  84  0.833  0.167  0.667-  82 2.44  93 2.44  95 2.44  81 2.44  83 2.44  74 2.44  46 2.44  59 2.44
                            85 2.44  73 2.44  47 2.44  38 2.44
  85  0.000  0.333  0.667-  74 2.44  86 2.44  87 2.44  95 2.44  76 2.44  38 2.44  84 2.44  88 2.44
                            51 2.44  50 2.44  96 2.44  59 2.44
  86  0.000  0.500  0.833-  85 2.44  88 2.44  96 2.44  97 2.44  87 2.44  95 2.44  99 2.44  16 2.44
                            13 2.44 107 2.44  24 2.44  25 2.44
  87  0.167  0.333  0.833-  76 2.44  89 2.44  78 2.44  88 2.44  85 2.44  74 2.44  90 2.44  17 2.44
                             4 2.44  86 2.44  16 2.44  13 2.44
  88  0.167  0.500  0.667-  90 2.44  86 2.44  87 2.44  99 2.44  89 2.44  54 2.44 101 2.44  85 2.44
                            97 2.44  50 2.44  51 2.44  63 2.44
  89  0.333  0.333  0.667-  78 2.44  87 2.44  76 2.44  90 2.44  91 2.44  80 2.44  88 2.44  51 2.44
                            42 2.44  92 2.44  54 2.44  55 2.44
  90  0.333  0.500  0.833-  88 2.44  92 2.44  89 2.44 101 2.44  87 2.44  16 2.44  99 2.44  91 2.44
                            20 2.44  17 2.44 103 2.44  29 2.44
  91  0.500  0.333  0.833-  80 2.44  92 2.44  89 2.44  93 2.44  78 2.44   8 2.44  82 2.44  90 2.44
                            20 2.44  17 2.44  94 2.44  21 2.44
  92  0.500  0.500  0.667-  90 2.44  91 2.44  94 2.44 103 2.44  89 2.44 101 2.44  93 2.44  55 2.44
                            54 2.44 105 2.44  58 2.44  67 2.44
  93  0.667  0.333  0.667-  95 2.44  84 2.44  82 2.44  94 2.44  96 2.44  91 2.44  59 2.44  46 2.44
                            80 2.44  92 2.44  58 2.44  55 2.44
  94  0.667  0.500  0.833-  96 2.44  95 2.44  93 2.44  92 2.44  24 2.44 105 2.44 107 2.44  21 2.44
                            91 2.44 103 2.44  33 2.44  20 2.44
  95  0.833  0.333  0.833-  93 2.44  84 2.44  82 2.44  94 2.44  96 2.44  85 2.44  21 2.44  12 2.44
                            74 2.44  86 2.44  24 2.44  13 2.44
  96  0.833  0.500  0.667-  94 2.44  93 2.44  95 2.44  86 2.44  58 2.44 105 2.44 107 2.44  59 2.44
                            85 2.44  97 2.44  71 2.44  50 2.44
  97  0.000  0.667  0.667-  98 2.44  99 2.44 100 2.44  86 2.44  62 2.44 107 2.44 108 2.44  88 2.44
                            63 2.44  96 2.44  50 2.44  71 2.44
  98  0.000  0.833  0.833-  97 2.44  99 2.44 100 2.44  73 2.44  25 2.44 107 2.44 108 2.44  75 2.44
                            28 2.44  83 2.44   1 2.44  36 2.44
  99  0.167  0.667  0.833- 100 2.44 101 2.44 102 2.44  98 2.44  97 2.44  88 2.44  28 2.44  90 2.44
                            29 2.44  86 2.44  25 2.44  16 2.44
 100  0.167  0.833  0.667-  99 2.44 101 2.44 102 2.44  98 2.44  97 2.44  75 2.44  63 2.44  77 2.44
                            66 2.44  73 2.44  62 2.44  39 2.44
 101  0.333  0.667  0.667- 102 2.44 100 2.44  99 2.44 103 2.44 104 2.44  90 2.44  66 2.44  63 2.44
                            88 2.44  92 2.44  67 2.44  54 2.44
 102  0.333  0.833  0.833- 101 2.44 100 2.44  99 2.44 103 2.44 104 2.44  77 2.44  29 2.44  28 2.44
                            75 2.44  79 2.44  32 2.44   5 2.44
 103  0.500  0.667  0.833- 104 2.44 102 2.44 101 2.44  92 2.44  32 2.44 105 2.44 106 2.44  29 2.44
                            90 2.44  94 2.44  20 2.44  33 2.44
 104  0.500  0.833  0.667- 103 2.44 102 2.44 101 2.44  79 2.44  67 2.44 105 2.44 106 2.44  66 2.44
                            77 2.44  81 2.44  43 2.44  70 2.44
 105  0.667  0.667  0.667- 106 2.44 107 2.44 108 2.44  96 2.44 103 2.44 104 2.44  70 2.44  71 2.44
                            94 2.44  67 2.44  92 2.44  58 2.44
 106  0.667  0.833  0.833- 105 2.44 107 2.44 108 2.44  83 2.44 103 2.44 104 2.44  33 2.44  36 2.44
                            81 2.44  32 2.44  79 2.44   9 2.44
 107  0.833  0.667  0.833- 105 2.44 106 2.44 108 2.44  96 2.44  97 2.44  98 2.44  33 2.44  36 2.44
                            94 2.44  25 2.44  86 2.44  24 2.44
 108  0.833  0.833  0.667- 105 2.44 106 2.44 107 2.44  83 2.44  97 2.44  98 2.44  70 2.44  71 2.44
                            81 2.44  62 2.44  73 2.44  47 2.44
 
  LATTYP: Found a simple cubic cell.
 ALAT       =    10.3348470474
  
  Lattice vectors:
  
 A1 = (  10.3348470474,   0.0000000000,   0.0000000000)
 A2 = (   0.0000000000,  10.3348470474,   0.0000000000)
 A3 = (   0.0000000000,   0.0000000000,  10.3348470474)


Analysis of symmetry for initial positions (statically):
=====================================================================
 Subroutine PRICEL returns following result:
 
  LATTYP: Found a simple cubic cell.
 ALAT       =     3.4449252899
  
  Lattice vectors:
  
 A1 = (   3.4449252899,   0.0000000000,   0.0000000000)
 A2 = (   0.0000000000,   3.4449252899,   0.0000000000)
 A3 = (   0.0000000000,   0.0000000000,   3.4449252443)
 
  27 primitive cells build up your supercell.
 

 Routine SETGRP: Setting up the symmetry group for a 
 simple cubic supercell.


 Subroutine GETGRP returns: Found 48 space group operations
 (whereof 48 operations were pure point group operations)
 out of a pool of 48 trial point group operations.


The static configuration has the point symmetry O_h .


Analysis of symmetry for dynamics (positions and initial velocities):
=====================================================================
 Subroutine PRICEL returns following result:
 
  LATTYP: Found a simple cubic cell.
 ALAT       =     3.4449252899
  
  Lattice vectors:
  
 A1 = (   3.4449252899,   0.0000000000,   0.0000000000)
 A2 = (   0.0000000000,   3.4449252899,   0.0000000000)
 A3 = (   0.0000000000,   0.0000000000,   3.4449252443)
 
  27 primitive cells build up your supercell.
 

 Routine SETGRP: Setting up the symmetry group for a 
 simple cubic supercell.


 Subroutine GETGRP returns: Found 48 space group operations
 (whereof 48 operations were pure point group operations)
 out of a pool of 48 trial point group operations.


The dynamic configuration has the point symmetry O_h .


 Subroutine INISYM returns: Found 48 space group operations
 (whereof 48 operations are pure point group operations),
 and found    27 'primitive' translations

 
 
 KPOINTS: pymatgen generated KPOINTS with grid den

Automatic generation of k-mesh.
Space group operators:
 irot       det(A)        alpha          n_x          n_y          n_z        tau_x        tau_y        tau_z
    1     1.000000     0.000000     1.000000     0.000000     0.000000     0.000000     0.000000     0.000000
    2    -1.000000     0.000000     1.000000     0.000000     0.000000     0.000000     0.000000     0.000000
    3     1.000000   120.000000    -0.577350    -0.577350    -0.577350     0.000000     0.000000     0.000000
    4    -1.000000   120.000000    -0.577350    -0.577350    -0.577350     0.000000     0.000000     0.000000
    5     1.000000   120.000000     0.577350     0.577350     0.577350     0.000000     0.000000     0.000000
    6    -1.000000   120.000000     0.577350     0.577350     0.577350     0.000000     0.000000     0.000000
    7     1.000000    90.000000     0.000000     0.000000    -1.000000     0.000000     0.000000     0.000000
    8    -1.000000    90.000000     0.000000     0.000000    -1.000000     0.000000     0.000000     0.000000
    9     1.000000   180.000000     0.000000     0.707107     0.707107     0.000000     0.000000     0.000000
   10    -1.000000   180.000000     0.000000     0.707107     0.707107     0.000000     0.000000     0.000000
   11     1.000000    90.000000     0.000000     1.000000     0.000000     0.000000     0.000000     0.000000
   12    -1.000000    90.000000     0.000000     1.000000     0.000000     0.000000     0.000000     0.000000
   13     1.000000   180.000000     0.000000     0.000000     1.000000     0.000000     0.000000     0.000000
   14    -1.000000   180.000000     0.000000     0.000000     1.000000     0.000000     0.000000     0.000000
   15     1.000000   120.000000    -0.577350     0.577350     0.577350     0.000000     0.000000     0.000000
   16    -1.000000   120.000000    -0.577350     0.577350     0.577350     0.000000     0.000000     0.000000
   17     1.000000   120.000000    -0.577350     0.577350    -0.577350     0.000000     0.000000     0.000000
   18    -1.000000   120.000000    -0.577350     0.577350    -0.577350     0.000000     0.000000     0.000000
   19     1.000000    90.000000     0.000000     0.000000     1.000000     0.000000     0.000000     0.000000
   20    -1.000000    90.000000     0.000000     0.000000     1.000000     0.000000     0.000000     0.000000
   21     1.000000    90.000000    -1.000000     0.000000     0.000000     0.000000     0.000000     0.000000
   22    -1.000000    90.000000    -1.000000     0.000000     0.000000     0.000000     0.000000     0.000000
   23     1.000000   180.000000     0.707107     0.000000     0.707107     0.000000     0.000000     0.000000
   24    -1.000000   180.000000     0.707107     0.000000     0.707107     0.000000     0.000000     0.000000
   25     1.000000   120.000000     0.577350    -0.577350     0.577350     0.000000     0.000000     0.000000
   26    -1.000000   120.000000     0.577350    -0.577350     0.577350     0.000000     0.000000     0.000000
   27     1.000000   120.000000    -0.577350    -0.577350     0.577350     0.000000     0.000000     0.000000
   28    -1.000000   120.000000    -0.577350    -0.577350     0.577350     0.000000     0.000000     0.000000
   29     1.000000   180.000000     1.000000     0.000000     0.000000     0.000000     0.000000     0.000000
   30    -1.000000   180.000000     1.000000     0.000000     0.000000     0.000000     0.000000     0.000000
   31     1.000000    90.000000     0.000000    -1.000000     0.000000     0.000000     0.000000     0.000000
   32    -1.000000    90.000000     0.000000    -1.000000     0.000000     0.000000     0.000000     0.000000
   33     1.000000   180.000000     0.707107     0.707107     0.000000     0.000000     0.000000     0.000000
   34    -1.000000   180.000000     0.707107     0.707107     0.000000     0.000000     0.000000     0.000000
   35     1.000000    90.000000     1.000000     0.000000     0.000000     0.000000     0.000000     0.000000
   36    -1.000000    90.000000     1.000000     0.000000     0.000000     0.000000     0.000000     0.000000
   37     1.000000   120.000000     0.577350    -0.577350    -0.577350     0.000000     0.000000     0.000000
   38    -1.000000   120.000000     0.577350    -0.577350    -0.577350     0.000000     0.000000     0.000000
   39     1.000000   180.000000     0.000000     1.000000     0.000000     0.000000     0.000000     0.000000
   40    -1.000000   180.000000     0.000000     1.000000     0.000000     0.000000     0.000000     0.000000
   41     1.000000   120.000000     0.577350     0.577350    -0.577350     0.000000     0.000000     0.000000
   42    -1.000000   120.000000     0.577350     0.577350    -0.577350     0.000000     0.000000     0.000000
   43     1.000000   180.000000     0.000000    -0.707107     0.707107     0.000000     0.000000     0.000000
   44    -1.000000   180.000000     0.000000    -0.707107     0.707107     0.000000     0.000000     0.000000
   45     1.000000   180.000000     0.707107    -0.707107     0.000000     0.000000     0.000000     0.000000
   46    -1.000000   180.000000     0.707107    -0.707107     0.000000     0.000000     0.000000     0.000000
   47     1.000000   180.000000     0.707107     0.000000    -0.707107     0.000000     0.000000     0.000000
   48    -1.000000   180.000000     0.707107     0.000000    -0.707107     0.000000     0.000000     0.000000
 
 Subroutine IBZKPT returns following result:
 ===========================================
 
 Found      4 irreducible k-points:
 
 Following reciprocal coordinates:
            Coordinates               Weight
  0.125000  0.125000  0.125000      8.000000
  0.375000  0.125000  0.125000     24.000000
  0.375000  0.375000  0.125000     24.000000
  0.375000  0.375000  0.375000      8.000000
 
 Following cartesian coordinates:
            Coordinates               Weight
  0.012095  0.012095  0.012095      8.000000
  0.036285  0.012095  0.012095     24.000000
  0.036285  0.036285  0.012095     24.000000
  0.036285  0.036285  0.036285      8.000000
 


--------------------------------------------------------------------------------------------------------




 Dimension of arrays:
   k-points           NKPTS =      4   k-points in BZ     NKDIM =      4   number of bands    NBANDS=    518
   number of dos      NEDOS =    301   number of ions     NIONS =    108
   non local maximal  LDIM  =      6   non local SUM 2l+1 LMDIM =     18
   total plane-waves  NPLWV = 373248
   max r-space proj   IRMAX =   3851   max aug-charges    IRDMAX=  12243
   dimension x,y,z NGX =    72 NGY =   72 NGZ =   72
   dimension x,y,z NGXF=   144 NGYF=  144 NGZF=  144
   support grid    NGXF=   144 NGYF=  144 NGZF=  144
   ions per type =             108
   NGX,Y,Z   is equivalent  to a cutoff of  11.58, 11.58, 11.58 a.u.
   NGXF,Y,Z  is equivalent  to a cutoff of  23.16, 23.16, 23.16 a.u.

 Based on PREC, I would recommend the following setting:
   dimension x,y,z NGX =    60 NGY =   60 NGZ =   60

 SYSTEM =  Opt                                     
 POSCAR =  fcc_Fe_CON_333                          

 Startparameter for this run:
   NWRITE =      2    write-flag & timer
   PREC   = normal    normal or accurate (medium, high low for compatibility)
   ISTART =      0    job   : 0-new  1-cont  2-samecut
   ICHARG =      2    charge: 1-file 2-atom 10-const
   ISPIN  =      1    spin polarized calculation?
   LNONCOLLINEAR =      F non collinear calculations
   LSORBIT =      F    spin-orbit coupling
   INIWAV =      1    electr: 0-lowe 1-rand  2-diag
   LASPH  =      F    aspherical Exc in radial PAW
   METAGGA=      F    non-selfconsistent MetaGGA calc.

 Electronic Relaxation 1
   ENCUT  =  500.0 eV  36.75 Ry    6.06 a.u.  18.84 18.84 18.84*2*pi/ulx,y,z
   ENINI  =  500.0     initial cutoff
   ENAUG  =  511.4 eV  augmentation charge cutoff
   NELM   =    400;   NELMIN=  2; NELMDL= -5     # of ELM steps 
   EDIFF  = 0.1E-05   stopping-criterion for ELM
   LREAL  =      T    real-space projection
   NLSPLINE    = F    spline interpolate recip. space projectors
   LCOMPAT=      F    compatible to vasp.4.4
   GGA_COMPAT  = T    GGA compatible to vasp.4.4-vasp.4.6
   LMAXPAW     = -100 max onsite density
   LMAXMIX     =    2 max onsite mixed and CHGCAR
   VOSKOWN=      0    Vosko Wilk Nusair interpolation
   ROPT   =   -0.00050
 Ionic relaxation
   EDIFFG = -.1E-01   stopping-criterion for IOM
   NSW    =    100    number of steps for IOM
   NBLOCK =      1;   KBLOCK =    100    inner block; outer block 
   IBRION =      2    ionic relax: 0-MD 1-quasi-New 2-CG
   NFREE  =      1    steps in history (QN), initial steepest desc. (CG)
   ISIF   =      3    stress and relaxation
   IWAVPR =     11    prediction:  0-non 1-charg 2-wave 3-comb
   ISYM   =      2    0-nonsym 1-usesym 2-fastsym
   LCORR  =      T    Harris-Foulkes like correction to forces

   POTIM  = 0.5000    time-step for ionic-motion
   TEIN   =    0.0    initial temperature
   TEBEG  =    0.0;   TEEND  =   0.0 temperature during run
   SMASS  =  -3.00    Nose mass-parameter (am)
   estimated Nose-frequenzy (Omega)   =  0.10E-29 period in steps =****** mass=  -0.244E-26a.u.
   SCALEE = 1.0000    scale energy and forces
   NPACO  =    256;   APACO  = 16.0  distance and # of slots for P.C.
   PSTRESS=    0.0 pullay stress

  Mass of Ions in am
   POMASS =  55.85
  Ionic Valenz
   ZVAL   =   8.00
  Atomic Wigner-Seitz radii
   RWIGS  =  -1.00
  virtual crystal weights 
   VCA    =   1.00
   NELECT =     864.0000    total number of electrons
   NUPDOWN=      -1.0000    fix difference up-down

 DOS related values:
   EMIN   =  10.00;   EMAX   =-10.00  energy-range for DOS
   EFERMI =   0.00
   ISMEAR =     1;   SIGMA  =   0.20  broadening in eV -4-tet -1-fermi 0-gaus

 Electronic relaxation 2 (details)
   IALGO  =     68    algorithm
   LDIAG  =      T    sub-space diagonalisation (order eigenvalues)
   LSUBROT=      F    optimize rotation matrix (better conditioning)
   TURBO    =      0    0=normal 1=particle mesh
   IRESTART =      0    0=no restart 2=restart with 2 vectors
   NREBOOT  =      0    no. of reboots
   NMIN     =      0    reboot dimension
   EREF     =   0.00    reference energy to select bands
   IMIX   =      4    mixing-type and parameters
     AMIX     =   0.40;   BMIX     =  1.00
     AMIX_MAG =   1.60;   BMIX_MAG =  1.00
     AMIN     =   0.10
     WC   =   100.;   INIMIX=   1;  MIXPRE=   1;  MAXMIX= -45

 Intra band minimization:
   WEIMIN = 0.0010     energy-eigenvalue tresh-hold
   EBREAK =  0.48E-09  absolut break condition
   DEPER  =   0.30     relativ break condition  

   TIME   =   0.40     timestep for ELM

  volume/ion in A,a.u.               =      10.22        68.97
  Fermi-wavevector in a.u.,A,eV,Ry     =   1.508720  2.851068 30.970078  2.276236
  Thomas-Fermi vector in A             =   2.619137
 
 Write flags
   LWAVE        =      F    write WAVECAR
   LDOWNSAMPLE  =      F    k-point downsampling of WAVECAR
   LCHARG       =      F    write CHGCAR
   LVTOT        =      F    write LOCPOT, total local potential
   LVHAR        =      F    write LOCPOT, Hartree potential only
   LELF         =      F    write electronic localiz. function (ELF)
   LORBIT       =      0    0 simple, 1 ext, 2 COOP (PROOUT), +10 PAW based schemes


 Dipole corrections
   LMONO  =      F    monopole corrections only (constant potential shift)
   LDIPOL =      F    correct potential (dipole corrections)
   IDIPOL =      0    1-x, 2-y, 3-z, 4-all directions 
   EPSILON=  1.0000000 bulk dielectric constant

 Exchange correlation treatment:
   GGA     =    --    GGA type
   LEXCH   =     8    internal setting for exchange type
   VOSKOWN=      0    Vosko Wilk Nusair interpolation
   LHFCALC =     F    Hartree Fock is set to
   LHFONE  =     F    Hartree Fock one center treatment
   AEXX    =    0.0000 exact exchange contribution

 Linear response parameters
   LEPSILON=     F    determine dielectric tensor
   LRPA    =     F    only Hartree local field effects (RPA)
   LNABLA  =     F    use nabla operator in PAW spheres
   LVEL    =     F    velocity operator in full k-point grid
   LINTERFAST=   F  fast interpolation
   KINTER  =     0    interpolate to denser k-point grid
   CSHIFT  =0.1000    complex shift for real part using Kramers Kronig
   OMEGAMAX=  -1.0    maximum frequency
   DEG_THRESHOLD= 0.2000000E-02 threshold for treating states as degnerate
   RTIME   =   -0.100 relaxation time in fs
  (WPLASMAI=    0.000 imaginary part of plasma frequency in eV, 0.658/RTIME)
   DFIELD  = 0.0000000 0.0000000 0.0000000 field for delta impulse in time
 
 Orbital magnetization related:
   ORBITALMAG=     F  switch on orbital magnetization
   LCHIMAG   =     F  perturbation theory with respect to B field
   DQ        =  0.001000  dq finite difference perturbation B field
   LLRAUG    =     F  two centre corrections for induced B field



--------------------------------------------------------------------------------------------------------


 conjugate gradient relaxation of ions
 charge density and potential will be updated during run
 non-spin polarized calculation
 RMM-DIIS sequential band-by-band and
  variant of blocked Davidson during initial phase
 perform sub-space diagonalisation
    before iterative eigenvector-optimisation
 modified Broyden-mixing scheme, WC =      100.0
 initial mixing is a Kerker type mixing with AMIX =  0.4000 and BMIX =      1.0000
 Hartree-type preconditioning will be used
 using additional bands           86
 real space projection scheme for non local part
 use partial core corrections
 calculate Harris-corrections to forces 
   (improved forces if not selfconsistent)
 use gradient corrections 
 use of overlap-Matrix (Vanderbilt PP)
 Methfessel and Paxton  Order N= 1 SIGMA  =   0.20


--------------------------------------------------------------------------------------------------------


  energy-cutoff  :      500.00
  volume of cell :     1103.86
      direct lattice vectors                 reciprocal lattice vectors
    10.334847047  0.000000000  0.000000000     0.096760019  0.000000000  0.000000000
     0.000000000 10.334847047  0.000000000     0.000000000  0.096760019  0.000000000
     0.000000000  0.000000000 10.334847047     0.000000000  0.000000000  0.096760019

  length of vectors
    10.334847047 10.334847047 10.334847047     0.096760019  0.096760019  0.096760019


 
 k-points in units of 2pi/SCALE and weight: pymatgen generated KPOINTS with grid den
   0.01209500  0.01209500  0.01209500       0.125
   0.03628501  0.01209500  0.01209500       0.375
   0.03628501  0.03628501  0.01209500       0.375
   0.03628501  0.03628501  0.03628501       0.125
 
 k-points in reciprocal lattice and weights: pymatgen generated KPOINTS with grid den
   0.12500000  0.12500000  0.12500000       0.125
   0.37500000  0.12500000  0.12500000       0.375
   0.37500000  0.37500000  0.12500000       0.375
   0.37500000  0.37500000  0.37500000       0.125
 
 position of ions in fractional coordinates (direct lattice) 
   0.00000000  0.00000000  0.00000000
   0.00000000  0.16666893  0.16666893
   0.16666893  0.00000000  0.16666893
   0.16666893  0.16666893  0.00000000
   0.33333106  0.00000000  0.00000000
   0.33333107  0.16666893  0.16666893
   0.50000000  0.00000000  0.16666894
   0.50000000  0.16666894  0.00000000
   0.66666897  0.00000000  0.00000000
   0.66666896  0.16666893  0.16666893
   0.83333104  0.00000000  0.16666893
   0.83333104  0.16666893  0.00000000
   0.00000000  0.33333106  0.00000000
   0.00000000  0.50000000  0.16666894
   0.16666893  0.33333107  0.16666893
   0.16666894  0.50000000  0.00000000
   0.33333107  0.33333107  0.00000000
   0.33333107  0.50000000  0.16666893
   0.50000000  0.33333107  0.16666893
   0.50000000  0.50000000  0.00000000
   0.66666896  0.33333107  0.00000000
   0.66666896  0.50000000  0.16666893
   0.83333104  0.33333107  0.16666893
   0.83333103  0.50000000  0.00000000
   0.00000000  0.66666897  0.00000000
   0.00000000  0.83333104  0.16666893
   0.16666893  0.66666896  0.16666893
   0.16666893  0.83333104  0.00000000
   0.33333107  0.66666896  0.00000000
   0.33333107  0.83333104  0.16666893
   0.50000000  0.66666896  0.16666893
   0.50000000  0.83333103  0.00000000
   0.66666896  0.66666896  0.00000000
   0.66666896  0.83333104  0.16666893
   0.83333104  0.66666896  0.16666893
   0.83333104  0.83333104  0.00000000
   0.00000000  0.00000000  0.33333106
   0.00000000  0.16666894  0.50000000
   0.16666894  0.00000000  0.50000000
   0.16666893  0.16666893  0.33333107
   0.33333107  0.00000000  0.33333107
   0.33333107  0.16666893  0.50000000
   0.50000000  0.00000000  0.50000000
   0.50000000  0.16666893  0.33333107
   0.66666896  0.00000000  0.33333107
   0.66666896  0.16666893  0.50000000
   0.83333103  0.00000000  0.50000000
   0.83333104  0.16666893  0.33333107
   0.00000000  0.33333107  0.33333107
   0.00000000  0.50000000  0.50000000
   0.16666893  0.33333107  0.50000000
   0.16666893  0.50000000  0.33333107
   0.33333107  0.33333107  0.33333107
   0.33333106  0.50000000  0.50000000
   0.50000000  0.33333106  0.50000000
   0.50000000  0.50000000  0.33333106
   0.66666896  0.33333107  0.33333107
   0.66666897  0.50000000  0.50000000
   0.83333104  0.33333107  0.50000000
   0.83333104  0.50000000  0.33333107
   0.00000000  0.66666896  0.33333107
   0.00000000  0.83333103  0.50000000
   0.16666893  0.66666896  0.50000000
   0.16666893  0.83333104  0.33333107
   0.33333107  0.66666896  0.33333107
   0.33333107  0.83333104  0.50000000
   0.50000000  0.66666897  0.50000000
   0.50000000  0.83333104  0.33333107
   0.66666896  0.66666896  0.33333107
   0.66666896  0.83333104  0.50000000
   0.83333104  0.66666896  0.50000000
   0.83333104  0.83333104  0.33333107
   0.00000000  0.00000000  0.66666897
   0.00000000  0.16666893  0.83333104
   0.16666893  0.00000000  0.83333104
   0.16666893  0.16666893  0.66666896
   0.33333107  0.00000000  0.66666896
   0.33333107  0.16666893  0.83333104
   0.50000000  0.00000000  0.83333103
   0.50000000  0.16666893  0.66666896
   0.66666896  0.00000000  0.66666896
   0.66666896  0.16666893  0.83333104
   0.83333104  0.00000000  0.83333104
   0.83333104  0.16666893  0.66666896
   0.00000000  0.33333107  0.66666896
   0.00000000  0.50000000  0.83333103
   0.16666893  0.33333107  0.83333104
   0.16666893  0.50000000  0.66666896
   0.33333107  0.33333107  0.66666896
   0.33333107  0.50000000  0.83333104
   0.50000000  0.33333107  0.83333104
   0.50000000  0.50000000  0.66666897
   0.66666896  0.33333107  0.66666896
   0.66666896  0.50000000  0.83333104
   0.83333104  0.33333107  0.83333104
   0.83333104  0.50000000  0.66666896
   0.00000000  0.66666896  0.66666896
   0.00000000  0.83333104  0.83333104
   0.16666893  0.66666896  0.83333104
   0.16666893  0.83333104  0.66666896
   0.33333107  0.66666896  0.66666896
   0.33333107  0.83333104  0.83333104
   0.50000000  0.66666896  0.83333104
   0.50000000  0.83333104  0.66666896
   0.66666896  0.66666896  0.66666896
   0.66666896  0.83333104  0.83333104
   0.83333104  0.66666896  0.83333104
   0.83333104  0.83333104  0.66666896
 
 position of ions in cartesian coordinates  (Angst):
   0.00000000  0.00000000  0.00000000
   0.00000000  1.72249793  1.72249793
   1.72249793  0.00000000  1.72249793
   1.72249793  1.72249793  0.00000000
   3.44492554  0.00000000  0.00000000
   3.44492559  1.72249794  1.72249794
   5.16742352  0.00000000  1.72249798
   5.16742352  1.72249798  0.00000000
   6.88992180  0.00000000  0.00000000
   6.88992176  1.72249794  1.72249794
   8.61234881  0.00000000  1.72249793
   8.61234881  1.72249793  0.00000000
   0.00000000  3.44492554  0.00000000
   0.00000000  5.16742352  1.72249798
   1.72249794  3.44492559  1.72249794
   1.72249798  5.16742352  0.00000000
   3.44492559  3.44492559  0.00000000
   3.44492559  5.16742352  1.72249793
   5.16742352  3.44492559  1.72249793
   5.16742352  5.16742352  0.00000000
   6.88992176  3.44492559  0.00000000
   6.88992176  5.16742352  1.72249793
   8.61234881  3.44492559  1.72249794
   8.61234877  5.16742352  0.00000000
   0.00000000  6.88992180  0.00000000
   0.00000000  8.61234881  1.72249793
   1.72249794  6.88992176  1.72249794
   1.72249793  8.61234881  0.00000000
   3.44492559  6.88992176  0.00000000
   3.44492559  8.61234881  1.72249794
   5.16742352  6.88992176  1.72249793
   5.16742352  8.61234877  0.00000000
   6.88992176  6.88992176  0.00000000
   6.88992176  8.61234881  1.72249794
   8.61234881  6.88992176  1.72249794
   8.61234881  8.61234881  0.00000000
   0.00000000  0.00000000  3.44492554
   0.00000000  1.72249798  5.16742352
   1.72249798  0.00000000  5.16742352
   1.72249794  1.72249794  3.44492559
   3.44492559  0.00000000  3.44492559
   3.44492559  1.72249793  5.16742352
   5.16742352  0.00000000  5.16742352
   5.16742352  1.72249793  3.44492559
   6.88992176  0.00000000  3.44492559
   6.88992176  1.72249793  5.16742352
   8.61234877  0.00000000  5.16742352
   8.61234881  1.72249794  3.44492559
   0.00000000  3.44492559  3.44492559
   0.00000000  5.16742352  5.16742352
   1.72249793  3.44492559  5.16742352
   1.72249793  5.16742352  3.44492559
   3.44492559  3.44492559  3.44492559
   3.44492554  5.16742352  5.16742352
   5.16742352  3.44492554  5.16742352
   5.16742352  5.16742352  3.44492554
   6.88992176  3.44492559  3.44492559
   6.88992180  5.16742352  5.16742352
   8.61234881  3.44492559  5.16742352
   8.61234881  5.16742352  3.44492559
   0.00000000  6.88992176  3.44492559
   0.00000000  8.61234877  5.16742352
   1.72249793  6.88992176  5.16742352
   1.72249794  8.61234881  3.44492559
   3.44492559  6.88992176  3.44492559
   3.44492559  8.61234881  5.16742352
   5.16742352  6.88992180  5.16742352
   5.16742352  8.61234881  3.44492559
   6.88992176  6.88992176  3.44492559
   6.88992176  8.61234881  5.16742352
   8.61234881  6.88992176  5.16742352
   8.61234881  8.61234881  3.44492559
   0.00000000  0.00000000  6.88992180
   0.00000000  1.72249793  8.61234881
   1.72249793  0.00000000  8.61234881
   1.72249794  1.72249794  6.88992176
   3.44492559  0.00000000  6.88992176
   3.44492559  1.72249794  8.61234881
   5.16742352  0.00000000  8.61234877
   5.16742352  1.72249793  6.88992176
   6.88992176  0.00000000  6.88992176
   6.88992176  1.72249794  8.61234881
   8.61234881  0.00000000  8.61234881
   8.61234881  1.72249794  6.88992176
   0.00000000  3.44492559  6.88992176
   0.00000000  5.16742352  8.61234877
   1.72249794  3.44492559  8.61234881
   1.72249793  5.16742352  6.88992176
   3.44492559  3.44492559  6.88992176
   3.44492559  5.16742352  8.61234881
   5.16742352  3.44492559  8.61234881
   5.16742352  5.16742352  6.88992180
   6.88992176  3.44492559  6.88992176
   6.88992176  5.16742352  8.61234881
   8.61234881  3.44492559  8.61234881
   8.61234881  5.16742352  6.88992176
   0.00000000  6.88992176  6.88992176
   0.00000000  8.61234881  8.61234881
   1.72249794  6.88992176  8.61234881
   1.72249794  8.61234881  6.88992176
   3.44492559  6.88992176  6.88992176
   3.44492559  8.61234881  8.61234881
   5.16742352  6.88992176  8.61234881
   5.16742352  8.61234881  6.88992176
   6.88992176  6.88992176  6.88992176
   6.88992176  8.61234881  8.61234881
   8.61234881  6.88992176  8.61234881
   8.61234881  8.61234881  6.88992176
 


--------------------------------------------------------------------------------------------------------


 k-point  1 :   0.1250 0.1250 0.1250  plane waves:   28012
 k-point  2 :   0.3750 0.1250 0.1250  plane waves:   28021
 k-point  3 :   0.3750 0.3750 0.1250  plane waves:   28032
 k-point  4 :   0.3750 0.3750 0.3750  plane waves:   28051

 maximum and minimum number of plane-waves per node :      7040     6967

 maximum number of plane-waves:     28051
 maximum index in each direction: 
   IXMAX=   18   IYMAX=   18   IZMAX=   18
   IXMIN=  -19   IYMIN=  -19   IZMIN=  -19


 real space projection operators:
  total allocation   :      56846.81 KBytes
  max/ min on nodes  :      14473.69      13790.25


 parallel 3D FFT for wavefunctions:
    minimum data exchange during FFTs selected (reduces bandwidth)
 parallel 3D FFT for charge:
    minimum data exchange during FFTs selected (reduces bandwidth)


 total amount of memory used by VASP MPI-rank0   216870. kBytes
=======================================================================

   base      :      30000. kBytes
   nonlr-proj:      24899. kBytes
   fftplans  :      15464. kBytes
   grid      :      21835. kBytes
   one-center:        419. kBytes
   wavefun   :     124253. kBytes
 
     INWAV:  cpu time    0.0000: real time    0.0001
 Broyden mixing: mesh for mixing (old mesh)
   NGX = 37   NGY = 37   NGZ = 37
  (NGX  =144   NGY  =144   NGZ  =144)
  gives a total of  50653 points

 initial charge density was supplied:
 charge density of overlapping atoms calculated
 number of electron     864.0000000 magnetization 
 keeping initial charge density in first step


--------------------------------------------------------------------------------------------------------


 Maximum index for non-local projection operator          953
 Maximum index for augmentation-charges         1463 (set IRDMAX)


--------------------------------------------------------------------------------------------------------


 First call to EWALD:  gamma=   0.172
 Maximum number of real-space cells 3x 3x 3
 Maximum number of reciprocal cells 3x 3x 3

    FEWALD:  cpu time    0.0109: real time    0.0114


--------------------------------------- Iteration      1(   1)  ---------------------------------------


    POTLOK:  cpu time    0.2887: real time    0.2905
    SETDIJ:  cpu time    0.0528: real time    0.0528
     EDDAV:  cpu time   44.1726: real time   44.2003
       DOS:  cpu time    0.0041: real time    0.0041
    --------------------------------------------
      LOOP:  cpu time   44.5182: real time   44.5477

 eigenvalue-minimisations  :  4144
 total energy-change (2. order) : 0.8434089E+04  (-0.3354697E+05)
 number of electron     864.0000000 magnetization 
 augmentation part      864.0000000 magnetization 

 Free energy of the ion-electron system (eV)
  ---------------------------------------------------
  alpha Z        PSCENC =      7300.31925852
  Ewald energy   TEWEN  =    -66232.83996889
  -Hartree energ DENC   =    -11197.02572337
  -exchange      EXHF   =         0.00000000
  -V(xc)+E(xc)   XCENC  =       446.63038354
  PAW double counting   =     51723.88885462   -52548.28121372
  entropy T*S    EENTRO =        -0.00831576
  eigenvalues    EBANDS =     14739.06928959
  atomic energy  EATOM  =     64202.33668287
  Solvation  Ediel_sol  =         0.00000000
  ---------------------------------------------------
  free energy    TOTEN  =      8434.08924742 eV

  energy without entropy =     8434.09756317  energy(sigma->0) =     8434.09201934


--------------------------------------------------------------------------------------------------------




--------------------------------------- Iteration      1(   2)  ---------------------------------------


     EDDAV:  cpu time   44.3373: real time   44.3400
       DOS:  cpu time    0.0062: real time    0.0062
    --------------------------------------------
      LOOP:  cpu time   44.3434: real time   44.3462

 eigenvalue-minimisations  :  4144
 total energy-change (2. order) :-0.8307103E+04  (-0.8146100E+04)
 number of electron     864.0000000 magnetization 
 augmentation part      864.0000000 magnetization 

 Free energy of the ion-electron system (eV)
  ---------------------------------------------------
  alpha Z        PSCENC =      7300.31925852
  Ewald energy   TEWEN  =    -66232.83996889
  -Hartree energ DENC   =    -11197.02572337
  -exchange      EXHF   =         0.00000000
  -V(xc)+E(xc)   XCENC  =       446.63038354
  PAW double counting   =     51723.88885462   -52548.28121372
  entropy T*S    EENTRO =         0.01558107
  eigenvalues    EBANDS =      6431.94273284
  atomic energy  EATOM  =     64202.33668287
  Solvation  Ediel_sol  =         0.00000000
  ---------------------------------------------------
  free energy    TOTEN  =       126.98658749 eV

  energy without entropy =      126.97100642  energy(sigma->0) =      126.98139380


--------------------------------------------------------------------------------------------------------




--------------------------------------- Iteration      1(   3)  ---------------------------------------


     EDDAV:  cpu time   44.2947: real time   44.2929
       DOS:  cpu time    0.0072: real time    0.0072
    --------------------------------------------
      LOOP:  cpu time   44.3020: real time   44.3001

 eigenvalue-minimisations  :  4144
 total energy-change (2. order) :-0.9587893E+03  (-0.8194932E+03)
 number of electron     864.0000000 magnetization 
 augmentation part      864.0000000 magnetization 

 Free energy of the ion-electron system (eV)
  ---------------------------------------------------
  alpha Z        PSCENC =      7300.31925852
  Ewald energy   TEWEN  =    -66232.83996889
  -Hartree energ DENC   =    -11197.02572337
  -exchange      EXHF   =         0.00000000
  -V(xc)+E(xc)   XCENC  =       446.63038354
  PAW double counting   =     51723.88885462   -52548.28121372
  entropy T*S    EENTRO =         0.00735733
  eigenvalues    EBANDS =      5473.16164298
  atomic energy  EATOM  =     64202.33668287
  Solvation  Ediel_sol  =         0.00000000
  ---------------------------------------------------
  free energy    TOTEN  =      -831.80272611 eV

  energy without entropy =     -831.81008344  energy(sigma->0) =     -831.80517856


--------------------------------------------------------------------------------------------------------




--------------------------------------- Iteration      1(   4)  ---------------------------------------


     EDDAV:  cpu time   72.1739: real time   72.1844
       DOS:  cpu time    0.0073: real time    0.0073
    --------------------------------------------
      LOOP:  cpu time   72.1812: real time   72.1916

 eigenvalue-minimisations  :  7512
 total energy-change (2. order) :-0.1960310E+03  (-0.1841004E+03)
 number of electron     864.0000000 magnetization 
 augmentation part      864.0000000 magnetization 

 Free energy of the ion-electron system (eV)
  ---------------------------------------------------
  alpha Z        PSCENC =      7300.31925852
  Ewald energy   TEWEN  =    -66232.83996889
  -Hartree energ DENC   =    -11197.02572337
  -exchange      EXHF   =         0.00000000
  -V(xc)+E(xc)   XCENC  =       446.63038354
  PAW double counting   =     51723.88885462   -52548.28121372
  entropy T*S    EENTRO =        -0.04426095
  eigenvalues    EBANDS =      5277.18230971
  atomic energy  EATOM  =     64202.33668287
  Solvation  Ediel_sol  =         0.00000000
  ---------------------------------------------------
  free energy    TOTEN  =     -1027.83367766 eV

  energy without entropy =    -1027.78941671  energy(sigma->0) =    -1027.81892401


--------------------------------------------------------------------------------------------------------




--------------------------------------- Iteration      1(   5)  ---------------------------------------


     EDDAV:  cpu time   65.3747: real time   65.3746
       DOS:  cpu time    0.0075: real time    0.0075
    CHARGE:  cpu time    2.3273: real time    2.3272
    MIXING:  cpu time    0.0091: real time    0.0091
    --------------------------------------------
      LOOP:  cpu time   67.7186: real time   67.7184

 eigenvalue-minimisations  :  6704
 total energy-change (2. order) :-0.1725852E+02  (-0.1632004E+02)
 number of electron     864.0000691 magnetization 
 augmentation part      382.8098719 magnetization 

 Broyden mixing:
  rms(total) = 0.93461E+01    rms(broyden)= 0.93460E+01
  rms(prec ) = 0.11652E+02
  weight for this iteration     100.00

 Free energy of the ion-electron system (eV)
  ---------------------------------------------------
  alpha Z        PSCENC =      7300.31925852
  Ewald energy   TEWEN  =    -66232.83996889
  -Hartree energ DENC   =    -11197.02572337
  -exchange      EXHF   =         0.00000000
  -V(xc)+E(xc)   XCENC  =       446.63038354
  PAW double counting   =     51723.88885462   -52548.28121372
  entropy T*S    EENTRO =        -0.10703333
  eigenvalues    EBANDS =      5259.98656213
  atomic energy  EATOM  =     64202.33668287
  Solvation  Ediel_sol  =         0.00000000
  ---------------------------------------------------
  free energy    TOTEN  =     -1045.09219762 eV

  energy without entropy =    -1044.98516429  energy(sigma->0) =    -1045.05651984


--------------------------------------------------------------------------------------------------------




--------------------------------------- Iteration      1(   6)  ---------------------------------------


    POTLOK:  cpu time    0.2949: real time    0.2961
    SETDIJ:  cpu time    0.0536: real time    0.0536
    EDDIAG:  cpu time    5.9097: real time    5.9097
  RMM-DIIS:  cpu time   23.9478: real time   23.9468
    ORTHCH:  cpu time    1.3739: real time    1.3739
       DOS:  cpu time    0.0084: real time    0.0084
    CHARGE:  cpu time    2.4040: real time    2.4039
    MIXING:  cpu time    0.0079: real time    0.0079
    --------------------------------------------
      LOOP:  cpu time   34.0003: real time   34.0003

 eigenvalue-minimisations  :  4144
 total energy-change (2. order) : 0.1677402E+03  (-0.1354347E+03)
 number of electron     864.0000778 magnetization 
 augmentation part      447.7272628 magnetization 

 Broyden mixing:
  rms(total) = 0.88841E+00    rms(broyden)= 0.88796E+00
  rms(prec ) = 0.96036E+00
  weight for this iteration     100.00

 eigenvalues of (default mixing * dielectric matrix)
  average eigenvalue GAMMA=   0.9495
  0.9495

 Free energy of the ion-electron system (eV)
  ---------------------------------------------------
  alpha Z        PSCENC =      7300.31925852
  Ewald energy   TEWEN  =    -66232.83996889
  -Hartree energ DENC   =     -9342.44008433
  -exchange      EXHF   =         0.00000000
  -V(xc)+E(xc)   XCENC  =       355.83550427
  PAW double counting   =     52452.88038649   -53033.45743130
  entropy T*S    EENTRO =        -0.06593711
  eigenvalues    EBANDS =      3420.07962294
  atomic energy  EATOM  =     64202.33668287
  Solvation  Ediel_sol  =         0.00000000
  ---------------------------------------------------
  free energy    TOTEN  =      -877.35196651 eV

  energy without entropy =     -877.28602941  energy(sigma->0) =     -877.32998748


--------------------------------------------------------------------------------------------------------




--------------------------------------- Iteration      1(   7)  ---------------------------------------


    POTLOK:  cpu time    0.3104: real time    0.3105
    SETDIJ:  cpu time    0.0540: real time    0.0540
    EDDIAG:  cpu time    6.2402: real time    6.2402
  RMM-DIIS:  cpu time   27.0290: real time   27.0287
    ORTHCH:  cpu time    1.4015: real time    1.4014
       DOS:  cpu time    0.0087: real time    0.0087
    CHARGE:  cpu time    2.4039: real time    2.4038
    MIXING:  cpu time    0.0092: real time    0.0092
    --------------------------------------------
      LOOP:  cpu time   37.4570: real time   37.4565

 eigenvalue-minimisations  :  4534
 total energy-change (2. order) :-0.2884307E+01  (-0.1104552E+02)
 number of electron     864.0000752 magnetization 
 augmentation part      447.0546648 magnetization 

 Broyden mixing:
  rms(total) = 0.33890E+00    rms(broyden)= 0.33880E+00
  rms(prec ) = 0.37782E+00
  weight for this iteration     100.00

 eigenvalues of (default mixing * dielectric matrix)
  average eigenvalue GAMMA=   1.0995
  1.0995  1.0995

 Free energy of the ion-electron system (eV)
  ---------------------------------------------------
  alpha Z        PSCENC =      7300.31925852
  Ewald energy   TEWEN  =    -66232.83996889
  -Hartree energ DENC   =     -9381.86486711
  -exchange      EXHF   =         0.00000000
  -V(xc)+E(xc)   XCENC  =       360.16908188
  PAW double counting   =     54337.07428091   -55113.93454451
  entropy T*S    EENTRO =        -0.13924150
  eigenvalues    EBANDS =      3648.64304469
  atomic energy  EATOM  =     64202.33668287
  Solvation  Ediel_sol  =         0.00000000
  ---------------------------------------------------
  free energy    TOTEN  =      -880.23627313 eV

  energy without entropy =     -880.09703163  energy(sigma->0) =     -880.18985930


--------------------------------------------------------------------------------------------------------




--------------------------------------- Iteration      1(   8)  ---------------------------------------


    POTLOK:  cpu time    0.3027: real time    0.3031
    SETDIJ:  cpu time    0.0558: real time    0.0558
    EDDIAG:  cpu time    6.2168: real time    6.2165
  RMM-DIIS:  cpu time   26.7365: real time   26.7351
    ORTHCH:  cpu time    1.3327: real time    1.3326
       DOS:  cpu time    0.0083: real time    0.0083
    CHARGE:  cpu time    2.3882: real time    2.3881
    MIXING:  cpu time    0.0116: real time    0.0116
    --------------------------------------------
      LOOP:  cpu time   37.0527: real time   37.0512

 eigenvalue-minimisations  :  4424
 total energy-change (2. order) : 0.9280100E+00  (-0.1305972E+01)
 number of electron     864.0000748 magnetization 
 augmentation part      443.0004915 magnetization 

 Broyden mixing:
  rms(total) = 0.38318E+00    rms(broyden)= 0.38315E+00
  rms(prec ) = 0.49580E+00
  weight for this iteration     100.00

 eigenvalues of (default mixing * dielectric matrix)
  average eigenvalue GAMMA=   0.8856
  0.9743  1.2683  0.4143

 Free energy of the ion-electron system (eV)
  ---------------------------------------------------
  alpha Z        PSCENC =      7300.31925852
  Ewald energy   TEWEN  =    -66232.83996889
  -Hartree energ DENC   =     -9419.24802526
  -exchange      EXHF   =         0.00000000
  -V(xc)+E(xc)   XCENC  =       363.08291987
  PAW double counting   =     56154.76529959   -57041.06494489
  entropy T*S    EENTRO =        -0.07060356
  eigenvalues    EBANDS =      3793.41111856
  atomic energy  EATOM  =     64202.33668287
  Solvation  Ediel_sol  =         0.00000000
  ---------------------------------------------------
  free energy    TOTEN  =      -879.30826318 eV

  energy without entropy =     -879.23765962  energy(sigma->0) =     -879.28472866


--------------------------------------------------------------------------------------------------------




--------------------------------------- Iteration      1(   9)  ---------------------------------------


    POTLOK:  cpu time    0.3028: real time    0.3033
    SETDIJ:  cpu time    0.0548: real time    0.0548
    EDDIAG:  cpu time    6.1551: real time    6.1547
  RMM-DIIS:  cpu time   34.2328: real time   34.2358
    ORTHCH:  cpu time    1.3966: real time    1.3965
       DOS:  cpu time    0.0084: real time    0.0084
    CHARGE:  cpu time    2.4304: real time    2.4303
    MIXING:  cpu time    0.0086: real time    0.0086
    --------------------------------------------
      LOOP:  cpu time   44.5896: real time   44.5925

 eigenvalue-minimisations  :  5782
 total energy-change (2. order) :-0.3779666E+00  (-0.4714896E+00)
 number of electron     864.0000751 magnetization 
 augmentation part      443.8400566 magnetization 

 Broyden mixing:
  rms(total) = 0.42591E+00    rms(broyden)= 0.42588E+00
  rms(prec ) = 0.57787E+00
  weight for this iteration     100.00

 eigenvalues of (default mixing * dielectric matrix)
  average eigenvalue GAMMA=   1.1503
  2.4538  1.0200  1.0200  0.1073

 Free energy of the ion-electron system (eV)
  ---------------------------------------------------
  alpha Z        PSCENC =      7300.31925852
  Ewald energy   TEWEN  =    -66232.83996889
  -Hartree energ DENC   =     -9404.74589224
  -exchange      EXHF   =         0.00000000
  -V(xc)+E(xc)   XCENC  =       362.49186300
  PAW double counting   =     56401.34667583   -57296.38317737
  entropy T*S    EENTRO =        -0.07563964
  eigenvalues    EBANDS =      3787.86396812
  atomic energy  EATOM  =     64202.33668287
  Solvation  Ediel_sol  =         0.00000000
  ---------------------------------------------------
  free energy    TOTEN  =      -879.68622980 eV

  energy without entropy =     -879.61059016  energy(sigma->0) =     -879.66101658


--------------------------------------------------------------------------------------------------------




--------------------------------------- Iteration      1(  10)  ---------------------------------------


    POTLOK:  cpu time    0.3168: real time    0.3172
    SETDIJ:  cpu time    0.0548: real time    0.0548
    EDDIAG:  cpu time    6.3076: real time    6.3074
  RMM-DIIS:  cpu time   29.5797: real time   29.5782
    ORTHCH:  cpu time    1.3345: real time    1.3344
       DOS:  cpu time    0.0085: real time    0.0085
    CHARGE:  cpu time    2.3939: real time    2.3938
    MIXING:  cpu time    0.0095: real time    0.0095
    --------------------------------------------
      LOOP:  cpu time   40.0053: real time   40.0036

 eigenvalue-minimisations  :  4925
 total energy-change (2. order) : 0.2016804E+00  (-0.1045814E+00)
 number of electron     864.0000752 magnetization 
 augmentation part      445.0938917 magnetization 

 Broyden mixing:
  rms(total) = 0.95711E-01    rms(broyden)= 0.95667E-01
  rms(prec ) = 0.11975E+00
  weight for this iteration     100.00

 eigenvalues of (default mixing * dielectric matrix)
  average eigenvalue GAMMA=   1.2979
  2.7501  1.7257  0.9531  0.9531  0.1076

 Free energy of the ion-electron system (eV)
  ---------------------------------------------------
  alpha Z        PSCENC =      7300.31925852
  Ewald energy   TEWEN  =    -66232.83996889
  -Hartree energ DENC   =     -9322.54057698
  -exchange      EXHF   =         0.00000000
  -V(xc)+E(xc)   XCENC  =       359.16470138
  PAW double counting   =     57855.96530796   -58798.33935853
  entropy T*S    EENTRO =        -0.08419899
  eigenvalues    EBANDS =      3756.53360329
  atomic energy  EATOM  =     64202.33668287
  Solvation  Ediel_sol  =         0.00000000
  ---------------------------------------------------
  free energy    TOTEN  =      -879.48454937 eV

  energy without entropy =     -879.40035037  energy(sigma->0) =     -879.45648303


--------------------------------------------------------------------------------------------------------




--------------------------------------- Iteration      1(  11)  ---------------------------------------


    POTLOK:  cpu time    0.3029: real time    0.3032
    SETDIJ:  cpu time    0.0544: real time    0.0544
    EDDIAG:  cpu time    6.1837: real time    6.1876
  RMM-DIIS:  cpu time   30.1699: real time   30.1684
    ORTHCH:  cpu time    1.3645: real time    1.3644
       DOS:  cpu time    0.0085: real time    0.0085
    CHARGE:  cpu time    2.3192: real time    2.3191
    MIXING:  cpu time    0.0112: real time    0.0112
    --------------------------------------------
      LOOP:  cpu time   40.4143: real time   40.4167

 eigenvalue-minimisations  :  5031
 total energy-change (2. order) :-0.3905285E-02  (-0.2238322E-01)
 number of electron     864.0000752 magnetization 
 augmentation part      444.8340893 magnetization 

 Broyden mixing:
  rms(total) = 0.46722E-01    rms(broyden)= 0.46719E-01
  rms(prec ) = 0.60040E-01
  weight for this iteration     100.00

 eigenvalues of (default mixing * dielectric matrix)
  average eigenvalue GAMMA=   1.2720
  2.7495  2.1033  0.9577  0.9577  0.7564  0.1076

 Free energy of the ion-electron system (eV)
  ---------------------------------------------------
  alpha Z        PSCENC =      7300.31925852
  Ewald energy   TEWEN  =    -66232.83996889
  -Hartree energ DENC   =     -9336.70238227
  -exchange      EXHF   =         0.00000000
  -V(xc)+E(xc)   XCENC  =       359.83402562
  PAW double counting   =     58051.79330477   -58993.34020577
  entropy T*S    EENTRO =        -0.07947675
  eigenvalues    EBANDS =      3769.19030724
  atomic energy  EATOM  =     64202.33668287
  Solvation  Ediel_sol  =         0.00000000
  ---------------------------------------------------
  free energy    TOTEN  =      -879.48845465 eV

  energy without entropy =     -879.40897791  energy(sigma->0) =     -879.46196240


--------------------------------------------------------------------------------------------------------




--------------------------------------- Iteration      1(  12)  ---------------------------------------


    POTLOK:  cpu time    0.2820: real time    0.2825
    SETDIJ:  cpu time    0.0547: real time    0.0547
    EDDIAG:  cpu time    6.1297: real time    6.1298
  RMM-DIIS:  cpu time   31.4667: real time   31.4649
    ORTHCH:  cpu time    1.3699: real time    1.3698
       DOS:  cpu time    0.0084: real time    0.0084
    CHARGE:  cpu time    2.2963: real time    2.2962
    MIXING:  cpu time    0.0103: real time    0.0103
    --------------------------------------------
      LOOP:  cpu time   41.6180: real time   41.6166

 eigenvalue-minimisations  :  5238
 total energy-change (2. order) :-0.1161912E-02  (-0.6453922E-02)
 number of electron     864.0000752 magnetization 
 augmentation part      444.6519775 magnetization 

 Broyden mixing:
  rms(total) = 0.13240E-01    rms(broyden)= 0.13239E-01
  rms(prec ) = 0.18063E-01
  weight for this iteration     100.00

 eigenvalues of (default mixing * dielectric matrix)
  average eigenvalue GAMMA=   1.2790
  2.6691  2.2234  0.9941  0.9941  0.9822  0.9822  0.1076

 Free energy of the ion-electron system (eV)
  ---------------------------------------------------
  alpha Z        PSCENC =      7300.31925852
  Ewald energy   TEWEN  =    -66232.83996889
  -Hartree energ DENC   =     -9346.30874542
  -exchange      EXHF   =         0.00000000
  -V(xc)+E(xc)   XCENC  =       360.25014190
  PAW double counting   =     58047.47767216   -58985.35545104
  entropy T*S    EENTRO =        -0.07662373
  eigenvalues    EBANDS =      3774.70741706
  atomic energy  EATOM  =     64202.33668287
  Solvation  Ediel_sol  =         0.00000000
  ---------------------------------------------------
  free energy    TOTEN  =      -879.48961656 eV

  energy without entropy =     -879.41299283  energy(sigma->0) =     -879.46407532


--------------------------------------------------------------------------------------------------------




--------------------------------------- Iteration      1(  13)  ---------------------------------------


    POTLOK:  cpu time    0.3029: real time    0.3033
    SETDIJ:  cpu time    0.0544: real time    0.0544
    EDDIAG:  cpu time    6.0939: real time    6.0936
  RMM-DIIS:  cpu time   36.6199: real time   36.6196
    ORTHCH:  cpu time    1.3982: real time    1.3981
       DOS:  cpu time    0.0083: real time    0.0083
    CHARGE:  cpu time    2.3975: real time    2.3974
    MIXING:  cpu time    0.0100: real time    0.0100
    --------------------------------------------
      LOOP:  cpu time   46.8850: real time   46.8847

 eigenvalue-minimisations  :  6166
 total energy-change (2. order) :-0.5582592E-03  (-0.9979440E-03)
 number of electron     864.0000752 magnetization 
 augmentation part      444.6324371 magnetization 

 Broyden mixing:
  rms(total) = 0.41898E-02    rms(broyden)= 0.41880E-02
  rms(prec ) = 0.56306E-02
  weight for this iteration     100.00

 eigenvalues of (default mixing * dielectric matrix)
  average eigenvalue GAMMA=   1.5061
  2.9644  2.5479  2.5479  0.9645  0.9645  1.0709  0.8807  0.1076

 Free energy of the ion-electron system (eV)
  ---------------------------------------------------
  alpha Z        PSCENC =      7300.31925852
  Ewald energy   TEWEN  =    -66232.83996889
  -Hartree energ DENC   =     -9348.07336454
  -exchange      EXHF   =         0.00000000
  -V(xc)+E(xc)   XCENC  =       360.32136384
  PAW double counting   =     58038.49110409   -58974.99884476
  entropy T*S    EENTRO =        -0.07570357
  eigenvalues    EBANDS =      3775.02929762
  atomic energy  EATOM  =     64202.33668287
  Solvation  Ediel_sol  =         0.00000000
  ---------------------------------------------------
  free energy    TOTEN  =      -879.49017482 eV

  energy without entropy =     -879.41447125  energy(sigma->0) =     -879.46494030


--------------------------------------------------------------------------------------------------------




--------------------------------------- Iteration      1(  14)  ---------------------------------------


    POTLOK:  cpu time    0.3097: real time    0.3099
    SETDIJ:  cpu time    0.0548: real time    0.0548
    EDDIAG:  cpu time    6.2480: real time    6.2480
  RMM-DIIS:  cpu time   35.0205: real time   35.0192
    ORTHCH:  cpu time    1.3282: real time    1.3282
       DOS:  cpu time    0.0085: real time    0.0085
    CHARGE:  cpu time    2.3986: real time    2.3984
    MIXING:  cpu time    0.0116: real time    0.0116
    --------------------------------------------
      LOOP:  cpu time   45.3800: real time   45.3787

 eigenvalue-minimisations  :  5849
 total energy-change (2. order) : 0.2721676E-04  (-0.1803906E-04)
 number of electron     864.0000752 magnetization 
 augmentation part      444.6366391 magnetization 

 Broyden mixing:
  rms(total) = 0.49657E-02    rms(broyden)= 0.49648E-02
  rms(prec ) = 0.68846E-02
  weight for this iteration     100.00

 eigenvalues of (default mixing * dielectric matrix)
  average eigenvalue GAMMA=   1.3814
  2.6375  2.4563  2.4563  0.1076  0.9627  0.9627  1.0846  0.9153  0.8497

 Free energy of the ion-electron system (eV)
  ---------------------------------------------------
  alpha Z        PSCENC =      7300.31925852
  Ewald energy   TEWEN  =    -66232.83996889
  -Hartree energ DENC   =     -9348.32421474
  -exchange      EXHF   =         0.00000000
  -V(xc)+E(xc)   XCENC  =       360.33471086
  PAW double counting   =     58035.75632636   -58971.94474174
  entropy T*S    EENTRO =        -0.07517103
  eigenvalues    EBANDS =      3774.94697018
  atomic energy  EATOM  =     64202.33668287
  Solvation  Ediel_sol  =         0.00000000
  ---------------------------------------------------
  free energy    TOTEN  =      -879.49014761 eV

  energy without entropy =     -879.41497657  energy(sigma->0) =     -879.46509059


--------------------------------------------------------------------------------------------------------




--------------------------------------- Iteration      1(  15)  ---------------------------------------


    POTLOK:  cpu time    0.2985: real time    0.2989
    SETDIJ:  cpu time    0.0551: real time    0.0550
    EDDIAG:  cpu time    6.1363: real time    6.1360
  RMM-DIIS:  cpu time   28.5551: real time   28.5550
    ORTHCH:  cpu time    1.4068: real time    1.4068
       DOS:  cpu time    0.0085: real time    0.0085
    CHARGE:  cpu time    2.4775: real time    2.4773
    MIXING:  cpu time    0.0143: real time    0.0143
    --------------------------------------------
      LOOP:  cpu time   38.9521: real time   38.9519

 eigenvalue-minimisations  :  4718
 total energy-change (2. order) : 0.8816948E-04  ( 0.2879511E-04)
 number of electron     864.0000752 magnetization 
 augmentation part      444.6247364 magnetization 

 Broyden mixing:
  rms(total) = 0.98108E-03    rms(broyden)= 0.98079E-03
  rms(prec ) = 0.13389E-02
  weight for this iteration     100.00

 eigenvalues of (default mixing * dielectric matrix)
  average eigenvalue GAMMA=   1.4471
  2.6463  2.6463  2.1289  2.1289  0.1076  0.9631  0.9631  1.0372  0.9249  0.9249

 Free energy of the ion-electron system (eV)
  ---------------------------------------------------
  alpha Z        PSCENC =      7300.31925852
  Ewald energy   TEWEN  =    -66232.83996889
  -Hartree energ DENC   =     -9348.77455462
  -exchange      EXHF   =         0.00000000
  -V(xc)+E(xc)   XCENC  =       360.35404719
  PAW double counting   =     58034.12424775   -58970.20748717
  entropy T*S    EENTRO =        -0.07468154
  eigenvalues    EBANDS =      3775.27239643
  atomic energy  EATOM  =     64202.33668287
  Solvation  Ediel_sol  =         0.00000000
  ---------------------------------------------------
  free energy    TOTEN  =      -879.49005944 eV

  energy without entropy =     -879.41537790  energy(sigma->0) =     -879.46516559


--------------------------------------------------------------------------------------------------------




--------------------------------------- Iteration      1(  16)  ---------------------------------------


    POTLOK:  cpu time    0.2961: real time    0.2972
    SETDIJ:  cpu time    0.0537: real time    0.0537
    EDDIAG:  cpu time    5.9724: real time    5.9722
  RMM-DIIS:  cpu time   31.6446: real time   31.6429
    ORTHCH:  cpu time    1.4140: real time    1.4139
       DOS:  cpu time    0.0085: real time    0.0085
    CHARGE:  cpu time    2.4793: real time    2.4792
    MIXING:  cpu time    0.0118: real time    0.0118
    --------------------------------------------
      LOOP:  cpu time   41.8803: real time   41.8793

 eigenvalue-minimisations  :  5285
 total energy-change (2. order) : 0.4744009E-04  ( 0.2658170E-04)
 number of electron     864.0000752 magnetization 
 augmentation part      444.6156012 magnetization 

 Broyden mixing:
  rms(total) = 0.82506E-03    rms(broyden)= 0.82499E-03
  rms(prec ) = 0.10860E-02
  weight for this iteration     100.00

 eigenvalues of (default mixing * dielectric matrix)
  average eigenvalue GAMMA=   1.3814
  2.5845  2.2471  2.2471  2.2103  0.1076  1.2011  0.9686  0.9686  0.9845  0.8379
  0.8379

 Free energy of the ion-electron system (eV)
  ---------------------------------------------------
  alpha Z        PSCENC =      7300.31925852
  Ewald energy   TEWEN  =    -66232.83996889
  -Hartree energ DENC   =     -9349.03579800
  -exchange      EXHF   =         0.00000000
  -V(xc)+E(xc)   XCENC  =       360.36548406
  PAW double counting   =     58034.20665170   -58970.22308705
  entropy T*S    EENTRO =        -0.07423898
  eigenvalues    EBANDS =      3775.45500377
  atomic energy  EATOM  =     64202.33668287
  Solvation  Ediel_sol  =         0.00000000
  ---------------------------------------------------
  free energy    TOTEN  =      -879.49001200 eV

  energy without entropy =     -879.41577302  energy(sigma->0) =     -879.46526567


--------------------------------------------------------------------------------------------------------




--------------------------------------- Iteration      1(  17)  ---------------------------------------


    POTLOK:  cpu time    0.2867: real time    0.2877
    SETDIJ:  cpu time    0.0566: real time    0.0566
    EDDIAG:  cpu time    5.9605: real time    5.9605
  RMM-DIIS:  cpu time   27.7992: real time   27.7976
    ORTHCH:  cpu time    1.4088: real time    1.4087
       DOS:  cpu time    0.0082: real time    0.0082
    CHARGE:  cpu time    2.4790: real time    2.4791
    MIXING:  cpu time    0.0140: real time    0.0140
    --------------------------------------------
      LOOP:  cpu time   38.0131: real time   38.0122

 eigenvalue-minimisations  :  4599
[...]
   0.104E-01 0.103E-01 0.143E-04   -.205E-01 -.202E-01 -.277E-04   0.893E-21 0.245E-21 -.136E-19   -.309E-06 -.334E-06 0.152E-07
   -.105E-01 -.142E-04 0.142E-04   0.205E-01 0.277E-04 -.277E-04   0.412E-25 -.424E-20 -.212E-20   0.320E-06 -.153E-07 0.152E-07
   -.105E-01 0.103E-01 -.103E-01   0.205E-01 -.202E-01 0.202E-01   0.432E-25 0.895E-20 0.847E-20   0.320E-06 -.334E-06 0.323E-06
   -.142E-04 -.103E-01 -.103E-01   0.277E-04 0.202E-01 0.202E-01   -.847E-21 -.424E-21 0.352E-19   -.154E-07 0.338E-06 0.338E-06
   -.142E-04 0.142E-04 0.142E-04   0.277E-04 -.277E-04 -.277E-04   0.847E-21 0.208E-19 0.309E-19   -.153E-07 0.152E-07 0.152E-07
   0.103E-01 -.103E-01 0.142E-04   -.202E-01 0.202E-01 -.277E-04   -.167E-20 0.889E-20 -.102E-19   -.334E-06 0.323E-06 0.152E-07
   0.103E-01 0.142E-04 -.103E-01   -.202E-01 -.277E-04 0.202E-01   0.291E-20 -.847E-20 -.165E-19   -.334E-06 0.152E-07 0.323E-06
   -.103E-01 -.103E-01 -.103E-01   0.202E-01 0.202E-01 0.202E-01   -.437E-25 -.593E-20 -.127E-19   0.338E-06 0.338E-06 0.338E-06
   -.103E-01 0.142E-04 0.142E-04   0.202E-01 -.277E-04 -.277E-04   0.424E-25 0.127E-20 0.237E-19   0.323E-06 0.152E-07 0.152E-07
   0.142E-04 -.103E-01 0.142E-04   -.277E-04 0.202E-01 -.277E-04   0.254E-20 -.169E-20 0.678E-20   0.152E-07 0.323E-06 0.152E-07
   0.142E-04 0.142E-04 -.103E-01   -.277E-04 -.277E-04 0.202E-01   -.169E-20 0.508E-20 -.932E-20   0.152E-07 0.152E-07 0.323E-06
   0.105E-01 -.103E-01 -.103E-01   -.205E-01 0.202E-01 0.202E-01   0.179E-21 -.208E-19 -.127E-20   -.324E-06 0.338E-06 0.338E-06
   0.105E-01 0.142E-04 0.143E-04   -.205E-01 -.277E-04 -.277E-04   -.133E-20 -.339E-20 0.216E-19   -.309E-06 0.152E-07 0.152E-07
   -.104E-01 -.103E-01 0.142E-04   0.205E-01 0.202E-01 -.277E-04   -.132E-24 0.212E-20 0.000E+00   0.319E-06 0.323E-06 0.152E-07
   -.104E-01 0.142E-04 -.103E-01   0.205E-01 -.277E-04 0.202E-01   0.131E-24 -.596E-25 0.551E-20   0.319E-06 0.152E-07 0.323E-06
   -.142E-04 0.104E-01 -.103E-01   0.277E-04 -.205E-01 0.202E-01   0.424E-21 -.107E-19 0.258E-19   -.154E-07 -.324E-06 0.338E-06
   -.142E-04 -.105E-01 0.142E-04   0.277E-04 0.205E-01 -.277E-04   -.169E-20 -.110E-19 0.102E-19   -.153E-07 0.320E-06 0.152E-07
   0.103E-01 0.104E-01 0.143E-04   -.202E-01 -.205E-01 -.277E-04   0.615E-21 0.614E-20 0.364E-19   -.334E-06 -.309E-06 0.152E-07
   0.103E-01 -.105E-01 -.103E-01   -.202E-01 0.205E-01 0.202E-01   0.407E-21 -.212E-20 0.593E-20   -.334E-06 0.320E-06 0.323E-06
   -.103E-01 0.105E-01 -.103E-01   0.202E-01 -.205E-01 0.202E-01   0.439E-25 -.601E-20 0.254E-19   0.338E-06 -.324E-06 0.338E-06
   -.103E-01 -.104E-01 0.142E-04   0.202E-01 0.205E-01 -.277E-04   -.131E-24 0.296E-20 -.106E-19   0.323E-06 0.319E-06 0.152E-07
   0.142E-04 0.105E-01 0.143E-04   -.277E-04 -.205E-01 -.277E-04   0.847E-21 0.614E-20 0.339E-19   0.152E-07 -.309E-06 0.152E-07
   0.142E-04 -.104E-01 -.103E-01   -.277E-04 0.205E-01 0.202E-01   -.169E-20 -.889E-20 -.424E-20   0.152E-07 0.319E-06 0.323E-06
   0.105E-01 0.105E-01 -.103E-01   -.205E-01 -.205E-01 0.202E-01   -.460E-21 0.101E-19 -.127E-20   -.324E-06 -.324E-06 0.338E-06
   0.104E-01 -.104E-01 0.142E-04   -.205E-01 0.205E-01 -.277E-04   -.220E-21 -.381E-20 0.402E-19   -.309E-06 0.319E-06 0.152E-07
   -.104E-01 0.104E-01 0.142E-04   0.205E-01 -.205E-01 -.277E-04   0.423E-21 0.445E-20 0.237E-19   0.319E-06 -.309E-06 0.152E-07
   -.105E-01 -.105E-01 -.103E-01   0.205E-01 0.205E-01 0.202E-01   -.424E-21 -.593E-20 0.178E-19   0.320E-06 0.320E-06 0.323E-06
   -.142E-04 -.142E-04 0.105E-01   0.277E-04 0.277E-04 -.205E-01   0.866E-25 -.178E-19 -.137E-19   -.154E-07 -.154E-07 -.325E-06
   -.142E-04 0.103E-01 -.104E-01   0.277E-04 -.202E-01 0.205E-01   0.847E-21 0.557E-20 0.313E-19   -.153E-07 -.334E-06 0.319E-06
   0.103E-01 -.142E-04 -.104E-01   -.202E-01 0.277E-04 0.205E-01   0.903E-21 0.423E-21 0.593E-20   -.334E-06 -.153E-07 0.319E-06
   0.103E-01 0.103E-01 0.105E-01   -.202E-01 -.202E-01 -.205E-01   -.321E-21 -.153E-20 0.187E-19   -.334E-06 -.334E-06 -.309E-06
   -.103E-01 -.142E-04 0.104E-01   0.202E-01 0.277E-04 -.205E-01   0.852E-25 0.889E-20 0.235E-21   0.338E-06 -.154E-07 -.324E-06
   -.103E-01 0.103E-01 -.105E-01   0.202E-01 -.202E-01 0.205E-01   0.427E-25 0.157E-19 0.144E-19   0.323E-06 -.334E-06 0.320E-06
   0.142E-04 -.142E-04 -.105E-01   -.277E-04 0.277E-04 0.205E-01   0.847E-21 0.123E-19 0.932E-20   0.152E-07 -.153E-07 0.320E-06
   0.142E-04 0.103E-01 0.104E-01   -.277E-04 -.202E-01 -.205E-01   -.127E-20 0.201E-19 -.549E-20   0.152E-07 -.334E-06 -.309E-06
   0.104E-01 -.142E-04 0.104E-01   -.205E-01 0.277E-04 -.205E-01   0.275E-21 0.106E-19 0.702E-20   -.324E-06 -.154E-07 -.324E-06
   0.105E-01 0.103E-01 -.105E-01   -.205E-01 -.202E-01 0.205E-01   -.148E-20 -.418E-20 0.483E-19   -.309E-06 -.334E-06 0.320E-06
   -.104E-01 -.142E-04 -.104E-01   0.205E-01 0.277E-04 0.205E-01   0.424E-21 0.593E-20 -.762E-20   0.319E-06 -.153E-07 0.319E-06
   -.105E-01 0.103E-01 0.105E-01   0.205E-01 -.202E-01 -.205E-01   -.424E-21 0.694E-20 0.141E-22   0.320E-06 -.334E-06 -.309E-06
   -.142E-04 -.103E-01 0.104E-01   0.277E-04 0.202E-01 -.205E-01   0.127E-20 0.110E-19 -.260E-19   -.154E-07 0.338E-06 -.324E-06
   -.142E-04 0.142E-04 -.105E-01   0.277E-04 -.277E-04 0.205E-01   0.847E-21 -.296E-20 -.326E-19   -.153E-07 0.152E-07 0.320E-06
   0.103E-01 -.103E-01 -.105E-01   -.202E-01 0.202E-01 0.205E-01   -.146E-20 0.678E-20 0.186E-19   -.334E-06 0.323E-06 0.320E-06
   0.103E-01 0.142E-04 0.104E-01   -.202E-01 -.277E-04 -.205E-01   0.195E-20 -.974E-20 -.294E-20   -.334E-06 0.152E-07 -.309E-06
   -.103E-01 -.103E-01 0.105E-01   0.202E-01 0.202E-01 -.205E-01   -.881E-25 0.424E-20 -.120E-19   0.338E-06 0.338E-06 -.324E-06
   -.103E-01 0.142E-04 -.104E-01   0.202E-01 -.277E-04 0.205E-01   0.130E-24 -.296E-20 -.424E-19   0.323E-06 0.152E-07 0.319E-06
   0.142E-04 -.103E-01 -.104E-01   -.277E-04 0.202E-01 0.205E-01   0.127E-20 0.169E-20 -.148E-19   0.152E-07 0.323E-06 0.319E-06
   0.142E-04 0.142E-04 0.105E-01   -.277E-04 -.277E-04 -.205E-01   -.423E-21 0.169E-20 -.294E-20   0.152E-07 0.152E-07 -.309E-06
   0.105E-01 -.103E-01 0.105E-01   -.205E-01 0.202E-01 -.205E-01   0.120E-20 -.762E-20 -.125E-19   -.324E-06 0.338E-06 -.324E-06
   0.104E-01 0.142E-04 -.104E-01   -.205E-01 -.277E-04 0.205E-01   0.492E-21 -.762E-20 -.326E-19   -.309E-06 0.152E-07 0.319E-06
   -.105E-01 -.103E-01 -.105E-01   0.205E-01 0.202E-01 0.205E-01   0.423E-21 -.424E-20 -.466E-20   0.320E-06 0.323E-06 0.320E-06
   -.104E-01 0.142E-04 0.104E-01   0.205E-01 -.277E-04 -.205E-01   -.423E-21 -.165E-19 -.633E-20   0.319E-06 0.152E-07 -.309E-06
   -.142E-04 0.104E-01 0.104E-01   0.277E-04 -.205E-01 -.205E-01   0.820E-27 -.532E-20 -.104E-20   -.154E-07 -.324E-06 -.324E-06
   -.142E-04 -.104E-01 -.104E-01   0.277E-04 0.205E-01 0.205E-01   0.127E-20 -.119E-19 0.102E-19   -.153E-07 0.319E-06 0.319E-06
   0.103E-01 0.105E-01 -.105E-01   -.202E-01 -.205E-01 0.205E-01   0.210E-21 0.708E-20 -.178E-19   -.334E-06 -.309E-06 0.320E-06
   0.103E-01 -.105E-01 0.105E-01   -.202E-01 0.205E-01 -.205E-01   0.677E-22 0.466E-20 -.224E-19   -.334E-06 0.320E-06 -.309E-06
   -.103E-01 0.105E-01 0.105E-01   0.202E-01 -.205E-01 -.205E-01   -.551E-27 -.405E-20 -.116E-19   0.338E-06 -.324E-06 -.324E-06
   -.103E-01 -.105E-01 -.105E-01   0.202E-01 0.205E-01 0.205E-01   -.431E-25 0.296E-20 -.123E-19   0.323E-06 0.320E-06 0.320E-06
   0.142E-04 0.104E-01 -.104E-01   -.277E-04 -.205E-01 0.205E-01   -.212E-20 0.122E-19 -.250E-19   0.152E-07 -.309E-06 0.319E-06
   0.142E-04 -.104E-01 0.104E-01   -.277E-04 0.205E-01 -.205E-01   -.127E-20 -.847E-21 0.110E-19   0.152E-07 0.319E-06 -.309E-06
   0.105E-01 0.105E-01 0.105E-01   -.205E-01 -.205E-01 -.205E-01   0.769E-21 0.129E-19 -.345E-19   -.324E-06 -.324E-06 -.324E-06
   0.105E-01 -.105E-01 -.105E-01   -.205E-01 0.205E-01 0.205E-01   -.397E-22 -.889E-20 -.551E-20   -.309E-06 0.320E-06 0.320E-06
   -.105E-01 0.105E-01 -.105E-01   0.205E-01 -.205E-01 0.205E-01   0.433E-25 0.211E-19 -.466E-20   0.320E-06 -.309E-06 0.320E-06
   -.105E-01 -.105E-01 0.105E-01   0.205E-01 0.205E-01 -.205E-01   -.869E-25 0.635E-20 0.424E-20   0.320E-06 0.320E-06 -.309E-06
 -----------------------------------------------------------------------------------------------
   0.113E-07 0.113E-07 0.112E-07   -.113E-12 -.805E-12 -.184E-11   0.281E-20 0.238E-18 0.235E-20   -.971E-08 -.971E-08 -.971E-08
 
 
 POSITION                                       TOTAL-FORCE (eV/Angst)
 -----------------------------------------------------------------------------------
     -0.00000      0.00000      0.00000        -0.000000     -0.000000      0.000000
     -0.00000      1.72419      1.72419        -0.000000     -0.000000     -0.000000
      1.72419     -0.00000      1.72419         0.000000     -0.000000     -0.000000
      1.72419      1.72419     -0.00000         0.000000      0.000000      0.000000
      3.44832     -0.00000     -0.00000         0.000000      0.000000     -0.000000
      3.44832      1.72419      1.72419         0.000000     -0.000000     -0.000000
      5.17251     -0.00000      1.72419        -0.000000      0.000000      0.000000
      5.17251      1.72419     -0.00000        -0.000000     -0.000000     -0.000000
      6.89670     -0.00000      0.00000         0.000000     -0.000000     -0.000000
      6.89670      1.72419      1.72419        -0.000000      0.000000     -0.000000
      8.62082     -0.00000      1.72419        -0.000000      0.000000      0.000000
      8.62082      1.72419     -0.00000         0.000000     -0.000000     -0.000000
     -0.00000      3.44832     -0.00000        -0.000000     -0.000000      0.000000
     -0.00000      5.17251      1.72419        -0.000000      0.000000      0.000000
      1.72419      3.44832      1.72419         0.000000      0.000000      0.000000
      1.72419      5.17251     -0.00000        -0.000000      0.000000      0.000000
      3.44832      3.44832     -0.00000        -0.000000      0.000000     -0.000000
      3.44832      5.17251      1.72419        -0.000000      0.000000      0.000000
      5.17251      3.44832      1.72419        -0.000000     -0.000000      0.000000
      5.17251      5.17251     -0.00000        -0.000000     -0.000000     -0.000000
      6.89670      3.44832     -0.00000        -0.000000     -0.000000     -0.000000
      6.89670      5.17251      1.72419         0.000000      0.000000      0.000000
      8.62082      3.44832      1.72419         0.000000     -0.000000     -0.000000
      8.62082      5.17251     -0.00000         0.000000     -0.000000     -0.000000
     -0.00000      6.89670     -0.00000        -0.000000     -0.000000     -0.000000
     -0.00000      8.62082      1.72419        -0.000000     -0.000000     -0.000000
      1.72419      6.89670      1.72419         0.000000      0.000000     -0.000000
      1.72419      8.62082     -0.00000         0.000000     -0.000000     -0.000000
      3.44832      6.89670     -0.00000         0.000000     -0.000000     -0.000000
      3.44832      8.62082      1.72419         0.000000      0.000000     -0.000000
      5.17251      6.89670      1.72419         0.000000      0.000000     -0.000000
      5.17251      8.62082     -0.00000        -0.000000      0.000000     -0.000000
      6.89670      6.89670     -0.00000         0.000000     -0.000000     -0.000000
      6.89670      8.62082      1.72419         0.000000     -0.000000     -0.000000
      8.62082      6.89670      1.72419         0.000000      0.000000     -0.000000
      8.62082      8.62082     -0.00000         0.000000      0.000000      0.000000
      0.00000     -0.00000      3.44832        -0.000000     -0.000000      0.000000
      0.00000      1.72419      5.17251        -0.000000      0.000000      0.000000
      1.72419     -0.00000      5.17251        -0.000000     -0.000000      0.000000
      1.72419      1.72419      3.44832        -0.000000     -0.000000     -0.000000
      3.44832     -0.00000      3.44832         0.000000      0.000000     -0.000000
      3.44832      1.72419      5.17251         0.000000      0.000000     -0.000000
      5.17251     -0.00000      5.17251        -0.000000      0.000000      0.000000
      5.17251      1.72419      3.44832        -0.000000     -0.000000     -0.000000
      6.89670     -0.00000      3.44832         0.000000     -0.000000      0.000000
      6.89670      1.72419      5.17251        -0.000000      0.000000     -0.000000
      8.62082     -0.00000      5.17251         0.000000     -0.000000      0.000000
      8.62082      1.72419      3.44832         0.000000     -0.000000     -0.000000
     -0.00000      3.44832      3.44832         0.000000     -0.000000      0.000000
     -0.00000      5.17251      5.17251        -0.000000      0.000000      0.000000
      1.72419      3.44832      5.17251        -0.000000      0.000000      0.000000
      1.72419      5.17251      3.44832        -0.000000      0.000000     -0.000000
      3.44832      3.44832      3.44832        -0.000000      0.000000      0.000000
      3.44832      5.17251      5.17251         0.000000      0.000000      0.000000
      5.17251      3.44832      5.17251        -0.000000      0.000000      0.000000
      5.17251      5.17251      3.44832        -0.000000     -0.000000      0.000000
      6.89670      3.44832      3.44832        -0.000000     -0.000000      0.000000
      6.89670      5.17251      5.17251         0.000000      0.000000      0.000000
      8.62082      3.44832      5.17251         0.000000      0.000000     -0.000000
      8.62082      5.17251      3.44832         0.000000     -0.000000      0.000000
     -0.00000      6.89670      3.44832        -0.000000     -0.000000      0.000000
     -0.00000      8.62082      5.17251        -0.000000     -0.000000     -0.000000
      1.72419      6.89670      5.17251        -0.000000      0.000000     -0.000000
      1.72419      8.62082      3.44832         0.000000     -0.000000      0.000000
      3.44832      6.89670      3.44832        -0.000000      0.000000      0.000000
      3.44832      8.62082      5.17251         0.000000     -0.000000     -0.000000
      5.17251      6.89670      5.17251        -0.000000     -0.000000      0.000000
      5.17251      8.62082      3.44832        -0.000000      0.000000      0.000000
      6.89670      6.89670      3.44832         0.000000     -0.000000      0.000000
      6.89670      8.62082      5.17251         0.000000      0.000000     -0.000000
      8.62082      6.89670      5.17251        -0.000000     -0.000000     -0.000000
      8.62082      8.62082      3.44832         0.000000      0.000000     -0.000000
      0.00000     -0.00000      6.89670        -0.000000     -0.000000     -0.000000
      0.00000      1.72419      8.62082        -0.000000      0.000000      0.000000
      1.72419     -0.00000      8.62082        -0.000000     -0.000000      0.000000
      1.72419      1.72419      6.89670         0.000000     -0.000000      0.000000
      3.44832     -0.00000      6.89670         0.000000      0.000000     -0.000000
      3.44832      1.72419      8.62082        -0.000000     -0.000000      0.000000
      5.17251     -0.00000      8.62082        -0.000000      0.000000     -0.000000
      5.17251      1.72419      6.89670        -0.000000     -0.000000     -0.000000
      6.89670     -0.00000      6.89670        -0.000000      0.000000     -0.000000
      6.89670      1.72419      8.62082         0.000000     -0.000000      0.000000
      8.62082     -0.00000      8.62082        -0.000000      0.000000     -0.000000
      8.62082      1.72419      6.89670         0.000000      0.000000      0.000000
      0.00000      3.44832      6.89670        -0.000000     -0.000000      0.000000
     -0.00000      5.17251      8.62082        -0.000000      0.000000     -0.000000
      1.72419      3.44832      8.62082        -0.000000      0.000000      0.000000
      1.72419      5.17251      6.89670        -0.000000      0.000000      0.000000
      3.44832      3.44832      6.89670        -0.000000     -0.000000     -0.000000
      3.44832      5.17251      8.62082        -0.000000     -0.000000      0.000000
      5.17251      3.44832      8.62082        -0.000000      0.000000     -0.000000
      5.17251      5.17251      6.89670        -0.000000      0.000000     -0.000000
      6.89670      3.44832      6.89670        -0.000000     -0.000000     -0.000000
      6.89670      5.17251      8.62082         0.000000      0.000000     -0.000000
      8.62082      3.44832      8.62082         0.000000      0.000000      0.000000
      8.62082      5.17251      6.89670         0.000000      0.000000     -0.000000
     -0.00000      6.89670      6.89670        -0.000000     -0.000000      0.000000
     -0.00000      8.62082      8.62082        -0.000000     -0.000000      0.000000
      1.72419      6.89670      8.62082         0.000000      0.000000      0.000000
      1.72419      8.62082      6.89670         0.000000     -0.000000     -0.000000
      3.44832      6.89670      6.89670         0.000000      0.000000     -0.000000
      3.44832      8.62082      8.62082         0.000000      0.000000      0.000000
      5.17251      6.89670      8.62082         0.000000      0.000000      0.000000
      5.17251      8.62082      6.89670        -0.000000      0.000000      0.000000
      6.89670      6.89670      6.89670         0.000000     -0.000000     -0.000000
      6.89670      8.62082      8.62082         0.000000      0.000000      0.000000
      8.62082      6.89670      8.62082         0.000000      0.000000      0.000000
      8.62082      8.62082      6.89670        -0.000000     -0.000000     -0.000000
 -----------------------------------------------------------------------------------
    total drift:                                0.000000      0.000000      0.000000


--------------------------------------------------------------------------------------------------------



  FREE ENERGIE OF THE ION-ELECTRON SYSTEM (eV)
  ---------------------------------------------------
  free  energy   TOTEN  =      -879.49784490 eV

  energy  without entropy=     -879.42844048  energy(sigma->0) =     -879.47471009
 
 d Force = 0.0000000E+00[ 0.000E+00, 0.000E+00]  d Energy = 0.1797549E-01-0.180E-01
 d Force = 0.0000000E+00[ 0.000E+00, 0.000E+00]  d Ewald  = 0.9629439E+02-0.963E+02


--------------------------------------------------------------------------------------------------------


    POTLOK:  cpu time    0.3321: real time    0.3321


--------------------------------------------------------------------------------------------------------




--------------------------------------------------------------------------------------------------------


  
 reached required accuracy - stopping structural energy minimisation
     LOOP+:  cpu time  445.0375: real time  445.0422
    4ORBIT:  cpu time    0.0000: real time    0.0000

 total amount of memory used by VASP MPI-rank0   216870. kBytes
=======================================================================

   base      :      30000. kBytes
   nonlr-proj:      24899. kBytes
   fftplans  :      15464. kBytes
   grid      :      21835. kBytes
   one-center:        419. kBytes
   wavefun   :     124253. kBytes
 
  
  
 General timing and accounting informations for this job:
 ========================================================
  
                  Total CPU time used (sec):     2465.579
                            User time (sec):     2461.076
                          System time (sec):        4.503
                         Elapsed time (sec):     2465.666
  
                   Maximum memory used (kb):      278300.
                   Average memory used (kb):           0.
  
                          Minor page faults:       146569
                          Major page faults:            0
                 Voluntary context switches:         1069
