<?xml version="1.0" encoding="ISO-8859-1"?>
<modeling>
 <generator>
  <i name="program" type="string">vasp </i>
  <i name="version" type="string">5.4.4.18Apr17-6-g9f103f2a35  </i>
  <i name="subversion" type="string">(build Aug 17 2017 06:00:38) complex            parallel </i>
  <i name="platform" type="string">LinuxIFC </i>
  <i name="date" type="string">2019 07 12 </i>
  <i name="time" type="string">14:47:01 </i>
 </generator>
 <incar>
  <i type="string" name="SYSTEM">Opt</i>
  <i type="int" name="ISTART">     0</i>
  <i type="string" name="PREC">normal</i>
  <i type="string" name="ALGO"> Fast</i>
  <i type="int" name="ISPIN">     1</i>
  <i type="int" name="ICHARG">     2</i>
  <i type="int" name="NELM">   400</i>
  <i type="int" name="IBRION">     2</i>
  <i name="EDIFF">      0.00000100</i>
  <i name="EDIFFG">     -0.01000000</i>
  <i type="int" name="NSW">   100</i>
  <i type="int" name="ISIF">     3</i>
  <i name="ENCUT">    500.00000000</i>
  <i type="int" name="NGX">    72</i>
  <i type="int" name="NGY">    72</i>
  <i type="int" name="NGZ">    72</i>
  <i name="POTIM">      0.50000000</i>
  <i type="string" name="LREAL">Auto</i>
  <i type="logical" name="LWAVE"> F  </i>
  <i type="logical" name="LCHARG"> F  </i>
  <v type="int" name="KPOINT_BSE">    -1     0     0     0</v>
  <i type="int" name="NELM">   400</i>
 </incar>
 <structure name="primitive_cell" >
  <crystal>
   <varray name="basis" >
    <v>       3.44492529       0.00000000       0.00000000 </v>
    <v>       0.00000000       3.44492529       0.00000000 </v>
    <v>       0.00000000       0.00000000       3.44492524 </v>
   </varray>
   <i name="volume">     40.88268566 </i>
   <varray name="rec_basis" >
    <v>       0.29028206       0.00000000       0.00000000 </v>
    <v>       0.00000000       0.29028206       0.00000000 </v>
    <v>       0.00000000       0.00000000       0.29028206 </v>
   </varray>
  </crystal>
  <varray name="positions" >
   <v>       0.00000000       0.00000000       0.00000000 </v>
   <v>       0.00000000      -0.49998976      -0.49998975 </v>
   <v>      -0.49998976       0.00000000      -0.49998975 </v>
   <v>      -0.49998976      -0.49998976       0.00000000 </v>
  </varray>
 </structure>
 <varray name="primitive_index" >
  <v type="int" >        1 </v>
  <v type="int" >        2 </v>
  <v type="int" >        3 </v>
  <v type="int" >        4 </v>
 </varray>
 <kpoints>
  <generation param="Monkhorst-Pack">
   <v type="int" name="divisions">       4        4        4 </v>
   <v name="usershift">      0.00000000       0.00000000       0.00000000 </v>
   <v name="genvec1">      0.25000000       0.00000000       0.00000000 </v>
   <v name="genvec2">      0.00000000       0.25000000       0.00000000 </v>
   <v name="genvec3">      0.00000000       0.00000000       0.25000000 </v>
   <v name="shift">      0.50000000       0.50000000       0.50000000 </v>
  </generation>
  <varray name="kpointlist" >
   <v>       0.12500000       0.12500000       0.12500000 </v>
   <v>       0.37500000       0.12500000       0.12500000 </v>
   <v>       0.37500000       0.37500000       0.12500000 </v>
   <v>       0.37500000       0.37500000       0.37500000 </v>
  </varray>
  <varray name="weights" >
   <v>       0.12500000 </v>
   <v>       0.37500000 </v>
   <v>       0.37500000 </v>
   <v>       0.12500000 </v>
  </varray>
 </kpoints>
 <parameters>
  <separator name="general" >
   <i type="string" name="SYSTEM">Opt</i>
   <i type="logical" name="LCOMPAT"> F  </i>
  </separator>
  <separator name="electronic" >
   <i type="string" name="PREC">normal</i>
   <i name="ENMAX">    500.00000000</i>
   <i name="ENAUG">    511.36800000</i>
   <i name="EDIFF">      0.00000100</i>
   <i type="int" name="IALGO">    68</i>
   <i type="int" name="IWAVPR">    11</i>
   <i type="int" name="NBANDS">   518</i>
   <i name="NELECT">    864.00000000</i>
   <i type="int" name="TURBO">     0</i>
   <i type="int" name="IRESTART">     0</i>
   <i type="int" name="NREBOOT">     0</i>
   <i type="int" name="NMIN">     0</i>
   <i name="EREF">      0.00000000</i>
   <separator name="electronic smearing" >
    <i type="int" name="ISMEAR">     1</i>
    <i name="SIGMA">      0.20000000</i>
    <i name="KSPACING">      0.50000000</i>
    <i type="logical" name="KGAMMA"> T  </i>
   </separator>
   <separator name="electronic projectors" >
    <i type="logical" name="LREAL"> T  </i>
    <v name="ROPT">     -0.00050000</v>
    <i type="int" name="LMAXPAW">  -100</i>
    <i type="int" name="LMAXMIX">     2</i>
    <i type="logical" name="NLSPLINE"> F  </i>
   </separator>
   <separator name="electronic startup" >
    <i type="int" name="ISTART">     0</i>
    <i type="int" name="ICHARG">     2</i>
    <i type="int" name="INIWAV">     1</i>
   </separator>
   <separator name="electronic spin" >
    <i type="int" name="ISPIN">     1</i>
    <i type="logical" name="LNONCOLLINEAR"> F  </i>
    <v name="MAGMOM">      1.00000000      1.00000000      1.00000000      1.00000000      1.00000000      1.00000000      1.00000000      1.00000000      1.00000000      1.00000000      1.00000000      1.00000000      1.00000000      1.00000000      1.00000000      1.00000000      1.00000000      1.00000000      1.00000000      1.00000000
      1.00000000      1.00000000      1.00000000      1.00000000      1.00000000      1.00000000      1.00000000      1.00000000      1.00000000      1.00000000      1.00000000      1.00000000      1.00000000      1.00000000      1.00000000      1.00000000      1.00000000      1.00000000      1.00000000      1.00000000
      1.00000000      1.00000000      1.00000000      1.00000000      1.00000000      1.00000000      1.00000000      1.00000000      1.00000000      1.00000000      1.00000000      1.00000000      1.00000000      1.00000000      1.00000000      1.00000000      1.00000000      1.00000000      1.00000000      1.00000000
      1.00000000      1.00000000      1.00000000      1.00000000      1.00000000      1.00000000      1.00000000      1.00000000      1.00000000      1.00000000      1.00000000      1.00000000      1.00000000      1.00000000      1.00000000      1.00000000      1.00000000      1.00000000      1.00000000      1.00000000
      1.00000000      1.00000000      1.00000000      1.00000000      1.00000000      1.00000000      1.00000000      1.00000000      1.00000000      1.00000000      1.00000000      1.00000000      1.00000000      1.00000000      1.00000000      1.00000000      1.00000000      1.00000000      1.00000000      1.00000000
      1.00000000      1.00000000      1.00000000      1.00000000      1.00000000      1.00000000      1.00000000      1.00000000</v>
    <i name="NUPDOWN">     -1.00000000</i>
    <i type="logical" name="LSORBIT"> F  </i>
    <v name="SAXIS">      0.00000000      0.00000000      1.00000000</v>
    <i type="logical" name="LSPIRAL"> F  </i>
    <v name="QSPIRAL">      0.00000000      0.00000000      0.00000000</v>
    <i type="logical" name="LZEROZ"> F  </i>
   </separator>
   <separator name="electronic exchange-correlation" >
    <i type="logical" name="LASPH"> F  </i>
    <i type="logical" name="LMETAGGA"> F  </i>
   </separator>
   <separator name="electronic convergence" >
    <i type="int" name="NELM">   400</i>
    <i type="int" name="NELMDL">    -5</i>
    <i type="int" name="NELMIN">     2</i>
    <i name="ENINI">    500.00000000</i>
    <separator name="electronic convergence detail" >
     <i type="logical" name="LDIAG"> T  </i>
     <i type="logical" name="LSUBROT"> F  </i>
     <i name="WEIMIN">      0.00100000</i>
     <i name="EBREAK">      0.00000000</i>
     <i name="DEPER">      0.30000000</i>
     <i type="int" name="NRMM">     4</i>
     <i name="TIME">      0.40000000</i>
    </separator>
   </separator>
   <separator name="electronic mixer" >
    <i name="AMIX">      0.40000000</i>
    <i name="BMIX">      1.00000000</i>
    <i name="AMIN">      0.10000000</i>
    <i name="AMIX_MAG">      1.60000000</i>
    <i name="BMIX_MAG">      1.00000000</i>
    <separator name="electronic mixer details" >
     <i type="int" name="IMIX">     4</i>
     <i type="logical" name="MIXFIRST"> F  </i>
     <i type="int" name="MAXMIX">   -45</i>
     <i name="WC">    100.00000000</i>
     <i type="int" name="INIMIX">     1</i>
     <i type="int" name="MIXPRE">     1</i>
     <i type="int" name="MREMOVE">     5</i>
    </separator>
   </separator>
   <separator name="electronic dipolcorrection" >
    <i type="logical" name="LDIPOL"> F  </i>
    <i type="logical" name="LMONO"> F  </i>
    <i type="int" name="IDIPOL">     0</i>
    <i name="EPSILON">      1.00000000</i>
    <v name="DIPOL">   -100.00000000   -100.00000000   -100.00000000</v>
    <i name="EFIELD">      0.00000000</i>
   </separator>
  </separator>
  <separator name="grids" >
   <i type="int" name="NGX">    72</i>
   <i type="int" name="NGY">    72</i>
   <i type="int" name="NGZ">    72</i>
   <i type="int" name="NGXF">   144</i>
   <i type="int" name="NGYF">   144</i>
   <i type="int" name="NGZF">   144</i>
   <i type="logical" name="ADDGRID"> F  </i>
  </separator>
  <separator name="ionic" >
   <i type="int" name="NSW">   100</i>
   <i type="int" name="IBRION">     2</i>
   <i type="int" name="MDALGO">     0</i>
   <i type="int" name="ISIF">     3</i>
   <i name="PSTRESS">      0.00000000</i>
   <i name="EDIFFG">     -0.01000000</i>
   <i type="int" name="NFREE">     1</i>
   <i name="POTIM">      0.50000000</i>
   <i name="SMASS">     -3.00000000</i>
   <i name="SCALEE">      1.00000000</i>
  </separator>
  <separator name="ionic md" >
   <i name="TEBEG">      0.00010000</i>
   <i name="TEEND">      0.00010000</i>
   <i type="int" name="NBLOCK">     1</i>
   <i type="int" name="KBLOCK">   100</i>
   <i type="int" name="NPACO">   256</i>
   <i name="APACO">     16.00000000</i>
  </separator>
  <separator name="symmetry" >
   <i type="int" name="ISYM">     2</i>
   <i name="SYMPREC">      0.00001000</i>
  </separator>
  <separator name="dos" >
   <i type="int" name="LORBIT">     0</i>
   <v name="RWIGS">     -1.00000000</v>
   <i type="int" name="NEDOS">   301</i>
   <i name="EMIN">     10.00000000</i>
   <i name="EMAX">    -10.00000000</i>
   <i name="EFERMI">      0.00000000</i>
  </separator>
  <separator name="writing" >
   <i type="int" name="NWRITE">     2</i>
   <i type="logical" name="LWAVE"> F  </i>
   <i type="logical" name="LDOWNSAMPLE"> F  </i>
   <i type="logical" name="LCHARG"> F  </i>
   <i type="logical" name="LPARD"> F  </i>
   <i type="logical" name="LVTOT"> F  </i>
   <i type="logical" name="LVHAR"> F  </i>
   <i type="logical" name="LELF"> F  </i>
   <i type="logical" name="LOPTICS"> F  </i>
   <v name="STM">      0.00000000      0.00000000      0.00000000      0.00000000      0.00000000      0.00000000      0.00000000</v>
  </separator>
  <separator name="performance" >
   <i type="int" name="NPAR">     2</i>
   <i type="int" name="NSIM">     4</i>
   <i type="int" name="NBLK">    -1</i>
   <i type="logical" name="LPLANE"> T  </i>
   <i type="logical" name="LSCALAPACK"> T  </i>
   <i type="logical" name="LSCAAWARE"> F  </i>
   <i type="logical" name="LSCALU"> F  </i>
   <i type="logical" name="LASYNC"> F  </i>
   <i type="logical" name="LORBITALREAL"> F  </i>
  </separator>
  <separator name="miscellaneous" >
   <i type="int" name="IDIOT">     3</i>
   <i type="int" name="ISPECIAL">     0</i>
   <i type="logical" name="LMUSIC"> F  </i>
   <v name="POMASS">     55.84700000</v>
   <v name="DARWINR">      0.00000000</v>
   <v name="DARWINV">      1.00000000</v>
   <i type="logical" name="LCORR"> T  </i>
  </separator>
  <i type="logical" name="GGA_COMPAT"> T  </i>
  <i type="logical" name="LBERRY"> F  </i>
  <i type="int" name="ICORELEVEL">     0</i>
  <i type="logical" name="LDAU"> F  </i>
  <i type="int" name="I_CONSTRAINED_M">     0</i>
  <separator name="electronic exchange-correlation" >
   <i type="string" name="GGA">--</i>
   <i type="int" name="VOSKOWN">     0</i>
   <i type="logical" name="LHFCALC"> F  </i>
   <i type="string" name="PRECFOCK"></i>
   <i type="logical" name="LSYMGRAD"> F  </i>
   <i type="logical" name="LHFONE"> F  </i>
   <i type="logical" name="LRHFCALC"> F  </i>
   <i type="logical" name="LTHOMAS"> F  </i>
   <i type="logical" name="LMODELHF"> F  </i>
   <i name="ENCUT4O">     -1.00000000</i>
   <i type="int" name="EXXOEP">     0</i>
   <i type="int" name="FOURORBIT">     0</i>
   <i name="AEXX">      0.00000000</i>
   <i name="HFALPHA">      0.00000000</i>
   <i name="MCALPHA">      0.00000000</i>
   <i name="ALDAX">      1.00000000</i>
   <i name="AGGAX">      1.00000000</i>
   <i name="ALDAC">      1.00000000</i>
   <i name="AGGAC">      1.00000000</i>
   <i type="int" name="NKREDX">     1</i>
   <i type="int" name="NKREDY">     1</i>
   <i type="int" name="NKREDZ">     1</i>
   <i type="logical" name="SHIFTRED"> F  </i>
   <i type="logical" name="ODDONLY"> F  </i>
   <i type="logical" name="EVENONLY"> F  </i>
   <i type="int" name="LMAXFOCK">     0</i>
   <i type="int" name="NMAXFOCKAE">     0</i>
   <i type="logical" name="LFOCKAEDFT"> F  </i>
   <i name="HFSCREEN">      0.00000000</i>
   <i name="HFSCREENC">      0.00000000</i>
   <i type="int" name="NBANDSGWLOW">     0</i>
  </separator>
  <separator name="vdW DFT" >
   <i type="logical" name="LUSE_VDW"> F  </i>
   <i name="Zab_VDW">     -0.84910000</i>
   <i name="PARAM1">      0.12340000</i>
   <i name="PARAM2">      1.00000000</i>
   <i name="PARAM3">      0.00000000</i>
  </separator>
  <separator name="model GW" >
   <i type="int" name="MODEL_GW">     0</i>
   <i name="MODEL_EPS0">      6.13252964</i>
   <i name="MODEL_ALPHA">      1.00000000</i>
  </separator>
  <separator name="linear response parameters" >
   <i type="logical" name="LEPSILON"> F  </i>
   <i type="logical" name="LRPA"> F  </i>
   <i type="logical" name="LNABLA"> F  </i>
   <i type="logical" name="LVEL"> F  </i>
   <i type="int" name="KINTER">     0</i>
   <i name="CSHIFT">      0.10000000</i>
   <i name="OMEGAMAX">     -1.00000000</i>
   <i name="DEG_THRESHOLD">      0.00200000</i>
   <i name="RTIME">     -0.10000000</i>
   <i name="WPLASMAI">      0.00000000</i>
   <v name="DFIELD">      0.00000000      0.00000000      0.00000000</v>
   <v name="WPLASMA">      0.00000000      0.00000000      0.00000000      0.00000000      0.00000000      0.00000000      0.00000000      0.00000000      0.00000000</v>
  </separator>
  <separator name="orbital magnetization" >
   <i type="logical" name="NUCIND"> F  </i>
   <v name="MAGPOS">      0.00000000      0.00000000      0.00000000</v>
   <i type="logical" name="LNICSALL"> T  </i>
   <i type="logical" name="ORBITALMAG"> F  </i>
   <i type="logical" name="LMAGBLOCH"> F  </i>
   <i type="logical" name="LCHIMAG"> F  </i>
   <i type="logical" name="LGAUGE"> T  </i>
   <i type="int" name="MAGATOM">     0</i>
   <v name="MAGDIPOL">      0.00000000      0.00000000      0.00000000</v>
   <v name="AVECCONST">      0.00000000      0.00000000      0.00000000</v>
  </separator>
  <separator name="response functions" >
   <i type="logical" name="LADDER"> F  </i>
   <i type="logical" name="LRPAFORCE"> F  </i>
   <i type="logical" name="LFXC"> F  </i>
   <i type="logical" name="LHARTREE"> T  </i>
   <i type="int" name="IBSE">     0</i>
   <v type="int" name="KPOINT">    -1     0     0     0</v>
   <i type="logical" name="LTCTE"> F  </i>
   <i type="logical" name="LTETE"> F  </i>
   <i type="logical" name="LTRIPLET"> F  </i>
   <i type="logical" name="LFXCEPS"> F  </i>
   <i type="logical" name="LFXHEG"> F  </i>
   <i type="int" name="NATURALO">     2</i>
   <i type="logical" name="L2ORDER"> F  </i>
   <i type="logical" name="LMP2LT"> F  </i>
   <i type="logical" name="LUSEW"> F  </i>
   <i name="ENCUTGW">     -2.00000000</i>
   <i name="ENCUTGWSOFT">     -2.00000000</i>
   <i name="ENCUTLF">     -1.00000000</i>
   <i type="int" name="LMAXMP2">    -1</i>
   <i name="SCISSOR">      0.00000000</i>
   <i type="int" name="NOMEGA">     0</i>
   <i type="int" name="NOMEGAR">     0</i>
   <i type="int" name="NBANDSGW">    -1</i>
   <i type="int" name="NBANDSO">    -1</i>
   <i type="int" name="NBANDSV">    -1</i>
   <i type="int" name="NELM">   400</i>
   <i type="int" name="NELMHF">     1</i>
   <i type="int" name="DIM">     3</i>
   <i type="int" name="ANTIRES">     0</i>
   <i name="OMEGAMAX">    -30.00000000</i>
   <i name="OMEGAMIN">    -30.00000000</i>
   <i name="OMEGATL">   -200.00000000</i>
   <i type="int" name="OMEGAGRID">   140</i>
   <i name="CSHIFT">     -0.10000000</i>
   <i type="logical" name="SELFENERGY"> F  </i>
   <i type="logical" name="LSPECTRAL"> F  </i>
   <i type="logical" name="LSPECTRALGW"> F  </i>
   <i type="logical" name="LSINGLES"> F  </i>
   <i type="logical" name="LFERMIGW"> F  </i>
   <i type="logical" name="ODDONLYGW"> F  </i>
   <i type="logical" name="EVENONLYGW"> F  </i>
   <i type="int" name="NKREDLFX">     1</i>
   <i type="int" name="NKREDLFY">     1</i>
   <i type="int" name="NKREDLFZ">     1</i>
   <i type="int" name="MAXMEM">  2800</i>
   <i type="int" name="TELESCOPE">     0</i>
   <i type="int" name="TAUPAR">     1</i>
   <i type="int" name="OMEGAPAR">    -1</i>
   <i name="LAMBDA">      1.00000000</i>
  </separator>
  <separator name="External order field" >
   <i name="OFIELD_KAPPA">      0.00000000</i>
   <v name="OFIELD_K">      0.00000000      0.00000000      0.00000000</v>
   <i name="OFIELD_Q6_NEAR">      0.00000000</i>
   <i name="OFIELD_Q6_FAR">      0.00000000</i>
   <i name="OFIELD_A">      0.00000000</i>
  </separator>
 </parameters>
 <atominfo>
  <atoms>     108 </atoms>
  <types>       1 </types>
  <array name="atoms" >
   <dimension dim="1">ion</dimension>
   <field type="string">element</field>
   <field type="int">atomtype</field>
   <set>
    <rc><c>Fe</c><c>   1</c></rc>
    <rc><c>Fe</c><c>   1</c></rc>
    <rc><c>Fe</c><c>   1</c></rc>
    <rc><c>Fe</c><c>   1</c></rc>
    <rc><c>Fe</c><c>   1</c></rc>
    <rc><c>Fe</c><c>   1</c></rc>
    <rc><c>Fe</c><c>   1</c></rc>
    <rc><c>Fe</c><c>   1</c></rc>
    <rc><c>Fe</c><c>   1</c></rc>
    <rc><c>Fe</c><c>   1</c></rc>
    <rc><c>Fe</c><c>   1</c></rc>
    <rc><c>Fe</c><c>   1</c></rc>
    <rc><c>Fe</c><c>   1</c></rc>
    <rc><c>Fe</c><c>   1</c></rc>
    <rc><c>Fe</c><c>   1</c></rc>
    <rc><c>Fe</c><c>   1</c></rc>
    <rc><c>Fe</c><c>   1</c></rc>
    <rc><c>Fe</c><c>   1</c></rc>
    <rc><c>Fe</c><c>   1</c></rc>
    <rc><c>Fe</c><c>   1</c></rc>
    <rc><c>Fe</c><c>   1</c></rc>
    <rc><c>Fe</c><c>   1</c></rc>
    <rc><c>Fe</c><c>   1</c></rc>
    <rc><c>Fe</c><c>   1</c></rc>
    <rc><c>Fe</c><c>   1</c></rc>
    <rc><c>Fe</c><c>   1</c></rc>
    <rc><c>Fe</c><c>   1</c></rc>
    <rc><c>Fe</c><c>   1</c></rc>
    <rc><c>Fe</c><c>   1</c></rc>
    <rc><c>Fe</c><c>   1</c></rc>
    <rc><c>Fe</c><c>   1</c></rc>
    <rc><c>Fe</c><c>   1</c></rc>
    <rc><c>Fe</c><c>   1</c></rc>
    <rc><c>Fe</c><c>   1</c></rc>
    <rc><c>Fe</c><c>   1</c></rc>
    <rc><c>Fe</c><c>   1</c></rc>
    <rc><c>Fe</c><c>   1</c></rc>
    <rc><c>Fe</c><c>   1</c></rc>
    <rc><c>Fe</c><c>   1</c></rc>
    <rc><c>Fe</c><c>   1</c></rc>
    <rc><c>Fe</c><c>   1</c></rc>
    <rc><c>Fe</c><c>   1</c></rc>
    <rc><c>Fe</c><c>   1</c></rc>
    <rc><c>Fe</c><c>   1</c></rc>
    <rc><c>Fe</c><c>   1</c></rc>
    <rc><c>Fe</c><c>   1</c></rc>
    <rc><c>Fe</c><c>   1</c></rc>
    <rc><c>Fe</c><c>   1</c></rc>
    <rc><c>Fe</c><c>   1</c></rc>
    <rc><c>Fe</c><c>   1</c></rc>
    <rc><c>Fe</c><c>   1</c></rc>
    <rc><c>Fe</c><c>   1</c></rc>
    <rc><c>Fe</c><c>   1</c></rc>
    <rc><c>Fe</c><c>   1</c></rc>
    <rc><c>Fe</c><c>   1</c></rc>
    <rc><c>Fe</c><c>   1</c></rc>
    <rc><c>Fe</c><c>   1</c></rc>
    <rc><c>Fe</c><c>   1</c></rc>
    <rc><c>Fe</c><c>   1</c></rc>
    <rc><c>Fe</c><c>   1</c></rc>
    <rc><c>Fe</c><c>   1</c></rc>
    <rc><c>Fe</c><c>   1</c></rc>
    <rc><c>Fe</c><c>   1</c></rc>
    <rc><c>Fe</c><c>   1</c></rc>
    <rc><c>Fe</c><c>   1</c></rc>
    <rc><c>Fe</c><c>   1</c></rc>
    <rc><c>Fe</c><c>   1</c></rc>
    <rc><c>Fe</c><c>   1</c></rc>
    <rc><c>Fe</c><c>   1</c></rc>
    <rc><c>Fe</c><c>   1</c></rc>
    <rc><c>Fe</c><c>   1</c></rc>
    <rc><c>Fe</c><c>   1</c></rc>
    <rc><c>Fe</c><c>   1</c></rc>
    <rc><c>Fe</c><c>   1</c></rc>
    <rc><c>Fe</c><c>   1</c></rc>
    <rc><c>Fe</c><c>   1</c></rc>
    <rc><c>Fe</c><c>   1</c></rc>
    <rc><c>Fe</c><c>   1</c></rc>
    <rc><c>Fe</c><c>   1</c></rc>
    <rc><c>Fe</c><c>   1</c></rc>
    <rc><c>Fe</c><c>   1</c></rc>
    <rc><c>Fe</c><c>   1</c></rc>
    <rc><c>Fe</c><c>   1</c></rc>
    <rc><c>Fe</c><c>   1</c></rc>
    <rc><c>Fe</c><c>   1</c></rc>
    <rc><c>Fe</c><c>   1</c></rc>
    <rc><c>Fe</c><c>   1</c></rc>
    <rc><c>Fe</c><c>   1</c></rc>
    <rc><c>Fe</c><c>   1</c></rc>
    <rc><c>Fe</c><c>   1</c></rc>
    <rc><c>Fe</c><c>   1</c></rc>
    <rc><c>Fe</c><c>   1</c></rc>
    <rc><c>Fe</c><c>   1</c></rc>
    <rc><c>Fe</c><c>   1</c></rc>
    <rc><c>Fe</c><c>   1</c></rc>
    <rc><c>Fe</c><c>   1</c></rc>
    <rc><c>Fe</c><c>   1</c></rc>
    <rc><c>Fe</c><c>   1</c></rc>
    <rc><c>Fe</c><c>   1</c></rc>
    <rc><c>Fe</c><c>   1</c></rc>
    <rc><c>Fe</c><c>   1</c></rc>
    <rc><c>Fe</c><c>   1</c></rc>
    <rc><c>Fe</c><c>   1</c></rc>
    <rc><c>Fe</c><c>   1</c></rc>
    <rc><c>Fe</c><c>   1</c></rc>
    <rc><c>Fe</c><c>   1</c></rc>
    <rc><c>Fe</c><c>   1</c></rc>
    <rc><c>Fe</c><c>   1</c></rc>
   </set>
  </array>
  <array name="atomtypes" >
   <dimension dim="1">type</dimension>
   <field type="int">atomspertype</field>
   <field type="string">element</field>
   <field>mass</field>
   <field>valence</field>
   <field type="string">pseudopotential</field>
   <set>
    <rc><c> 108</c><c>Fe</c><c>     55.84700000</c><c>      8.00000000</c><c> PAW_PBE Fe 06Sep2000                   </c></rc>
   </set>
  </array>
 </atominfo>
 <structure name="initialpos" >
  <crystal>
   <varray name="basis" >
    <v>      10.33484705       0.00000000       0.00000000 </v>
    <v>       0.00000000      10.33484705       0.00000000 </v>
    <v>       0.00000000       0.00000000      10.33484705 </v>
   </varray>
   <i name="volume">   1103.85533447 </i>
   <varray name="rec_basis" >
    <v>       0.09676002       0.00000000       0.00000000 </v>
    <v>       0.00000000       0.09676002       0.00000000 </v>
    <v>       0.00000000       0.00000000       0.09676002 </v>
   </varray>
  </crystal>
  <varray name="positions" >
   <v>       0.00000000       0.00000000       0.00000000 </v>
   <v>       0.00000000       0.16666893       0.16666893 </v>
   <v>       0.16666893       0.00000000       0.16666893 </v>
   <v>       0.16666893       0.16666893       0.00000000 </v>
   <v>       0.33333106       0.00000000       0.00000000 </v>
   <v>       0.33333107       0.16666893       0.16666893 </v>
   <v>       0.50000000       0.00000000       0.16666894 </v>
   <v>       0.50000000       0.16666894       0.00000000 </v>
   <v>       0.66666897       0.00000000       0.00000000 </v>
   <v>       0.66666896       0.16666893       0.16666893 </v>
   <v>       0.83333104       0.00000000       0.16666893 </v>
   <v>       0.83333104       0.16666893       0.00000000 </v>
   <v>       0.00000000       0.33333106       0.00000000 </v>
   <v>       0.00000000       0.50000000       0.16666894 </v>
   <v>       0.16666893       0.33333107       0.16666893 </v>
   <v>       0.16666894       0.50000000       0.00000000 </v>
   <v>       0.33333107       0.33333107       0.00000000 </v>
   <v>       0.33333107       0.50000000       0.16666893 </v>
   <v>       0.50000000       0.33333107       0.16666893 </v>
   <v>       0.50000000       0.50000000       0.00000000 </v>
   <v>       0.66666896       0.33333107       0.00000000 </v>
   <v>       0.66666896       0.50000000       0.16666893 </v>
   <v>       0.83333104       0.33333107       0.16666893 </v>
   <v>       0.83333103       0.50000000       0.00000000 </v>
   <v>       0.00000000       0.66666897       0.00000000 </v>
   <v>       0.00000000       0.83333104       0.16666893 </v>
   <v>       0.16666893       0.66666896       0.16666893 </v>
   <v>       0.16666893       0.83333104       0.00000000 </v>
   <v>       0.33333107       0.66666896       0.00000000 </v>
   <v>       0.33333107       0.83333104       0.16666893 </v>
   <v>       0.50000000       0.66666896       0.16666893 </v>
   <v>       0.50000000       0.83333103       0.00000000 </v>
   <v>       0.66666896       0.66666896       0.00000000 </v>
   <v>       0.66666896       0.83333104       0.16666893 </v>
   <v>       0.83333104       0.66666896       0.16666893 </v>
   <v>       0.83333104       0.83333104       0.00000000 </v>
   <v>       0.00000000       0.00000000       0.33333106 </v>
   <v>       0.00000000       0.16666894       0.50000000 </v>
   <v>       0.16666894       0.00000000       0.50000000 </v>
   <v>       0.16666893       0.16666893       0.33333107 </v>
   <v>       0.33333107       0.00000000       0.33333107 </v>
   <v>       0.33333107       0.16666893       0.50000000 </v>
   <v>       0.50000000       0.00000000       0.50000000 </v>
   <v>       0.50000000       0.16666893       0.33333107 </v>
   <v>       0.66666896       0.00000000       0.33333107 </v>
   <v>       0.66666896       0.16666893       0.50000000 </v>
   <v>       0.83333103       0.00000000       0.50000000 </v>
   <v>       0.83333104       0.16666893       0.33333107 </v>
   <v>       0.00000000       0.33333107       0.33333107 </v>
   <v>       0.00000000       0.50000000       0.50000000 </v>
   <v>       0.16666893       0.33333107       0.50000000 </v>
   <v>       0.16666893       0.50000000       0.33333107 </v>
   <v>       0.33333107       0.33333107       0.33333107 </v>
   <v>       0.33333106       0.50000000       0.50000000 </v>
   <v>       0.50000000       0.33333106       0.50000000 </v>
   <v>       0.50000000       0.50000000       0.33333106 </v>
   <v>       0.66666896       0.33333107       0.33333107 </v>
   <v>       0.66666897       0.50000000       0.50000000 </v>
   <v>       0.83333104       0.33333107       0.50000000 </v>
   <v>       0.83333104       0.50000000       0.33333107 </v>
   <v>       0.00000000       0.66666896       0.33333107 </v>
   <v>       0.00000000       0.83333103       0.50000000 </v>
   <v>       0.16666893       0.66666896       0.50000000 </v>
   <v>       0.16666893       0.83333104       0.33333107 </v>
   <v>       0.33333107       0.66666896       0.33333107 </v>
   <v>       0.33333107       0.83333104       0.50000000 </v>
   <v>       0.50000000       0.66666897       0.50000000 </v>
   <v>       0.50000000       0.83333104       0.33333107 </v>
   <v>       0.66666896       0.66666896       0.33333107 </v>
   <v>       0.66666896       0.83333104       0.50000000 </v>
   <v>       0.83333104       0.66666896       0.50000000 </v>
   <v>       0.83333104       0.83333104       0.33333107 </v>
   <v>       0.00000000       0.00000000       0.66666897 </v>
   <v>       0.00000000       0.16666893       0.83333104 </v>
   <v>       0.16666893       0.00000000       0.83333104 </v>
   <v>       0.16666893       0.16666893       0.66666896 </v>
   <v>       0.33333107       0.00000000       0.66666896 </v>
   <v>       0.33333107       0.16666893       0.83333104 </v>
   <v>       0.50000000       0.00000000       0.83333103 </v>
   <v>       0.50000000       0.16666893       0.66666896 </v>
   <v>       0.66666896       0.00000000       0.66666896 </v>
   <v>       0.66666896       0.16666893       0.83333104 </v>
   <v>       0.83333104       0.00000000       0.83333104 </v>
   <v>       0.83333104       0.16666893       0.66666896 </v>
   <v>       0.00000000       0.33333107       0.66666896 </v>
   <v>       0.00000000       0.50000000       0.83333103 </v>
   <v>       0.16666893       0.33333107       0.83333104 </v>
   <v>       0.16666893       0.50000000       0.66666896 </v>
   <v>       0.33333107       0.33333107       0.66666896 </v>
   <v>       0.33333107       0.50000000       0.83333104 </v>
   <v>       0.50000000       0.33333107       0.83333104 </v>
   <v>       0.50000000       0.50000000       0.66666897 </v>
   <v>       0.66666896       0.33333107       0.66666896 </v>
   <v>       0.66666896       0.50000000       0.83333104 </v>
   <v>       0.83333104       0.33333107       0.83333104 </v>
   <v>       0.83333104       0.50000000       0.66666896 </v>
   <v>       0.00000000       0.66666896       0.66666896 </v>
   <v>       0.00000000       0.83333104       0.83333104 </v>
   <v>       0.16666893       0.66666896       0.83333104 </v>
   <v>       0.16666893       0.83333104       0.66666896 </v>
   <v>       0.33333107       0.66666896       0.66666896 </v>
   <v>       0.33333107       0.83333104       0.83333104 </v>
   <v>       0.50000000       0.66666896       0.83333104 </v>
   <v>       0.50000000       0.83333104       0.66666896 </v>
   <v>       0.66666896       0.66666896       0.66666896 </v>
   <v>       0.66666896       0.83333104       0.83333104 </v>
   <v>       0.83333104       0.66666896       0.83333104 </v>
   <v>       0.83333104       0.83333104       0.66666896 </v>
  </varray>
 </structure>
 <calculation>
  <scstep>
   <time name="dav">   44.17   44.20</time>
   <time name="total">   44.52   44.55</time>
   <energy>
    <i name="alphaZ">   7300.31925852 </i>
    <i name="ewald"> -66232.83996889 </i>
    <i name="hartreedc"> -11197.02572337 </i>
    <i name="XCdc">    446.63038354 </i>
    <i name="pawpsdc">  51723.88885462 </i>
    <i name="pawaedc"> -52548.28121372 </i>
    <i name="eentropy">     -0.00831576 </i>
    <i name="bandstr">  14739.06928959 </i>
    <i name="atom">  64202.33668287 </i>
    <i name="e_fr_energy">   8434.08924742 </i>
    <i name="e_wo_entrp">   8434.09756317 </i>
    <i name="e_0_energy">   8434.09201934 </i>
   </energy>
  </scstep>
  <scstep>
   <time name="dav">   44.34   44.34</time>
   <time name="total">   44.34   44.35</time>
   <energy>
    <i name="e_fr_energy">    126.98658749 </i>
    <i name="e_wo_entrp">    126.97100642 </i>
    <i name="e_0_energy">    126.98139380 </i>
   </energy>
  </scstep>
  <scstep>
   <time name="dav">   44.29   44.29</time>
   <time name="total">   44.30   44.30</time>
   <energy>
    <i name="e_fr_energy">   -831.80272611 </i>
    <i name="e_wo_entrp">   -831.81008344 </i>
    <i name="e_0_energy">   -831.80517856 </i>
   </energy>
  </scstep>
  <scstep>
   <time name="dav">   72.17   72.18</time>
   <time name="total">   72.18   72.19</time>
   <energy>
    <i name="e_fr_energy">  -1027.83367766 </i>
    <i name="e_wo_entrp">  -1027.78941671 </i>
    <i name="e_0_energy">  -1027.81892401 </i>
   </energy>
  </scstep>
  <scstep>
   <time name="dav">   65.37   65.37</time>
   <time name="total">   67.72   67.72</time>
   <energy>
    <i name="e_fr_energy">  -1045.09219762 </i>
    <i name="e_wo_entrp">  -1044.98516429 </i>
    <i name="e_0_energy">  -1045.05651984 </i>
   </energy>
  </scstep>
  <scstep>
   <time name="diag">    5.91    5.91</time>
   <time name="diis">   23.95   23.95</time>
   <time name="orth">    1.37    1.37</time>
   <time name="total">   34.00   34.00</time>
   <energy>
    <i name="e_fr_energy">   -877.35196651 </i>
    <i name="e_wo_entrp">   -877.28602941 </i>
    <i name="e_0_energy">   -877.32998748 </i>
   </energy>
  </scstep>
  <scstep>
   <time name="diag">    6.24    6.24</time>
   <time name="diis">   27.03   27.03</time>
   <time name="orth">    1.40    1.40</time>
   <time name="total">   37.46   37.46</time>
   <energy>
    <i name="e_fr_energy">   -880.23627313 </i>
    <i name="e_wo_entrp">   -880.09703163 </i>
    <i name="e_0_energy">   -880.18985930 </i>
   </energy>
  </scstep>
  <scstep>
   <time name="diag">    6.22    6.22</time>
   <time name="diis">   26.74   26.74</time>
   <time name="orth">    1.33    1.33</time>
   <time name="total">   37.05   37.05</time>
   <energy>
    <i name="e_fr_energy">   -879.30826318 </i>
    <i name="e_wo_entrp">   -879.23765962 </i>
    <i name="e_0_energy">   -879.28472866 </i>
   </energy>
  </scstep>
  <scstep>
   <time name="diag">    6.16    6.15</time>
   <time name="diis">   34.23   34.24</time>
   <time name="orth">    1.40    1.40</time>
   <time name="total">   44.59   44.59</time>
   <energy>
    <i name="e_fr_energy">   -879.68622980 </i>
    <i name="e_wo_entrp">   -879.61059016 </i>
    <i name="e_0_energy">   -879.66101658 </i>
   </energy>
  </scstep>
  <scstep>
   <time name="diag">    6.31    6.31</time>
   <time name="diis">   29.58   29.58</time>
   <time name="orth">    1.33    1.33</time>
   <time name="total">   40.01   40.00</time>
   <energy>
    <i name="e_fr_energy">   -879.48454937 </i>
    <i name="e_wo_entrp">   -879.40035037 </i>
    <i name="e_0_energy">   -879.45648303 </i>
   </energy>
  </scstep>
  <scstep>
   <time name="diag">    6.18    6.19</time>
   <time name="diis">   30.17   30.17</time>
   <time name="orth">    1.36    1.36</time>
   <time name="total">   40.41   40.42</time>
   <energy>
    <i name="e_fr_energy">   -879.48845465 </i>
    <i name="e_wo_entrp">   -879.40897791 </i>
    <i name="e_0_energy">   -879.46196240 </i>
   </energy>
  </scstep>
  <scstep>
   <time name="diag">    6.13    6.13</time>
   <time name="diis">   31.47   31.46</time>
   <time name="orth">    1.37    1.37</time>
   <time name="total">   41.62   41.62</time>
   <energy>
    <i name="e_fr_energy">   -879.48961656 </i>
    <i name="e_wo_entrp">   -879.41299283 </i>
    <i name="e_0_energy">   -879.46407532 </i>
   </energy>
  </scstep>
  <scstep>
   <time name="diag">    6.09    6.09</time>
   <time name="diis">   36.62   36.62</time>
   <time name="orth">    1.40    1.40</time>
   <time name="total">   46.88   46.88</time>
   <energy>
    <i name="e_fr_energy">   -879.49017482 </i>
    <i name="e_wo_entrp">   -879.41447125 </i>
    <i name="e_0_energy">   -879.46494030 </i>
   </energy>
  </scstep>
  <scstep>
   <time name="diag">    6.25    6.25</time>
   <time name="diis">   35.02   35.02</time>
   <time name="orth">    1.33    1.33</time>
   <time name="total">   45.38   45.38</time>
   <energy>
    <i name="e_fr_energy">   -879.49014761 </i>
    <i name="e_wo_entrp">   -879.41497657 </i>
    <i name="e_0_energy">   -879.46509059 </i>
   </energy>
  </scstep>
  <scstep>
   <time name="diag">    6.14    6.14</time>
   <time name="diis">   28.56   28.56</time>
   <time name="orth">    1.41    1.41</time>
   <time name="total">   38.95   38.95</time>
   <energy>
    <i name="e_fr_energy">   -879.49005944 </i>
    <i name="e_wo_entrp">   -879.41537790 </i>
    <i name="e_0_energy">   -879.46516559 </i>
   </energy>
  </scstep>
  <scstep>
   <time name="diag">    5.97    5.97</time>
   <time name="diis">   31.64   31.64</time>
   <time name="orth">    1.41    1.41</time>
   <time name="total">   41.88   41.88</time>
   <energy>
    <i name="e_fr_energy">   -879.49001200 </i>
    <i name="e_wo_entrp">   -879.41577302 </i>
    <i name="e_0_energy">   -879.46526567 </i>
   </energy>
  </scstep>
  <scstep>
   <time name="diag">    5.96    5.96</time>
   <time name="diis">   27.80   27.80</time>
   <time name="orth">    1.41    1.41</time>
   <time name="total">   38.01   38.01</time>
   <energy>
    <i name="e_fr_energy">   -879.48997902 </i>
    <i name="e_wo_entrp">   -879.41616360 </i>
    <i name="e_0_energy">   -879.46537388 </i>
   </energy>
  </scstep>
  <scstep>
   <time name="diag">    6.14    6.14</time>
   <time name="diis">   18.19   18.19</time>
   <time name="orth">    1.40    1.40</time>
   <time name="total">   28.59   28.59</time>
   <energy>
    <i name="e_fr_energy">   -879.48995923 </i>
    <i name="e_wo_entrp">   -879.41638473 </i>
    <i name="e_0_energy">   -879.46543440 </i>
   </energy>
  </scstep>
  <scstep>
   <time name="diag">    6.13    6.13</time>
   <time name="diis">   16.49   16.49</time>
   <time name="orth">    1.41    1.41</time>
   <time name="total">   26.88   26.88</time>
   <energy>
    <i name="e_fr_energy">   -879.48994435 </i>
    <i name="e_wo_entrp">   -879.41656022 </i>
    <i name="e_0_energy">   -879.46548297 </i>
   </energy>
  </scstep>
  <scstep>
   <time name="diag">    6.15    6.15</time>
   <time name="diis">   16.13   16.13</time>
   <time name="orth">    1.40    1.40</time>
   <time name="total">   26.54   26.54</time>
   <energy>
    <i name="e_fr_energy">   -879.48992873 </i>
    <i name="e_wo_entrp">   -879.41674153 </i>
    <i name="e_0_energy">   -879.46553300 </i>
   </energy>
  </scstep>
  <scstep>
   <time name="diag">    6.17    6.17</time>
   <time name="diis">   15.90   15.90</time>
   <time name="orth">    1.40    1.40</time>
   <time name="total">   26.28   26.28</time>
   <energy>
    <i name="e_fr_energy">   -879.48990877 </i>
    <i name="e_wo_entrp">   -879.41697047 </i>
    <i name="e_0_energy">   -879.46559600 </i>
   </energy>
  </scstep>
  <scstep>
   <time name="diag">    6.19    6.19</time>
   <time name="diis">   15.53   15.53</time>
   <time name="orth">    1.40    1.40</time>
   <time name="total">   25.89   25.89</time>
   <energy>
    <i name="e_fr_energy">   -879.48989779 </i>
    <i name="e_wo_entrp">   -879.41710440 </i>
    <i name="e_0_energy">   -879.46563332 </i>
   </energy>
  </scstep>
  <scstep>
   <time name="diag">    6.18    6.18</time>
   <time name="diis">   15.26   15.26</time>
   <time name="orth">    1.39    1.39</time>
   <time name="total">   25.58   25.58</time>
   <energy>
    <i name="e_fr_energy">   -879.48988958 </i>
    <i name="e_wo_entrp">   -879.41721067 </i>
    <i name="e_0_energy">   -879.46566328 </i>
   </energy>
  </scstep>
  <scstep>
   <time name="diag">    6.13    6.13</time>
   <time name="diis">   14.91   14.91</time>
   <time name="orth">    1.35    1.35</time>
   <time name="total">   25.09   25.09</time>
   <energy>
    <i name="e_fr_energy">   -879.48988229 </i>
    <i name="e_wo_entrp">   -879.41730442 </i>
    <i name="e_0_energy">   -879.46568967 </i>
   </energy>
  </scstep>
  <scstep>
   <time name="diag">    6.08    6.08</time>
   <time name="diis">   14.83   14.83</time>
   <time name="orth">    1.40    1.40</time>
   <time name="total">   25.02   25.02</time>
   <energy>
    <i name="e_fr_energy">   -879.48987262 </i>
    <i name="e_wo_entrp">   -879.41742267 </i>
    <i name="e_0_energy">   -879.46572264 </i>
   </energy>
  </scstep>
  <scstep>
   <time name="diag">    6.02    6.02</time>
   <time name="diis">   13.91   13.91</time>
   <time name="orth">    1.40    1.40</time>
   <time name="total">   24.06   24.06</time>
   <energy>
    <i name="e_fr_energy">   -879.48986573 </i>
    <i name="e_wo_entrp">   -879.41751005 </i>
    <i name="e_0_energy">   -879.46574717 </i>
   </energy>
  </scstep>
  <scstep>
   <time name="diag">    5.91    5.91</time>
   <time name="diis">   13.44   13.44</time>
   <time name="orth">    1.40    1.40</time>
   <time name="total">   23.56   23.55</time>
   <energy>
    <i name="e_fr_energy">   -879.48986010 </i>
    <i name="e_wo_entrp">   -879.41758374 </i>
    <i name="e_0_energy">   -879.46576798 </i>
   </energy>
  </scstep>
  <scstep>
   <time name="diag">    5.90    5.90</time>
   <time name="diis">   13.12   13.13</time>
   <time name="orth">    1.39    1.39</time>
   <time name="total">   23.25   23.25</time>
   <energy>
    <i name="e_fr_energy">   -879.48985508 </i>
    <i name="e_wo_entrp">   -879.41765032 </i>
    <i name="e_0_energy">   -879.46578682 </i>
   </energy>
  </scstep>
  <scstep>
   <time name="diag">    5.99    5.99</time>
   <time name="diis">   12.51   12.51</time>
   <time name="orth">    1.40    1.40</time>
   <time name="total">   22.71   22.71</time>
   <energy>
    <i name="e_fr_energy">   -879.48985050 </i>
    <i name="e_wo_entrp">   -879.41771118 </i>
    <i name="e_0_energy">   -879.46580406 </i>
   </energy>
  </scstep>
  <scstep>
   <time name="diag">    6.11    6.11</time>
   <time name="diis">   12.21   12.21</time>
   <time name="orth">    1.40    1.40</time>
   <time name="total">   22.53   22.53</time>
   <energy>
    <i name="e_fr_energy">   -879.48984627 </i>
    <i name="e_wo_entrp">   -879.41776752 </i>
    <i name="e_0_energy">   -879.46582002 </i>
   </energy>
  </scstep>
  <scstep>
   <time name="diag">    6.14    6.14</time>
   <time name="diis">   11.79   11.79</time>
   <time name="orth">    1.39    1.39</time>
   <time name="total">   22.13   22.13</time>
   <energy>
    <i name="e_fr_energy">   -879.48984236 </i>
    <i name="e_wo_entrp">   -879.41781975 </i>
    <i name="e_0_energy">   -879.46583483 </i>
   </energy>
  </scstep>
  <scstep>
   <time name="diag">    6.16    6.16</time>
   <time name="diis">   11.71   11.71</time>
   <time name="orth">    1.38    1.38</time>
   <time name="total">   22.01   22.01</time>
   <energy>
    <i name="e_fr_energy">   -879.48983873 </i>
    <i name="e_wo_entrp">   -879.41786814 </i>
    <i name="e_0_energy">   -879.46584853 </i>
   </energy>
  </scstep>
  <scstep>
   <time name="diag">    6.15    6.15</time>
   <time name="diis">   11.56   11.56</time>
   <time name="orth">    1.38    1.38</time>
   <time name="total">   21.86   21.86</time>
   <energy>
    <i name="e_fr_energy">   -879.48983538 </i>
    <i name="e_wo_entrp">   -879.41791287 </i>
    <i name="e_0_energy">   -879.46586121 </i>
   </energy>
  </scstep>
  <scstep>
   <time name="diag">    6.13    6.13</time>
   <time name="diis">   11.53   11.53</time>
   <time name="orth">    1.38    1.38</time>
   <time name="total">   21.76   21.76</time>
   <energy>
    <i name="e_fr_energy">   -879.48983228 </i>
    <i name="e_wo_entrp">   -879.41795423 </i>
    <i name="e_0_energy">   -879.46587293 </i>
   </energy>
  </scstep>
  <scstep>
   <time name="diag">    6.08    6.08</time>
   <time name="diis">   11.50   11.50</time>
   <time name="orth">    1.31    1.31</time>
   <time name="total">   21.64   21.64</time>
   <energy>
    <i name="e_fr_energy">   -879.48982942 </i>
    <i name="e_wo_entrp">   -879.41799244 </i>
    <i name="e_0_energy">   -879.46588376 </i>
   </energy>
  </scstep>
  <scstep>
   <time name="diag">    6.05    6.05</time>
   <time name="diis">   11.55   11.55</time>
   <time name="orth">    1.36    1.36</time>
   <time name="total">   21.57   21.58</time>
   <energy>
    <i name="e_fr_energy">   -879.48982678 </i>
    <i name="e_wo_entrp">   -879.41802775 </i>
    <i name="e_0_energy">   -879.46589377 </i>
   </energy>
  </scstep>
  <scstep>
   <time name="diag">    5.99    5.99</time>
   <time name="diis">   11.69   11.69</time>
   <time name="orth">    1.39    1.39</time>
   <time name="total">   21.74   21.74</time>
   <energy>
    <i name="e_fr_energy">   -879.48982435 </i>
    <i name="e_wo_entrp">   -879.41806009 </i>
    <i name="e_0_energy">   -879.46590293 </i>
   </energy>
  </scstep>
  <scstep>
   <time name="diag">    5.95    5.95</time>
   <time name="diis">   11.41   11.41</time>
   <time name="orth">    1.40    1.40</time>
   <time name="total">   21.40   21.40</time>
   <energy>
    <i name="e_fr_energy">   -879.48982211 </i>
    <i name="e_wo_entrp">   -879.41809006 </i>
    <i name="e_0_energy">   -879.46591143 </i>
   </energy>
  </scstep>
  <scstep>
   <time name="diag">    5.87    5.87</time>
   <time name="diis">   11.33   11.33</time>
   <time name="orth">    1.39    1.39</time>
   <time name="total">   21.34   21.34</time>
   <energy>
    <i name="e_fr_energy">   -879.48982006 </i>
    <i name="e_wo_entrp">   -879.41811758 </i>
    <i name="e_0_energy">   -879.46591923 </i>
   </energy>
  </scstep>
  <scstep>
   <time name="diag">    5.84    5.83</time>
   <time name="diis">   11.24   11.25</time>
   <time name="orth">    1.39    1.39</time>
   <time name="total">   21.22   21.23</time>
   <energy>
    <i name="e_fr_energy">   -879.48981817 </i>
    <i name="e_wo_entrp">   -879.41814284 </i>
    <i name="e_0_energy">   -879.46592640 </i>
   </energy>
  </scstep>
  <scstep>
   <time name="diag">    5.81    5.81</time>
   <time name="diis">   11.18   11.18</time>
   <time name="orth">    1.38    1.38</time>
   <time name="total">   21.10   21.10</time>
   <energy>
    <i name="e_fr_energy">   -879.48981645 </i>
    <i name="e_wo_entrp">   -879.41816619 </i>
    <i name="e_0_energy">   -879.46593303 </i>
   </energy>
  </scstep>
  <scstep>
   <time name="diag">    5.96    5.96</time>
   <time name="diis">   11.20   11.20</time>
   <time name="orth">    1.34    1.34</time>
   <time name="total">   21.25   21.25</time>
   <energy>
    <i name="e_fr_energy">   -879.48981487 </i>
    <i name="e_wo_entrp">   -879.41818768 </i>
    <i name="e_0_energy">   -879.46593914 </i>
   </energy>
  </scstep>
  <scstep>
   <time name="diag">    6.04    6.04</time>
   <time name="diis">   10.89   10.89</time>
   <time name="orth">    1.32    1.32</time>
   <time name="total">   21.00   20.99</time>
   <energy>
    <i name="e_fr_energy">   -879.48981342 </i>
    <i name="e_wo_entrp">   -879.41820712 </i>
    <i name="e_0_energy">   -879.46594465 </i>
   </energy>
  </scstep>
  <scstep>
   <time name="diag">    6.05    6.05</time>
   <time name="diis">   10.85   10.85</time>
   <time name="orth">    1.35    1.35</time>
   <time name="total">   20.93   20.93</time>
   <energy>
    <i name="e_fr_energy">   -879.48981209 </i>
    <i name="e_wo_entrp">   -879.41822498 </i>
    <i name="e_0_energy">   -879.46594972 </i>
   </energy>
  </scstep>
  <scstep>
   <time name="diag">    6.06    6.06</time>
   <time name="diis">   10.91   10.91</time>
   <time name="orth">    1.35    1.35</time>
   <time name="total">   20.94   20.94</time>
   <energy>
    <i name="e_fr_energy">   -879.48981088 </i>
    <i name="e_wo_entrp">   -879.41824139 </i>
    <i name="e_0_energy">   -879.46595438 </i>
   </energy>
  </scstep>
  <scstep>
   <time name="diag">    6.00    6.00</time>
   <time name="diis">   10.95   10.95</time>
   <time name="orth">    1.38    1.38</time>
   <time name="total">   20.94   20.94</time>
   <energy>
    <i name="e_fr_energy">   -879.48980977 </i>
    <i name="e_wo_entrp">   -879.41825627 </i>
    <i name="e_0_energy">   -879.46595860 </i>
   </energy>
  </scstep>
  <scstep>
   <time name="diag">    6.05    6.05</time>
   <time name="diis">   11.27   11.27</time>
   <time name="orth">    1.39    1.39</time>
   <time name="total">   21.37   21.37</time>
   <energy>
    <i name="e_fr_energy">   -879.48980876 </i>
    <i name="e_wo_entrp">   -879.41826981 </i>
    <i name="e_0_energy">   -879.46596244 </i>
   </energy>
  </scstep>
  <scstep>
   <time name="diag">    5.97    5.97</time>
   <time name="diis">   11.07   11.07</time>
   <time name="orth">    1.39    1.39</time>
   <time name="total">   18.78   18.78</time>
   <energy>
    <i name="alphaZ">   7300.31925852 </i>
    <i name="ewald"> -66232.83996889 </i>
    <i name="hartreedc">  -9348.87931133 </i>
    <i name="XCdc">    360.35875283 </i>
    <i name="pawpsdc">  58033.82346825 </i>
    <i name="pawaedc"> -58969.86470960 </i>
    <i name="eentropy">     -0.07152550 </i>
    <i name="bandstr">   3775.32754500 </i>
    <i name="atom">  64202.33668287 </i>
    <i name="e_fr_energy">   -879.48980784 </i>
    <i name="e_wo_entrp">   -879.41828234 </i>
    <i name="e_0_energy">   -879.46596601 </i>
   </energy>
  </scstep>
  <structure>
   <crystal>
    <varray name="basis" >
     <v>      10.33484705       0.00000000       0.00000000 </v>
     <v>       0.00000000      10.33484705       0.00000000 </v>
     <v>       0.00000000       0.00000000      10.33484705 </v>
    </varray>
    <i name="volume">   1103.85533447 </i>
    <varray name="rec_basis" >
     <v>       0.09676002       0.00000000       0.00000000 </v>
     <v>       0.00000000       0.09676002       0.00000000 </v>
     <v>       0.00000000       0.00000000       0.09676002 </v>
    </varray>
   </crystal>
   <varray name="positions" >
    <v>       0.00000000       0.00000000       0.00000000 </v>
    <v>       0.00000000       0.16666893       0.16666893 </v>
    <v>       0.16666893       0.00000000       0.16666893 </v>
    <v>       0.16666893       0.16666893       0.00000000 </v>
    <v>       0.33333106       0.00000000       0.00000000 </v>
    <v>       0.33333107       0.16666893       0.16666893 </v>
    <v>       0.50000000       0.00000000       0.16666894 </v>
    <v>       0.50000000       0.16666894       0.00000000 </v>
    <v>       0.66666897       0.00000000       0.00000000 </v>
    <v>       0.66666896       0.16666893       0.16666893 </v>
    <v>       0.83333104       0.00000000       0.16666893 </v>
    <v>       0.83333104       0.16666893       0.00000000 </v>
    <v>       0.00000000       0.33333106       0.00000000 </v>
    <v>       0.00000000       0.50000000       0.16666894 </v>
    <v>       0.16666893       0.33333107       0.16666893 </v>
    <v>       0.16666894       0.50000000       0.00000000 </v>
    <v>       0.33333107       0.33333107       0.00000000 </v>
    <v>       0.33333107       0.50000000       0.16666893 </v>
    <v>       0.50000000       0.33333107       0.16666893 </v>
    <v>       0.50000000       0.50000000       0.00000000 </v>
    <v>       0.66666896       0.33333107       0.00000000 </v>
    <v>       0.66666896       0.50000000       0.16666893 </v>
    <v>       0.83333104       0.33333107       0.16666893 </v>
    <v>       0.83333103       0.50000000       0.00000000 </v>
    <v>       0.00000000       0.66666897       0.00000000 </v>
    <v>       0.00000000       0.83333104       0.16666893 </v>
    <v>       0.16666893       0.66666896       0.16666893 </v>
    <v>       0.16666893       0.83333104       0.00000000 </v>
    <v>       0.33333107       0.66666896       0.00000000 </v>
    <v>       0.33333107       0.83333104       0.16666893 </v>
    <v>       0.50000000       0.66666896       0.16666893 </v>
    <v>       0.50000000       0.83333103       0.00000000 </v>
    <v>       0.66666896       0.66666896       0.00000000 </v>
    <v>       0.66666896       0.83333104       0.16666893 </v>
    <v>       0.83333104       0.66666896       0.16666893 </v>
    <v>       0.83333104       0.83333104       0.00000000 </v>
    <v>       0.00000000       0.00000000       0.33333106 </v>
    <v>       0.00000000       0.16666894       0.50000000 </v>
    <v>       0.16666894       0.00000000       0.50000000 </v>
    <v>       0.16666893       0.16666893       0.33333107 </v>
    <v>       0.33333107       0.00000000       0.33333107 </v>
    <v>       0.33333107       0.16666893       0.50000000 </v>
    <v>       0.50000000       0.00000000       0.50000000 </v>
    <v>       0.50000000       0.16666893       0.33333107 </v>
    <v>       0.66666896       0.00000000       0.33333107 </v>
    <v>       0.66666896       0.16666893       0.50000000 </v>
    <v>       0.83333103       0.00000000       0.50000000 </v>
    <v>       0.83333104       0.16666893       0.33333107 </v>
    <v>       0.00000000       0.33333107       0.33333107 </v>
    <v>       0.00000000       0.50000000       0.50000000 </v>
    <v>       0.16666893       0.33333107       0.50000000 </v>
    <v>       0.16666893       0.50000000       0.33333107 </v>
    <v>       0.33333107       0.33333107       0.33333107 </v>
    <v>       0.33333106       0.50000000       0.50000000 </v>
    <v>       0.50000000       0.33333106       0.50000000 </v>
    <v>       0.50000000       0.50000000       0.33333106 </v>
    <v>       0.66666896       0.33333107       0.33333107 </v>
    <v>       0.66666897       0.50000000       0.50000000 </v>
    <v>       0.83333104       0.33333107       0.50000000 </v>
    <v>       0.83333104       0.50000000       0.33333107 </v>
    <v>       0.00000000       0.66666896       0.33333107 </v>
    <v>       0.00000000       0.83333103       0.50000000 </v>
    <v>       0.16666893       0.66666896       0.50000000 </v>
    <v>       0.16666893       0.83333104       0.33333107 </v>
    <v>       0.33333107       0.66666896       0.33333107 </v>
    <v>       0.33333107       0.83333104       0.50000000 </v>
    <v>       0.50000000       0.66666897       0.50000000 </v>
    <v>       0.50000000       0.83333104       0.33333107 </v>
    <v>       0.66666896       0.66666896       0.33333107 </v>
    <v>       0.66666896       0.83333104       0.50000000 </v>
    <v>       0.83333104       0.66666896       0.50000000 </v>
    <v>       0.83333104       0.83333104       0.33333107 </v>
    <v>       0.00000000       0.00000000       0.66666897 </v>
    <v>       0.00000000       0.16666893       0.83333104 </v>
    <v>       0.16666893       0.00000000       0.83333104 </v>
    <v>       0.16666893       0.16666893       0.66666896 </v>
    <v>       0.33333107       0.00000000       0.66666896 </v>
    <v>       0.33333107       0.16666893       0.83333104 </v>
    <v>       0.50000000       0.00000000       0.83333103 </v>
    <v>       0.50000000       0.16666893       0.66666896 </v>
    <v>       0.66666896       0.00000000       0.66666896 </v>
    <v>       0.66666896       0.16666893       0.83333104 </v>
    <v>       0.83333104       0.00000000       0.83333104 </v>
    <v>       0.83333104       0.16666893       0.66666896 </v>
    <v>       0.00000000       0.33333107       0.66666896 </v>
    <v>       0.00000000       0.50000000       0.83333103 </v>
    <v>       0.16666893       0.33333107       0.83333104 </v>
    <v>       0.16666893       0.50000000       0.66666896 </v>
    <v>       0.33333107       0.33333107       0.66666896 </v>
    <v>       0.33333107       0.50000000       0.83333104 </v>
    <v>       0.50000000       0.33333107       0.83333104 </v>
    <v>       0.50000000       0.50000000       0.66666897 </v>
    <v>       0.66666896       0.33333107       0.66666896 </v>
    <v>       0.66666896       0.50000000       0.83333104 </v>
    <v>       0.83333104       0.33333107       0.83333104 </v>
    <v>       0.83333104       0.50000000       0.66666896 </v>
    <v>       0.00000000       0.66666896       0.66666896 </v>
    <v>       0.00000000       0.83333104       0.83333104 </v>
    <v>       0.16666893       0.66666896       0.83333104 </v>
    <v>       0.16666893       0.83333104       0.66666896 </v>
    <v>       0.33333107       0.66666896       0.66666896 </v>
    <v>       0.33333107       0.83333104       0.83333104 </v>
    <v>       0.50000000       0.66666896       0.83333104 </v>
    <v>       0.50000000       0.83333104       0.66666896 </v>
    <v>       0.66666896       0.66666896       0.66666896 </v>
    <v>       0.66666896       0.83333104       0.83333104 </v>
    <v>       0.83333104       0.66666896       0.83333104 </v>
    <v>       0.83333104       0.83333104       0.66666896 </v>
   </varray>
  </structure>
  <varray name="forces" >
   <v>      -0.00000000       0.00000000       0.00000000 </v>
   <v>       0.00000000       0.00000000      -0.00000000 </v>
   <v>      -0.00000000      -0.00000000      -0.00000000 </v>
   <v>      -0.00000000       0.00000000      -0.00000000 </v>
   <v>      -0.00000000      -0.00000000      -0.00000000 </v>
   <v>      -0.00000000      -0.00000000       0.00000000 </v>
   <v>       0.00000000       0.00000000       0.00000000 </v>
   <v>      -0.00000000      -0.00000000      -0.00000000 </v>
   <v>      -0.00000000       0.00000000       0.00000000 </v>
   <v>       0.00000000       0.00000000      -0.00000000 </v>
   <v>      -0.00000000      -0.00000000       0.00000000 </v>
   <v>      -0.00000000      -0.00000000       0.00000000 </v>
   <v>      -0.00000000       0.00000000      -0.00000000 </v>
   <v>       0.00000000       0.00000000      -0.00000000 </v>
   <v>       0.00000000      -0.00000000      -0.00000000 </v>
   <v>      -0.00000000      -0.00000000       0.00000000 </v>
   <v>      -0.00000000      -0.00000000      -0.00000000 </v>
   <v>       0.00000000       0.00000000      -0.00000000 </v>
   <v>       0.00000000      -0.00000000       0.00000000 </v>
   <v>      -0.00000000      -0.00000000       0.00000000 </v>
   <v>      -0.00000000      -0.00000000      -0.00000000 </v>
   <v>       0.00000000       0.00000000      -0.00000000 </v>
   <v>      -0.00000000      -0.00000000       0.00000000 </v>
   <v>       0.00000000      -0.00000000      -0.00000000 </v>
   <v>      -0.00000000       0.00000000      -0.00000000 </v>
   <v>       0.00000000       0.00000000       0.00000000 </v>
   <v>       0.00000000       0.00000000      -0.00000000 </v>
   <v>      -0.00000000       0.00000000       0.00000000 </v>
   <v>      -0.00000000      -0.00000000       0.00000000 </v>
   <v>      -0.00000000       0.00000000      -0.00000000 </v>
   <v>       0.00000000       0.00000000      -0.00000000 </v>
   <v>      -0.00000000      -0.00000000       0.00000000 </v>
   <v>      -0.00000000      -0.00000000      -0.00000000 </v>
   <v>       0.00000000       0.00000000      -0.00000000 </v>
   <v>      -0.00000000      -0.00000000      -0.00000000 </v>
   <v>       0.00000000      -0.00000000      -0.00000000 </v>
   <v>       0.00000000       0.00000000      -0.00000000 </v>
   <v>       0.00000000       0.00000000       0.00000000 </v>
   <v>      -0.00000000      -0.00000000       0.00000000 </v>
   <v>      -0.00000000       0.00000000       0.00000000 </v>
   <v>      -0.00000000       0.00000000       0.00000000 </v>
   <v>       0.00000000       0.00000000      -0.00000000 </v>
   <v>      -0.00000000       0.00000000       0.00000000 </v>
   <v>       0.00000000       0.00000000      -0.00000000 </v>
   <v>       0.00000000      -0.00000000      -0.00000000 </v>
   <v>       0.00000000       0.00000000      -0.00000000 </v>
   <v>       0.00000000       0.00000000       0.00000000 </v>
   <v>      -0.00000000       0.00000000      -0.00000000 </v>
   <v>      -0.00000000       0.00000000       0.00000000 </v>
   <v>      -0.00000000      -0.00000000      -0.00000000 </v>
   <v>      -0.00000000      -0.00000000      -0.00000000 </v>
   <v>      -0.00000000       0.00000000      -0.00000000 </v>
   <v>      -0.00000000       0.00000000      -0.00000000 </v>
   <v>       0.00000000      -0.00000000      -0.00000000 </v>
   <v>      -0.00000000       0.00000000       0.00000000 </v>
   <v>      -0.00000000      -0.00000000      -0.00000000 </v>
   <v>      -0.00000000       0.00000000       0.00000000 </v>
   <v>      -0.00000000       0.00000000      -0.00000000 </v>
   <v>       0.00000000      -0.00000000       0.00000000 </v>
   <v>       0.00000000      -0.00000000      -0.00000000 </v>
   <v>       0.00000000       0.00000000       0.00000000 </v>
   <v>      -0.00000000       0.00000000       0.00000000 </v>
   <v>       0.00000000      -0.00000000      -0.00000000 </v>
   <v>      -0.00000000      -0.00000000      -0.00000000 </v>
   <v>       0.00000000      -0.00000000       0.00000000 </v>
   <v>       0.00000000       0.00000000      -0.00000000 </v>
   <v>      -0.00000000       0.00000000      -0.00000000 </v>
   <v>       0.00000000      -0.00000000      -0.00000000 </v>
   <v>       0.00000000      -0.00000000       0.00000000 </v>
   <v>       0.00000000       0.00000000      -0.00000000 </v>
   <v>       0.00000000       0.00000000      -0.00000000 </v>
   <v>      -0.00000000      -0.00000000      -0.00000000 </v>
   <v>       0.00000000      -0.00000000       0.00000000 </v>
   <v>      -0.00000000       0.00000000       0.00000000 </v>
   <v>      -0.00000000       0.00000000      -0.00000000 </v>
   <v>       0.00000000      -0.00000000      -0.00000000 </v>
   <v>      -0.00000000      -0.00000000      -0.00000000 </v>
   <v>      -0.00000000      -0.00000000       0.00000000 </v>
   <v>       0.00000000       0.00000000       0.00000000 </v>
   <v>       0.00000000      -0.00000000      -0.00000000 </v>
   <v>       0.00000000      -0.00000000       0.00000000 </v>
   <v>      -0.00000000       0.00000000       0.00000000 </v>
   <v>      -0.00000000       0.00000000      -0.00000000 </v>
   <v>      -0.00000000      -0.00000000       0.00000000 </v>
   <v>       0.00000000       0.00000000       0.00000000 </v>
   <v>      -0.00000000      -0.00000000       0.00000000 </v>
   <v>      -0.00000000      -0.00000000       0.00000000 </v>
   <v>      -0.00000000      -0.00000000       0.00000000 </v>
   <v>      -0.00000000       0.00000000      -0.00000000 </v>
   <v>       0.00000000      -0.00000000      -0.00000000 </v>
   <v>       0.00000000      -0.00000000      -0.00000000 </v>
   <v>      -0.00000000      -0.00000000       0.00000000 </v>
   <v>       0.00000000      -0.00000000      -0.00000000 </v>
   <v>       0.00000000       0.00000000       0.00000000 </v>
   <v>      -0.00000000      -0.00000000       0.00000000 </v>
   <v>       0.00000000      -0.00000000       0.00000000 </v>
   <v>       0.00000000       0.00000000      -0.00000000 </v>
   <v>      -0.00000000       0.00000000      -0.00000000 </v>
   <v>      -0.00000000      -0.00000000       0.00000000 </v>
   <v>       0.00000000       0.00000000       0.00000000 </v>
   <v>       0.00000000       0.00000000       0.00000000 </v>
   <v>      -0.00000000      -0.00000000       0.00000000 </v>
   <v>      -0.00000000       0.00000000       0.00000000 </v>
   <v>      -0.00000000      -0.00000000       0.00000000 </v>
   <v>       0.00000000       0.00000000      -0.00000000 </v>
   <v>       0.00000000       0.00000000       0.00000000 </v>
   <v>      -0.00000000       0.00000000       0.00000000 </v>
   <v>      -0.00000000       0.00000000       0.00000000 </v>
  </varray>
  <varray name="stress" >
   <v>       7.93731187      -0.00000000       0.00000000 </v>
   <v>      -0.00000000       7.93731187      -0.00000000 </v>
   <v>       0.00000000      -0.00000000       7.93731187 </v>
  </varray>
  <energy>
   <i name="e_fr_energy">   -879.48980784 </i>
   <i name="e_wo_entrp">   -879.46596601 </i>
   <i name="e_0_energy">     -0.07152550 </i>
  </energy>
  <time name="totalsc"> 1526.66 1526.70</time>
 </calculation>
 <calculation>
  <scstep>
   <time name="dav">   48.14   48.14</time>
   <time name="total">   50.81   50.82</time>
   <energy>
    <i name="alphaZ">   7247.08058147 </i>
    <i name="ewald"> -66071.44267439 </i>
    <i name="hartreedc">  -9326.09805909 </i>
    <i name="XCdc">    353.12315055 </i>
    <i name="pawpsdc">  58033.82365030 </i>
    <i name="pawaedc"> -58969.86505608 </i>
    <i name="eentropy">     -0.08633383 </i>
    <i name="bandstr">   3651.21374042 </i>
    <i name="atom">  64202.33668287 </i>
    <i name="e_fr_energy">   -879.91431776 </i>
    <i name="e_wo_entrp">   -879.82798394 </i>
    <i name="e_0_energy">   -879.88553982 </i>
   </energy>
  </scstep>
  <scstep>
   <time name="diag">    5.61    5.61</time>
   <time name="diis">   24.29   24.29</time>
   <time name="orth">    1.40    1.40</time>
   <time name="total">   34.02   34.02</time>
   <energy>
    <i name="e_fr_energy">   -879.49227477 </i>
    <i name="e_wo_entrp">   -879.42880940 </i>
    <i name="e_0_energy">   -879.47111965 </i>
   </energy>
  </scstep>
  <scstep>
   <time name="diag">    5.78    5.78</time>
   <time name="diis">   26.86   26.86</time>
   <time name="orth">    1.41    1.41</time>
   <time name="total">   36.74   36.74</time>
   <energy>
    <i name="e_fr_energy">   -879.48923969 </i>
    <i name="e_wo_entrp">   -879.42398640 </i>
    <i name="e_0_energy">   -879.46748859 </i>
   </energy>
  </scstep>
  <scstep>
   <time name="diag">    5.71    5.71</time>
   <time name="diis">   25.27   25.26</time>
   <time name="orth">    1.42    1.42</time>
   <time name="total">   35.14   35.14</time>
   <energy>
    <i name="e_fr_energy">   -879.48313327 </i>
    <i name="e_wo_entrp">   -879.41406483 </i>
    <i name="e_0_energy">   -879.46011046 </i>
   </energy>
  </scstep>
  <scstep>
   <time name="diag">    5.71    5.71</time>
   <time name="diis">   25.31   25.31</time>
   <time name="orth">    1.41    1.41</time>
   <time name="total">   35.24   35.24</time>
   <energy>
    <i name="e_fr_energy">   -879.48653940 </i>
    <i name="e_wo_entrp">   -879.41883311 </i>
    <i name="e_0_energy">   -879.46397064 </i>
   </energy>
  </scstep>
  <scstep>
   <time name="diag">    5.81    5.81</time>
   <time name="diis">   25.08   25.10</time>
   <time name="orth">    1.40    1.40</time>
   <time name="total">   35.13   35.14</time>
   <energy>
    <i name="e_fr_energy">   -879.47993784 </i>
    <i name="e_wo_entrp">   -879.41398463 </i>
    <i name="e_0_energy">   -879.45795344 </i>
   </energy>
  </scstep>
  <scstep>
   <time name="diag">    5.98    5.98</time>
   <time name="diis">   31.74   31.73</time>
   <time name="orth">    1.41    1.41</time>
   <time name="total">   41.96   41.96</time>
   <energy>
    <i name="e_fr_energy">   -879.47993421 </i>
    <i name="e_wo_entrp">   -879.41378261 </i>
    <i name="e_0_energy">   -879.45788368 </i>
   </energy>
  </scstep>
  <scstep>
   <time name="diag">    5.77    5.77</time>
   <time name="diis">   25.27   25.27</time>
   <time name="orth">    1.40    1.40</time>
   <time name="total">   35.26   35.26</time>
   <energy>
    <i name="e_fr_energy">   -879.47985994 </i>
    <i name="e_wo_entrp">   -879.41350583 </i>
    <i name="e_0_energy">   -879.45774191 </i>
   </energy>
  </scstep>
  <scstep>
   <time name="diag">    5.81    5.81</time>
   <time name="diis">   25.25   25.25</time>
   <time name="orth">    1.41    1.41</time>
   <time name="total">   35.33   35.33</time>
   <energy>
    <i name="e_fr_energy">   -879.47986544 </i>
    <i name="e_wo_entrp">   -879.41329131 </i>
    <i name="e_0_energy">   -879.45767406 </i>
   </energy>
  </scstep>
  <scstep>
   <time name="diag">    6.14    6.14</time>
   <time name="diis">   29.13   29.13</time>
   <time name="orth">    1.41    1.41</time>
   <time name="total">   39.44   39.44</time>
   <energy>
    <i name="e_fr_energy">   -879.47987286 </i>
    <i name="e_wo_entrp">   -879.41329181 </i>
    <i name="e_0_energy">   -879.45767917 </i>
   </energy>
  </scstep>
  <scstep>
   <time name="diag">    5.98    5.98</time>
   <time name="diis">   14.81   14.81</time>
   <time name="orth">    1.40    1.40</time>
   <time name="total">   24.92   24.92</time>
   <energy>
    <i name="e_fr_energy">   -879.47986868 </i>
    <i name="e_wo_entrp">   -879.41330388 </i>
    <i name="e_0_energy">   -879.45768041 </i>
   </energy>
  </scstep>
  <scstep>
   <time name="diag">    5.95    5.95</time>
   <time name="diis">   14.67   14.67</time>
   <time name="orth">    1.35    1.35</time>
   <time name="total">   22.33   22.32</time>
   <energy>
    <i name="alphaZ">   7247.08058147 </i>
    <i name="ewald"> -66071.44267439 </i>
    <i name="hartreedc">  -9406.08726938 </i>
    <i name="XCdc">    357.83936166 </i>
    <i name="pawpsdc">  57840.75703145 </i>
    <i name="pawaedc"> -58773.10166259 </i>
    <i name="eentropy">     -0.06655316 </i>
    <i name="bandstr">   3723.20463266 </i>
    <i name="atom">  64202.33668287 </i>
    <i name="e_fr_energy">   -879.47986941 </i>
    <i name="e_wo_entrp">   -879.41331624 </i>
    <i name="e_0_energy">   -879.45768502 </i>
   </energy>
  </scstep>
  <structure>
   <crystal>
    <varray name="basis" >
     <v>      10.36009269      -0.00000000       0.00000000 </v>
     <v>      -0.00000000      10.36009269      -0.00000000 </v>
     <v>       0.00000000      -0.00000000      10.36009269 </v>
    </varray>
    <i name="volume">   1111.96450298 </i>
    <varray name="rec_basis" >
     <v>       0.09652423       0.00000000      -0.00000000 </v>
     <v>       0.00000000       0.09652423       0.00000000 </v>
     <v>       0.00000000       0.00000000       0.09652423 </v>
    </varray>
   </crystal>
   <varray name="positions" >
    <v>      -0.00000000       0.00000000       0.00000000 </v>
    <v>       0.00000000       0.16666893       0.16666893 </v>
    <v>       0.16666893      -0.00000000       0.16666893 </v>
    <v>       0.16666893       0.16666893      -0.00000000 </v>
    <v>       0.33333106      -0.00000000      -0.00000000 </v>
    <v>       0.33333107       0.16666893       0.16666893 </v>
    <v>       0.50000000       0.00000000       0.16666894 </v>
    <v>       0.50000000       0.16666894      -0.00000000 </v>
    <v>       0.66666897       0.00000000       0.00000000 </v>
    <v>       0.66666896       0.16666893       0.16666893 </v>
    <v>       0.83333104      -0.00000000       0.16666893 </v>
    <v>       0.83333104       0.16666893       0.00000000 </v>
    <v>      -0.00000000       0.33333106      -0.00000000 </v>
    <v>       0.00000000       0.50000000       0.16666894 </v>
    <v>       0.16666893       0.33333107       0.16666893 </v>
    <v>       0.16666894       0.50000000       0.00000000 </v>
    <v>       0.33333107       0.33333107      -0.00000000 </v>
    <v>       0.33333107       0.50000000       0.16666893 </v>
    <v>       0.50000000       0.33333107       0.16666893 </v>
    <v>       0.50000000       0.50000000       0.00000000 </v>
    <v>       0.66666896       0.33333107      -0.00000000 </v>
    <v>       0.66666896       0.50000000       0.16666893 </v>
    <v>       0.83333104       0.33333107       0.16666893 </v>
    <v>       0.83333103       0.50000000      -0.00000000 </v>
    <v>      -0.00000000       0.66666897      -0.00000000 </v>
    <v>       0.00000000       0.83333104       0.16666893 </v>
    <v>       0.16666893       0.66666896       0.16666893 </v>
    <v>       0.16666893       0.83333104       0.00000000 </v>
    <v>       0.33333107       0.66666896       0.00000000 </v>
    <v>       0.33333107       0.83333104       0.16666893 </v>
    <v>       0.50000000       0.66666896       0.16666893 </v>
    <v>       0.50000000       0.83333103       0.00000000 </v>
    <v>       0.66666896       0.66666896      -0.00000000 </v>
    <v>       0.66666896       0.83333104       0.16666893 </v>
    <v>       0.83333104       0.66666896       0.16666893 </v>
    <v>       0.83333104       0.83333104      -0.00000000 </v>
    <v>       0.00000000       0.00000000       0.33333106 </v>
    <v>       0.00000000       0.16666894       0.50000000 </v>
    <v>       0.16666894      -0.00000000       0.50000000 </v>
    <v>       0.16666893       0.16666893       0.33333107 </v>
    <v>       0.33333107       0.00000000       0.33333107 </v>
    <v>       0.33333107       0.16666893       0.50000000 </v>
    <v>       0.50000000       0.00000000       0.50000000 </v>
    <v>       0.50000000       0.16666893       0.33333107 </v>
    <v>       0.66666896      -0.00000000       0.33333107 </v>
    <v>       0.66666896       0.16666893       0.50000000 </v>
    <v>       0.83333103       0.00000000       0.50000000 </v>
    <v>       0.83333104       0.16666893       0.33333107 </v>
    <v>      -0.00000000       0.33333107       0.33333107 </v>
    <v>      -0.00000000       0.50000000       0.50000000 </v>
    <v>       0.16666893       0.33333107       0.50000000 </v>
    <v>       0.16666893       0.50000000       0.33333107 </v>
    <v>       0.33333107       0.33333107       0.33333107 </v>
    <v>       0.33333106       0.50000000       0.50000000 </v>
    <v>       0.50000000       0.33333106       0.50000000 </v>
    <v>       0.50000000       0.50000000       0.33333106 </v>
    <v>       0.66666896       0.33333107       0.33333107 </v>
    <v>       0.66666897       0.50000000       0.50000000 </v>
    <v>       0.83333104       0.33333107       0.50000000 </v>
    <v>       0.83333104       0.50000000       0.33333107 </v>
    <v>       0.00000000       0.66666896       0.33333107 </v>
    <v>      -0.00000000       0.83333103       0.50000000 </v>
    <v>       0.16666893       0.66666896       0.50000000 </v>
    <v>       0.16666893       0.83333104       0.33333107 </v>
    <v>       0.33333107       0.66666896       0.33333107 </v>
    <v>       0.33333107       0.83333104       0.50000000 </v>
    <v>       0.50000000       0.66666897       0.50000000 </v>
    <v>       0.50000000       0.83333104       0.33333107 </v>
    <v>       0.66666896       0.66666896       0.33333107 </v>
    <v>       0.66666896       0.83333104       0.50000000 </v>
    <v>       0.83333104       0.66666896       0.50000000 </v>
    <v>       0.83333104       0.83333104       0.33333107 </v>
    <v>       0.00000000      -0.00000000       0.66666897 </v>
    <v>      -0.00000000       0.16666893       0.83333104 </v>
    <v>       0.16666893       0.00000000       0.83333104 </v>
    <v>       0.16666893       0.16666893       0.66666896 </v>
    <v>       0.33333107      -0.00000000       0.66666896 </v>
    <v>       0.33333107       0.16666893       0.83333104 </v>
    <v>       0.50000000       0.00000000       0.83333103 </v>
    <v>       0.50000000       0.16666893       0.66666896 </v>
    <v>       0.66666896      -0.00000000       0.66666896 </v>
    <v>       0.66666896       0.16666893       0.83333104 </v>
    <v>       0.83333104       0.00000000       0.83333104 </v>
    <v>       0.83333104       0.16666893       0.66666896 </v>
    <v>       0.00000000       0.33333107       0.66666896 </v>
    <v>      -0.00000000       0.50000000       0.83333103 </v>
    <v>       0.16666893       0.33333107       0.83333104 </v>
    <v>       0.16666893       0.50000000       0.66666896 </v>
    <v>       0.33333107       0.33333107       0.66666896 </v>
    <v>       0.33333107       0.50000000       0.83333104 </v>
    <v>       0.50000000       0.33333107       0.83333104 </v>
    <v>       0.50000000       0.50000000       0.66666897 </v>
    <v>       0.66666896       0.33333107       0.66666896 </v>
    <v>       0.66666896       0.50000000       0.83333104 </v>
    <v>       0.83333104       0.33333107       0.83333104 </v>
    <v>       0.83333104       0.50000000       0.66666896 </v>
    <v>       0.00000000       0.66666896       0.66666896 </v>
    <v>      -0.00000000       0.83333104       0.83333104 </v>
    <v>       0.16666893       0.66666896       0.83333104 </v>
    <v>       0.16666893       0.83333104       0.66666896 </v>
    <v>       0.33333107       0.66666896       0.66666896 </v>
    <v>       0.33333107       0.83333104       0.83333104 </v>
    <v>       0.50000000       0.66666896       0.83333104 </v>
    <v>       0.50000000       0.83333104       0.66666896 </v>
    <v>       0.66666896       0.66666896       0.66666896 </v>
    <v>       0.66666896       0.83333104       0.83333104 </v>
    <v>       0.83333104       0.66666896       0.83333104 </v>
    <v>       0.83333104       0.83333104       0.66666896 </v>
   </varray>
  </structure>
  <varray name="forces" >
   <v>      -0.00000000       0.00000000      -0.00000000 </v>
   <v>      -0.00000000      -0.00000000      -0.00000000 </v>
   <v>      -0.00000000       0.00000000      -0.00000000 </v>
   <v>       0.00000000      -0.00000000       0.00000000 </v>
   <v>      -0.00000000       0.00000000       0.00000000 </v>
   <v>      -0.00000000      -0.00000000      -0.00000000 </v>
   <v>       0.00000000       0.00000000      -0.00000000 </v>
   <v>      -0.00000000       0.00000000       0.00000000 </v>
   <v>       0.00000000      -0.00000000       0.00000000 </v>
   <v>       0.00000000      -0.00000000       0.00000000 </v>
   <v>      -0.00000000       0.00000000      -0.00000000 </v>
   <v>       0.00000000      -0.00000000       0.00000000 </v>
   <v>       0.00000000       0.00000000       0.00000000 </v>
   <v>      -0.00000000       0.00000000      -0.00000000 </v>
   <v>      -0.00000000       0.00000000      -0.00000000 </v>
   <v>       0.00000000       0.00000000      -0.00000000 </v>
   <v>      -0.00000000       0.00000000      -0.00000000 </v>
   <v>       0.00000000       0.00000000       0.00000000 </v>
   <v>       0.00000000       0.00000000      -0.00000000 </v>
   <v>       0.00000000       0.00000000       0.00000000 </v>
   <v>       0.00000000      -0.00000000      -0.00000000 </v>
   <v>       0.00000000      -0.00000000       0.00000000 </v>
   <v>       0.00000000      -0.00000000       0.00000000 </v>
   <v>       0.00000000       0.00000000      -0.00000000 </v>
   <v>      -0.00000000      -0.00000000      -0.00000000 </v>
   <v>      -0.00000000       0.00000000       0.00000000 </v>
   <v>      -0.00000000       0.00000000       0.00000000 </v>
   <v>      -0.00000000       0.00000000      -0.00000000 </v>
   <v>      -0.00000000      -0.00000000       0.00000000 </v>
   <v>      -0.00000000      -0.00000000      -0.00000000 </v>
   <v>       0.00000000       0.00000000      -0.00000000 </v>
   <v>       0.00000000       0.00000000       0.00000000 </v>
   <v>      -0.00000000       0.00000000       0.00000000 </v>
   <v>       0.00000000       0.00000000      -0.00000000 </v>
   <v>       0.00000000       0.00000000      -0.00000000 </v>
   <v>      -0.00000000      -0.00000000       0.00000000 </v>
   <v>       0.00000000       0.00000000       0.00000000 </v>
   <v>      -0.00000000       0.00000000      -0.00000000 </v>
   <v>      -0.00000000       0.00000000      -0.00000000 </v>
   <v>      -0.00000000      -0.00000000      -0.00000000 </v>
   <v>      -0.00000000      -0.00000000      -0.00000000 </v>
   <v>      -0.00000000      -0.00000000      -0.00000000 </v>
   <v>       0.00000000       0.00000000      -0.00000000 </v>
   <v>       0.00000000      -0.00000000      -0.00000000 </v>
   <v>       0.00000000      -0.00000000      -0.00000000 </v>
   <v>       0.00000000       0.00000000       0.00000000 </v>
   <v>       0.00000000       0.00000000      -0.00000000 </v>
   <v>       0.00000000      -0.00000000      -0.00000000 </v>
   <v>      -0.00000000      -0.00000000      -0.00000000 </v>
   <v>      -0.00000000      -0.00000000      -0.00000000 </v>
   <v>      -0.00000000      -0.00000000      -0.00000000 </v>
   <v>      -0.00000000      -0.00000000       0.00000000 </v>
   <v>       0.00000000       0.00000000       0.00000000 </v>
   <v>       0.00000000      -0.00000000       0.00000000 </v>
   <v>      -0.00000000      -0.00000000       0.00000000 </v>
   <v>       0.00000000      -0.00000000       0.00000000 </v>
   <v>      -0.00000000      -0.00000000      -0.00000000 </v>
   <v>       0.00000000       0.00000000       0.00000000 </v>
   <v>       0.00000000      -0.00000000      -0.00000000 </v>
   <v>       0.00000000       0.00000000      -0.00000000 </v>
   <v>       0.00000000       0.00000000      -0.00000000 </v>
   <v>      -0.00000000      -0.00000000       0.00000000 </v>
   <v>      -0.00000000       0.00000000       0.00000000 </v>
   <v>      -0.00000000      -0.00000000      -0.00000000 </v>
   <v>       0.00000000       0.00000000       0.00000000 </v>
   <v>       0.00000000      -0.00000000      -0.00000000 </v>
   <v>       0.00000000      -0.00000000       0.00000000 </v>
   <v>       0.00000000       0.00000000      -0.00000000 </v>
   <v>      -0.00000000      -0.00000000      -0.00000000 </v>
   <v>       0.00000000      -0.00000000      -0.00000000 </v>
   <v>       0.00000000       0.00000000      -0.00000000 </v>
   <v>      -0.00000000       0.00000000      -0.00000000 </v>
   <v>      -0.00000000       0.00000000      -0.00000000 </v>
   <v>      -0.00000000      -0.00000000       0.00000000 </v>
   <v>       0.00000000       0.00000000       0.00000000 </v>
   <v>      -0.00000000      -0.00000000       0.00000000 </v>
   <v>      -0.00000000       0.00000000       0.00000000 </v>
   <v>      -0.00000000       0.00000000       0.00000000 </v>
[...]
       <r>    -1.8093     2.7482     0.3902 </r>
       <r>    -1.7639     3.2743     0.5388 </r>
       <r>    -1.7185     3.6535     0.7045 </r>
       <r>    -1.6732     3.8583     0.8795 </r>
       <r>    -1.6278     3.9336     1.0580 </r>
       <r>    -1.5825     3.9639     1.2378 </r>
       <r>    -1.5371     4.0290     1.4206 </r>
       <r>    -1.4917     4.1825     1.6103 </r>
       <r>    -1.4464     4.4537     1.8124 </r>
       <r>    -1.4010     4.8555     2.0326 </r>
       <r>    -1.3556     5.3845     2.2769 </r>
       <r>    -1.3103     6.0100     2.5496 </r>
       <r>    -1.2649     6.6494     2.8512 </r>
       <r>    -1.2195     7.1514     3.1756 </r>
       <r>    -1.1742     7.3321     3.5083 </r>
       <r>    -1.1288     7.0770     3.8293 </r>
       <r>    -1.0834     6.4459     4.1217 </r>
       <r>    -1.0381     5.6874     4.3797 </r>
       <r>    -0.9927     5.1378     4.6128 </r>
       <r>    -0.9473     5.0680     4.8427 </r>
       <r>    -0.9020     5.5805     5.0959 </r>
       <r>    -0.8566     6.6015     5.3954 </r>
       <r>    -0.8112     7.9425     5.7557 </r>
       <r>    -0.7659     9.3629     6.1804 </r>
       <r>    -0.7205    10.5906     6.6609 </r>
       <r>    -0.6751    11.3269     7.1747 </r>
       <r>    -0.6298    11.3128     7.6879 </r>
       <r>    -0.5844    10.4726     8.1630 </r>
       <r>    -0.5390     9.0394     8.5731 </r>
       <r>    -0.4937     7.5256     8.9145 </r>
       <r>    -0.4483     6.5124     9.2099 </r>
       <r>    -0.4030     6.3842     9.4995 </r>
       <r>    -0.3576     7.1756     9.8251 </r>
       <r>    -0.3122     8.6040    10.2154 </r>
       <r>    -0.2669    10.2274    10.6794 </r>
       <r>    -0.2215    11.6158    11.2063 </r>
       <r>    -0.1761    12.4671    11.7719 </r>
       <r>    -0.1308    12.6695    12.3466 </r>
       <r>    -0.0854    12.3287    12.9059 </r>
       <r>    -0.0400    11.7395    13.4385 </r>
       <r>     0.0053    11.2721    13.9499 </r>
       <r>     0.0507    11.2023    14.4581 </r>
       <r>     0.0961    11.5873    14.9837 </r>
       <r>     0.1414    12.2727    15.5405 </r>
       <r>     0.1868    13.0152    16.1309 </r>
       <r>     0.2322    13.6221    16.7489 </r>
       <r>     0.2775    14.0082    17.3844 </r>
       <r>     0.3229    14.1626    18.0269 </r>
       <r>     0.3683    14.0886    18.6660 </r>
       <r>     0.4136    13.7826    19.2913 </r>
       <r>     0.4590    13.2655    19.8930 </r>
       <r>     0.5044    12.6376    20.4664 </r>
       <r>     0.5497    12.1237    21.0163 </r>
       <r>     0.5951    12.0658    21.5637 </r>
       <r>     0.6404    12.8130    22.1450 </r>
       <r>     0.6858    14.5100    22.8032 </r>
       <r>     0.7312    16.9018    23.5700 </r>
       <r>     0.7765    19.3402    24.4474 </r>
       <r>     0.8219    21.0731    25.4033 </r>
       <r>     0.8673    21.6615    26.3860 </r>
       <r>     0.9126    21.2208    27.3487 </r>
       <r>     0.9580    20.2847    28.2689 </r>
       <r>     1.0034    19.3843    29.1483 </r>
       <r>     1.0487    18.6868    29.9960 </r>
       <r>     1.0941    18.0000    30.8126 </r>
       <r>     1.1395    17.1383    31.5901 </r>
       <r>     1.1848    16.3174    32.3303 </r>
       <r>     1.2302    16.2032    33.0654 </r>
       <r>     1.2756    17.5353    33.8609 </r>
       <r>     1.3209    20.5965    34.7953 </r>
       <r>     1.3663    24.9076    35.9252 </r>
       <r>     1.4117    29.3408    37.2563 </r>
       <r>     1.4570    32.5725    38.7339 </r>
       <r>     1.5024    33.6428    40.2601 </r>
       <r>     1.5478    32.3820    41.7292 </r>
       <r>     1.5931    29.5479    43.0696 </r>
       <r>     1.6385    26.6307    44.2777 </r>
       <r>     1.6838    25.3981    45.4299 </r>
       <r>     1.7292    27.3391    46.6702 </r>
       <r>     1.7746    33.1851    48.1756 </r>
       <r>     1.8199    42.6686    50.1113 </r>
       <r>     1.8653    54.6302    52.5896 </r>
       <r>     1.9107    67.4573    55.6498 </r>
       <r>     1.9560    79.6344    59.2624 </r>
       <r>     2.0014    90.0789    63.3489 </r>
       <r>     2.0468    98.1186    67.8001 </r>
       <r>     2.0921   103.3230    72.4874 </r>
       <r>     2.1375   105.5283    77.2747 </r>
       <r>     2.1829   105.1134    82.0432 </r>
       <r>     2.2282   103.1974    86.7248 </r>
       <r>     2.2736   101.4056    91.3250 </r>
       <r>     2.3190   101.2067    95.9163 </r>
       <r>     2.3643   103.2070   100.5983 </r>
       <r>     2.4097   106.8698   105.4465 </r>
       <r>     2.4551   110.9044   110.4777 </r>
       <r>     2.5004   114.1577   115.6565 </r>
       <r>     2.5458   116.4463   120.9391 </r>
       <r>     2.5912   118.6946   126.3237 </r>
       <r>     2.6365   122.1925   131.8670 </r>
       <r>     2.6819   127.5248   137.6522 </r>
       <r>     2.7273   134.0736   143.7345 </r>
       <r>     2.7726   140.5425   150.1103 </r>
       <r>     2.8180   146.0342   156.7352 </r>
       <r>     2.8633   150.7063   163.5720 </r>
       <r>     2.9087   155.4226   170.6228 </r>
       <r>     2.9541   160.7322   177.9144 </r>
       <r>     2.9994   166.1077   185.4500 </r>
       <r>     3.0448   170.1306   193.1680 </r>
       <r>     3.0902   171.4809   200.9473 </r>
       <r>     3.1355   169.8886   208.6543 </r>
       <r>     3.1809   166.2595   216.1967 </r>
       <r>     3.2263   161.9445   223.5434 </r>
       <r>     3.2716   157.8861   230.7059 </r>
       <r>     3.3170   154.3950   237.7101 </r>
       <r>     3.3624   151.5829   244.5867 </r>
       <r>     3.4077   149.7827   251.3816 </r>
       <r>     3.4531   149.3829   258.1584 </r>
       <r>     3.4985   150.2404   264.9741 </r>
       <r>     3.5438   151.3675   271.8409 </r>
       <r>     3.5892   151.3321   278.7062 </r>
       <r>     3.6346   149.1197   285.4710 </r>
       <r>     3.6799   144.8119   292.0405 </r>
       <r>     3.7253   139.6217   298.3744 </r>
       <r>     3.7707   135.2661   304.5108 </r>
       <r>     3.8160   133.0059   310.5447 </r>
       <r>     3.8614   132.8616   316.5720 </r>
       <r>     3.9067   133.5297   322.6296 </r>
       <r>     3.9521   133.2196   328.6731 </r>
       <r>     3.9975   130.9908   334.6156 </r>
       <r>     4.0428   127.6331   340.4057 </r>
       <r>     4.0882   125.3003   346.0899 </r>
       <r>     4.1336   126.0547   351.8085 </r>
       <r>     4.1789   130.4676   357.7272 </r>
       <r>     4.2243   137.4543   363.9628 </r>
       <r>     4.2697   145.4365   370.5606 </r>
       <r>     4.3150   153.6649   377.5316 </r>
       <r>     4.3604   162.3991   384.8989 </r>
       <r>     4.4058   171.8257   392.6938 </r>
       <r>     4.4511   180.9055   400.9006 </r>
       <r>     4.4965   187.4077   409.4024 </r>
       <r>     4.5419   189.2167   417.9863 </r>
       <r>     4.5872   185.8600   426.4179 </r>
       <r>     4.6326   179.1433   434.5448 </r>
       <r>     4.6780   172.5752   442.3737 </r>
       <r>     4.7233   169.9898   450.0854 </r>
       <r>     4.7687   173.9945   457.9787 </r>
       <r>     4.8141   184.8188   466.3630 </r>
       <r>     4.8594   200.0728   475.4394 </r>
       <r>     4.9048   215.6716   485.2234 </r>
       <r>     4.9501   227.5984   495.5484 </r>
       <r>     4.9955   233.5929   506.1454 </r>
       <r>     5.0409   233.8391   516.7536 </r>
       <r>     5.0862   230.4147   527.2065 </r>
       <r>     5.1316   226.0908   537.4631 </r>
       <r>     5.1770   223.3408   547.5950 </r>
       <r>     5.2223   223.9656   557.7553 </r>
       <r>     5.2677   229.0403   568.1458 </r>
       <r>     5.3131   238.6268   578.9711 </r>
       <r>     5.3584   251.1358   590.3640 </r>
       <r>     5.4038   262.9798   602.2941 </r>
       <r>     5.4492   269.3764   614.5145 </r>
       <r>     5.4945   266.4026   626.5999 </r>
       <r>     5.5399   253.1942   638.0861 </r>
       <r>     5.5853   232.7006   648.6427 </r>
       <r>     5.6306   210.2557   658.1810 </r>
       <r>     5.6760   190.8032   666.8368 </r>
       <r>     5.7214   176.6043   674.8485 </r>
       <r>     5.7667   166.8566   682.4180 </r>
       <r>     5.8121   159.2223   689.6412 </r>
       <r>     5.8575   151.9728   696.5355 </r>
       <r>     5.9028   145.2362   703.1241 </r>
       <r>     5.9482   140.6923   709.5067 </r>
       <r>     5.9936   140.2059   715.8672 </r>
       <r>     6.0389   144.4766   722.4214 </r>
       <r>     6.0843   152.5454   729.3416 </r>
       <r>     6.1296   162.3033   736.7046 </r>
       <r>     6.1750   171.5742   744.4881 </r>
       <r>     6.2204   179.1473   752.6151 </r>
       <r>     6.2657   185.2302   761.0182 </r>
       <r>     6.3111   191.0277   769.6842 </r>
       <r>     6.3565   197.5923   778.6480 </r>
       <r>     6.4018   204.6798   787.9334 </r>
       <r>     6.4472   210.5874   797.4867 </r>
       <r>     6.4926   213.3282   807.1644 </r>
       <r>     6.5379   212.2957   816.7953 </r>
       <r>     6.5833   208.9273   826.2733 </r>
       <r>     6.6287   205.6027   835.6005 </r>
       <r>     6.6740   203.6056   844.8372 </r>
       <r>     6.7194   201.9428   853.9984 </r>
       <r>     6.7648   198.1765   862.9887 </r>
       <r>     6.8101   190.6814   871.6390 </r>
       <r>     6.8555   180.4450   879.8249 </r>
       <r>     6.9009   170.8454   887.5754 </r>
       <r>     6.9462   165.5122   895.0839 </r>
       <r>     6.9916   165.9567   902.6126 </r>
       <r>     7.0370   170.7819   910.3601 </r>
       <r>     7.0823   176.9180   918.3861 </r>
       <r>     7.1277   181.7208   926.6299 </r>
       <r>     7.1730   184.3329   934.9922 </r>
       <r>     7.2184   185.6168   943.4127 </r>
       <r>     7.2638   187.1869   951.9045 </r>
       <r>     7.3091   190.4541   960.5445 </r>
       <r>     7.3545   196.0723   969.4394 </r>
       <r>     7.3999   203.5806   978.6749 </r>
       <r>     7.4452   211.0436   988.2489 </r>
       <r>     7.4906   214.9602   998.0007 </r>
       <r>     7.5360   210.9543  1007.5707 </r>
       <r>     7.5813   195.3896  1016.4346 </r>
       <r>     7.6267   167.2977  1024.0241 </r>
       <r>     7.6721   129.5007  1029.8989 </r>
       <r>     7.7174    88.0465  1033.8932 </r>
       <r>     7.7628    50.0260  1036.1626 </r>
       <r>     7.8082    20.8924  1037.1104 </r>
       <r>     7.8535     2.7383  1037.2346 </r>
       <r>     7.8989    -5.6817  1036.9769 </r>
       <r>     7.9443    -7.5352  1036.6350 </r>
       <r>     7.9896    -6.1713  1036.3551 </r>
       <r>     8.0350    -3.9871  1036.1742 </r>
       <r>     8.0804    -2.1701  1036.0758 </r>
       <r>     8.1257    -1.0225  1036.0294 </r>
       <r>     8.1711    -0.4228  1036.0102 </r>
       <r>     8.2164    -0.1547  1036.0032 </r>
       <r>     8.2618    -0.0503  1036.0009 </r>
       <r>     8.3072    -0.0146  1036.0002 </r>
       <r>     8.3525    -0.0038  1036.0001 </r>
       <r>     8.3979    -0.0009  1036.0000 </r>
       <r>     8.4433    -0.0002  1036.0000 </r>
       <r>     8.4886    -0.0000  1036.0000 </r>
       <r>     8.5340    -0.0000  1036.0000 </r>
       <r>     8.5794    -0.0000  1036.0000 </r>
       <r>     8.6247    -0.0000  1036.0000 </r>
       <r>     8.6701    -0.0000  1036.0000 </r>
       <r>     8.7155    -0.0000  1036.0000 </r>
       <r>     8.7608    -0.0000  1036.0000 </r>
       <r>     8.8062    -0.0000  1036.0000 </r>
       <r>     8.8516    -0.0000  1036.0000 </r>
       <r>     8.8969    -0.0000  1036.0000 </r>
       <r>     8.9423     0.0000  1036.0000 </r>
       <r>     8.9877     0.0000  1036.0000 </r>
       <r>     9.0330     0.0000  1036.0000 </r>
       <r>     9.0784     0.0000  1036.0000 </r>
       <r>     9.1238     0.0000  1036.0000 </r>
       <r>     9.1691     0.0000  1036.0000 </r>
       <r>     9.2145     0.0000  1036.0000 </r>
       <r>     9.2598     0.0000  1036.0000 </r>
       <r>     9.3052     0.0000  1036.0000 </r>
       <r>     9.3506     0.0000  1036.0000 </r>
       <r>     9.3959     0.0000  1036.0000 </r>
       <r>     9.4413     0.0000  1036.0000 </r>
       <r>     9.4867     0.0000  1036.0000 </r>
       <r>     9.5320     0.0000  1036.0000 </r>
       <r>     9.5774     0.0000  1036.0000 </r>
       <r>     9.6228     0.0000  1036.0000 </r>
       <r>     9.6681     0.0000  1036.0000 </r>
      </set>
     </set>
    </array>
   </total>
  </dos>
 </calculation>
 <structure name="finalpos" >
  <crystal>
   <varray name="basis" >
    <v>      10.34501558      -0.00000000       0.00000000 </v>
    <v>      -0.00000000      10.34501558      -0.00000000 </v>
    <v>       0.00000000      -0.00000000      10.34501558 </v>
   </varray>
   <i name="volume">   1107.11681455 </i>
   <varray name="rec_basis" >
    <v>       0.09666491       0.00000000      -0.00000000 </v>
    <v>       0.00000000       0.09666491       0.00000000 </v>
    <v>       0.00000000       0.00000000       0.09666491 </v>
   </varray>
  </crystal>
  <varray name="positions" >
   <v>      -0.00000000       0.00000000       0.00000000 </v>
   <v>       0.00000000       0.16666893       0.16666893 </v>
   <v>       0.16666893      -0.00000000       0.16666893 </v>
   <v>       0.16666893       0.16666893      -0.00000000 </v>
   <v>       0.33333106      -0.00000000      -0.00000000 </v>
   <v>       0.33333107       0.16666893       0.16666893 </v>
   <v>       0.50000000       0.00000000       0.16666894 </v>
   <v>       0.50000000       0.16666894      -0.00000000 </v>
   <v>       0.66666897       0.00000000       0.00000000 </v>
   <v>       0.66666896       0.16666893       0.16666893 </v>
   <v>       0.83333104      -0.00000000       0.16666893 </v>
   <v>       0.83333104       0.16666893       0.00000000 </v>
   <v>      -0.00000000       0.33333106      -0.00000000 </v>
   <v>       0.00000000       0.50000000       0.16666894 </v>
   <v>       0.16666893       0.33333107       0.16666893 </v>
   <v>       0.16666894       0.50000000       0.00000000 </v>
   <v>       0.33333107       0.33333107      -0.00000000 </v>
   <v>       0.33333107       0.50000000       0.16666893 </v>
   <v>       0.50000000       0.33333107       0.16666893 </v>
   <v>       0.50000000       0.50000000       0.00000000 </v>
   <v>       0.66666896       0.33333107      -0.00000000 </v>
   <v>       0.66666896       0.50000000       0.16666893 </v>
   <v>       0.83333104       0.33333107       0.16666893 </v>
   <v>       0.83333103       0.50000000      -0.00000000 </v>
   <v>      -0.00000000       0.66666897      -0.00000000 </v>
   <v>       0.00000000       0.83333104       0.16666893 </v>
   <v>       0.16666893       0.66666896       0.16666893 </v>
   <v>       0.16666893       0.83333104       0.00000000 </v>
   <v>       0.33333107       0.66666896       0.00000000 </v>
   <v>       0.33333107       0.83333104       0.16666893 </v>
   <v>       0.50000000       0.66666896       0.16666893 </v>
   <v>       0.50000000       0.83333103       0.00000000 </v>
   <v>       0.66666896       0.66666896      -0.00000000 </v>
   <v>       0.66666896       0.83333104       0.16666893 </v>
   <v>       0.83333104       0.66666896       0.16666893 </v>
   <v>       0.83333104       0.83333104      -0.00000000 </v>
   <v>       0.00000000       0.00000000       0.33333106 </v>
   <v>       0.00000000       0.16666894       0.50000000 </v>
   <v>       0.16666894      -0.00000000       0.50000000 </v>
   <v>       0.16666893       0.16666893       0.33333107 </v>
   <v>       0.33333107       0.00000000       0.33333107 </v>
   <v>       0.33333107       0.16666893       0.50000000 </v>
   <v>       0.50000000       0.00000000       0.50000000 </v>
   <v>       0.50000000       0.16666893       0.33333107 </v>
   <v>       0.66666896      -0.00000000       0.33333107 </v>
   <v>       0.66666896       0.16666893       0.50000000 </v>
   <v>       0.83333103       0.00000000       0.50000000 </v>
   <v>       0.83333104       0.16666893       0.33333107 </v>
   <v>      -0.00000000       0.33333107       0.33333107 </v>
   <v>      -0.00000000       0.50000000       0.50000000 </v>
   <v>       0.16666893       0.33333107       0.50000000 </v>
   <v>       0.16666893       0.50000000       0.33333107 </v>
   <v>       0.33333107       0.33333107       0.33333107 </v>
   <v>       0.33333106       0.50000000       0.50000000 </v>
   <v>       0.50000000       0.33333106       0.50000000 </v>
   <v>       0.50000000       0.50000000       0.33333106 </v>
   <v>       0.66666896       0.33333107       0.33333107 </v>
   <v>       0.66666897       0.50000000       0.50000000 </v>
   <v>       0.83333104       0.33333107       0.50000000 </v>
   <v>       0.83333104       0.50000000       0.33333107 </v>
   <v>       0.00000000       0.66666896       0.33333107 </v>
   <v>      -0.00000000       0.83333103       0.50000000 </v>
   <v>       0.16666893       0.66666896       0.50000000 </v>
   <v>       0.16666893       0.83333104       0.33333107 </v>
   <v>       0.33333107       0.66666896       0.33333107 </v>
   <v>       0.33333107       0.83333104       0.50000000 </v>
   <v>       0.50000000       0.66666897       0.50000000 </v>
   <v>       0.50000000       0.83333104       0.33333107 </v>
   <v>       0.66666896       0.66666896       0.33333107 </v>
   <v>       0.66666896       0.83333104       0.50000000 </v>
   <v>       0.83333104       0.66666896       0.50000000 </v>
   <v>       0.83333104       0.83333104       0.33333107 </v>
   <v>       0.00000000      -0.00000000       0.66666897 </v>
   <v>      -0.00000000       0.16666893       0.83333104 </v>
   <v>       0.16666893       0.00000000       0.83333104 </v>
   <v>       0.16666893       0.16666893       0.66666896 </v>
   <v>       0.33333107      -0.00000000       0.66666896 </v>
   <v>       0.33333107       0.16666893       0.83333104 </v>
   <v>       0.50000000       0.00000000       0.83333103 </v>
   <v>       0.50000000       0.16666893       0.66666896 </v>
   <v>       0.66666896      -0.00000000       0.66666896 </v>
   <v>       0.66666896       0.16666893       0.83333104 </v>
   <v>       0.83333104       0.00000000       0.83333104 </v>
   <v>       0.83333104       0.16666893       0.66666896 </v>
   <v>       0.00000000       0.33333107       0.66666896 </v>
   <v>      -0.00000000       0.50000000       0.83333103 </v>
   <v>       0.16666893       0.33333107       0.83333104 </v>
   <v>       0.16666893       0.50000000       0.66666896 </v>
   <v>       0.33333107       0.33333107       0.66666896 </v>
   <v>       0.33333107       0.50000000       0.83333104 </v>
   <v>       0.50000000       0.33333107       0.83333104 </v>
   <v>       0.50000000       0.50000000       0.66666897 </v>
   <v>       0.66666896       0.33333107       0.66666896 </v>
   <v>       0.66666896       0.50000000       0.83333104 </v>
   <v>       0.83333104       0.33333107       0.83333104 </v>
   <v>       0.83333104       0.50000000       0.66666896 </v>
   <v>       0.00000000       0.66666896       0.66666896 </v>
   <v>      -0.00000000       0.83333104       0.83333104 </v>
   <v>       0.16666893       0.66666896       0.83333104 </v>
   <v>       0.16666893       0.83333104       0.66666896 </v>
   <v>       0.33333107       0.66666896       0.66666896 </v>
   <v>       0.33333107       0.83333104       0.83333104 </v>
   <v>       0.50000000       0.66666896       0.83333104 </v>
   <v>       0.50000000       0.83333104       0.66666896 </v>
   <v>       0.66666896       0.66666896       0.66666896 </v>
   <v>       0.66666896       0.83333104       0.83333104 </v>
   <v>       0.83333104       0.66666896       0.83333104 </v>
   <v>       0.83333104       0.83333104       0.66666896 </v>
  </varray>
 </structure>
</modeling>
