 108 108   0   0
  0.1022088E+02  0.1033485E-08  0.1033485E-08  0.1033485E-08  0.5000000E-15
  1.000000000000000E-004
  CAR 
 Opt                                     
      9.95110734     -4.00063699  301      6.79413505      1.00000000
     -4.001  0.0000E+00  0.0000E+00
     -3.954  0.0000E+00  0.0000E+00
     -3.908  0.0000E+00  0.0000E+00
     -3.861  0.0000E+00  0.0000E+00
     -3.815  0.0000E+00  0.0000E+00
     -3.768  0.0000E+00  0.0000E+00
     -3.722  0.0000E+00  0.0000E+00
     -3.675  0.0000E+00  0.0000E+00
     -3.629 -0.6147E-30 -0.2859E-31
     -3.582 -0.2431E-28 -0.1159E-29
     -3.536 -0.8812E-27 -0.4214E-28
     -3.489 -0.2863E-25 -0.1374E-26
     -3.443 -0.8339E-24 -0.4016E-25
     -3.396 -0.2177E-22 -0.1052E-23
     -3.350 -0.5091E-21 -0.2473E-22
     -3.303 -0.1067E-19 -0.5208E-21
     -3.257 -0.2002E-18 -0.9833E-20
     -3.210 -0.3366E-17 -0.1664E-18
     -3.164 -0.4891E-16 -0.2441E-17
     -3.117 -0.6618E-15 -0.3322E-16
     -3.071 -0.7953E-14 -0.4031E-15
     -3.024 -0.8557E-13 -0.4382E-14
     -2.978 -0.8230E-12 -0.4265E-13
     -2.931 -0.7073E-11 -0.3716E-12
     -2.884 -0.5430E-10 -0.2897E-11
     -2.838 -0.3720E-09 -0.2020E-10
     -2.791 -0.2273E-08 -0.1259E-09
     -2.745 -0.1238E-07 -0.7016E-09
     -2.698 -0.6000E-07 -0.3492E-08
     -2.652 -0.2586E-06 -0.1552E-07
     -2.605 -0.9893E-06 -0.6153E-07
     -2.559 -0.3355E-05 -0.2175E-06
     -2.512 -0.1006E-04 -0.6854E-06
     -2.466 -0.2663E-04 -0.1924E-05
     -2.419 -0.6200E-04 -0.4807E-05
     -2.373 -0.1265E-03 -0.1069E-04
     -2.326 -0.2252E-03 -0.2117E-04
     -2.280 -0.3460E-03 -0.3726E-04
     -2.233 -0.4482E-03 -0.5810E-04
     -2.187 -0.4542E-03 -0.7922E-04
     -2.140 -0.2420E-03 -0.9047E-04
     -2.094  0.3705E-03 -0.7324E-04
     -2.047  0.1640E-02  0.3039E-05
     -2.001  0.3875E-02  0.1833E-03
     -1.954  0.7339E-02  0.5246E-03
     -1.908  0.1213E-01  0.1089E-02
     -1.861  0.1813E-01  0.1932E-02
     -1.815  0.2500E-01  0.3095E-02
     -1.768  0.3222E-01  0.4593E-02
     -1.722  0.3896E-01  0.6405E-02
     -1.675  0.4412E-01  0.8457E-02
     -1.629  0.4665E-01  0.1063E-01
     -1.582  0.4603E-01  0.1277E-01
     -1.536  0.4259E-01  0.1475E-01
     -1.489  0.3747E-01  0.1649E-01
     -1.443  0.3227E-01  0.1799E-01
     -1.396  0.2897E-01  0.1934E-01
     -1.350  0.2971E-01  0.2072E-01
     -1.303  0.3630E-01  0.2241E-01
     -1.257  0.4925E-01  0.2470E-01
     -1.210  0.6699E-01  0.2781E-01
     -1.164  0.8600E-01  0.3181E-01
     -1.117  0.1019E+00  0.3655E-01
     -1.071  0.1107E+00  0.4170E-01
     -1.024  0.1100E+00  0.4682E-01
     -0.978  0.9904E-01  0.5142E-01
     -0.931  0.7955E-01  0.5512E-01
     -0.885  0.5603E-01  0.5773E-01
     -0.838  0.3489E-01  0.5935E-01
     -0.792  0.2238E-01  0.6039E-01
     -0.745  0.2214E-01  0.6142E-01
     -0.699  0.3408E-01  0.6301E-01
     -0.652  0.5488E-01  0.6556E-01
     -0.606  0.7941E-01  0.6925E-01
     -0.559  0.1023E+00  0.7401E-01
     -0.513  0.1195E+00  0.7957E-01
     -0.466  0.1291E+00  0.8557E-01
     -0.420  0.1321E+00  0.9171E-01
     -0.373  0.1309E+00  0.9780E-01
     -0.327  0.1278E+00  0.1037E+00
     -0.280  0.1232E+00  0.1095E+00
     -0.234  0.1158E+00  0.1149E+00
     -0.187  0.1042E+00  0.1197E+00
     -0.141  0.8886E-01  0.1238E+00
     -0.094  0.7417E-01  0.1273E+00
     -0.048  0.6699E-01  0.1304E+00
     -0.001  0.7380E-01  0.1338E+00
      0.045  0.9671E-01  0.1383E+00
      0.092  0.1308E+00  0.1444E+00
      0.138  0.1648E+00  0.1521E+00
      0.185  0.1848E+00  0.1607E+00
      0.231  0.1811E+00  0.1691E+00
      0.278  0.1536E+00  0.1762E+00
      0.324  0.1130E+00  0.1815E+00
      0.371  0.7642E-01  0.1851E+00
      0.417  0.5926E-01  0.1878E+00
      0.464  0.6803E-01  0.1910E+00
      0.510  0.9799E-01  0.1955E+00
      0.557  0.1368E+00  0.2019E+00
      0.603  0.1710E+00  0.2098E+00
      0.650  0.1922E+00  0.2188E+00
      0.696  0.1987E+00  0.2280E+00
      0.743  0.1934E+00  0.2370E+00
      0.789  0.1818E+00  0.2455E+00
      0.836  0.1701E+00  0.2534E+00
      0.882  0.1663E+00  0.2611E+00
      0.929  0.1774E+00  0.2694E+00
      0.975  0.2053E+00  0.2789E+00
      1.022  0.2415E+00  0.2901E+00
      1.068  0.2691E+00  0.3027E+00
      1.115  0.2712E+00  0.3153E+00
      1.162  0.2425E+00  0.3266E+00
      1.208  0.1933E+00  0.3355E+00
      1.255  0.1431E+00  0.3422E+00
      1.301  0.1093E+00  0.3473E+00
      1.348  0.9983E-01  0.3519E+00
      1.394  0.1145E+00  0.3572E+00
      1.441  0.1517E+00  0.3643E+00
      1.487  0.2111E+00  0.3741E+00
      1.534  0.2886E+00  0.3875E+00
      1.580  0.3703E+00  0.4048E+00
      1.627  0.4339E+00  0.4249E+00
      1.673  0.4600E+00  0.4463E+00
      1.720  0.4472E+00  0.4671E+00
      1.766  0.4177E+00  0.4866E+00
      1.813  0.4061E+00  0.5054E+00
      1.859  0.4402E+00  0.5259E+00
      1.906  0.5254E+00  0.5503E+00
      1.952  0.6432E+00  0.5803E+00
      1.999  0.7638E+00  0.6158E+00
      2.045  0.8618E+00  0.6559E+00
      2.092  0.9269E+00  0.6990E+00
      2.138  0.9655E+00  0.7439E+00
      2.185  0.9948E+00  0.7901E+00
      2.231  0.1034E+01  0.8382E+00
      2.278  0.1094E+01  0.8891E+00
      2.324  0.1169E+01  0.9435E+00
      2.371  0.1232E+01  0.1001E+01
      2.417  0.1252E+01  0.1059E+01
      2.464  0.1210E+01  0.1115E+01
      2.510  0.1118E+01  0.1167E+01
      2.557  0.1017E+01  0.1215E+01
      2.603  0.9622E+00  0.1259E+01
      2.650  0.9893E+00  0.1305E+01
      2.696  0.1101E+01  0.1357E+01
      2.743  0.1270E+01  0.1416E+01
      2.789  0.1453E+01  0.1483E+01
      2.836  0.1616E+01  0.1558E+01
      2.882  0.1730E+01  0.1639E+01
      2.929  0.1780E+01  0.1722E+01
      2.975  0.1760E+01  0.1803E+01
      3.022  0.1679E+01  0.1882E+01
      3.068  0.1572E+01  0.1955E+01
      3.115  0.1482E+01  0.2024E+01
      3.161  0.1449E+01  0.2091E+01
      3.208  0.1486E+01  0.2160E+01
      3.254  0.1576E+01  0.2233E+01
      3.301  0.1675E+01  0.2311E+01
      3.347  0.1737E+01  0.2392E+01
      3.394  0.1728E+01  0.2472E+01
      3.440  0.1643E+01  0.2549E+01
      3.487  0.1512E+01  0.2619E+01
      3.533  0.1384E+01  0.2683E+01
      3.580  0.1310E+01  0.2744E+01
      3.626  0.1313E+01  0.2805E+01
      3.673  0.1378E+01  0.2870E+01
      3.719  0.1459E+01  0.2937E+01
      3.766  0.1502E+01  0.3007E+01
      3.812  0.1476E+01  0.3076E+01
      3.859  0.1393E+01  0.3141E+01
      3.905  0.1300E+01  0.3201E+01
      3.952  0.1250E+01  0.3259E+01
      3.998  0.1268E+01  0.3318E+01
      4.045  0.1334E+01  0.3380E+01
      4.091  0.1394E+01  0.3445E+01
      4.138  0.1399E+01  0.3510E+01
      4.184  0.1334E+01  0.3572E+01
      4.231  0.1236E+01  0.3630E+01
      4.277  0.1177E+01  0.3684E+01
      4.324  0.1220E+01  0.3741E+01
      4.370  0.1383E+01  0.3805E+01
      4.417  0.1628E+01  0.3881E+01
      4.463  0.1878E+01  0.3968E+01
      4.510  0.2059E+01  0.4064E+01
      4.556  0.2133E+01  0.4163E+01
      4.603  0.2107E+01  0.4261E+01
      4.649  0.2012E+01  0.4355E+01
      4.696  0.1885E+01  0.4443E+01
      4.742  0.1754E+01  0.4524E+01
      4.789  0.1649E+01  0.4601E+01
      4.835  0.1599E+01  0.4675E+01
      4.882  0.1633E+01  0.4751E+01
      4.928  0.1763E+01  0.4833E+01
      4.975  0.1968E+01  0.4925E+01
      5.021  0.2197E+01  0.5027E+01
      5.068  0.2390E+01  0.5138E+01
      5.115  0.2504E+01  0.5254E+01
      5.161  0.2535E+01  0.5372E+01
      5.208  0.2515E+01  0.5489E+01
      5.254  0.2487E+01  0.5605E+01
      5.301  0.2485E+01  0.5720E+01
      5.347  0.2511E+01  0.5837E+01
      5.394  0.2541E+01  0.5955E+01
      5.440  0.2538E+01  0.6073E+01
      5.487  0.2472E+01  0.6188E+01
      5.533  0.2345E+01  0.6298E+01
      5.580  0.2190E+01  0.6399E+01
      5.626  0.2054E+01  0.6495E+01
      5.673  0.1968E+01  0.6586E+01
      5.719  0.1926E+01  0.6676E+01
      5.766  0.1895E+01  0.6764E+01
      5.812  0.1833E+01  0.6849E+01
      5.859  0.1720E+01  0.6929E+01
      5.905  0.1571E+01  0.7002E+01
      5.952  0.1428E+01  0.7069E+01
      5.998  0.1344E+01  0.7131E+01
      6.045  0.1349E+01  0.7194E+01
      6.091  0.1435E+01  0.7261E+01
      6.138  0.1562E+01  0.7334E+01
      6.184  0.1681E+01  0.7412E+01
      6.231  0.1764E+01  0.7494E+01
      6.277  0.1818E+01  0.7578E+01
      6.324  0.1865E+01  0.7665E+01
      6.370  0.1917E+01  0.7754E+01
      6.417  0.1970E+01  0.7846E+01
      6.463  0.2015E+01  0.7939E+01
      6.510  0.2058E+01  0.8035E+01
      6.556  0.2110E+01  0.8133E+01
      6.603  0.2172E+01  0.8234E+01
      6.649  0.2218E+01  0.8338E+01
      6.696  0.2208E+01  0.8440E+01
      6.742  0.2118E+01  0.8539E+01
      6.789  0.1961E+01  0.8630E+01
      6.835  0.1779E+01  0.8713E+01
      6.882  0.1621E+01  0.8788E+01
      6.928  0.1527E+01  0.8859E+01
      6.975  0.1518E+01  0.8930E+01
      7.021  0.1596E+01  0.9004E+01
      7.068  0.1739E+01  0.9085E+01
      7.114  0.1899E+01  0.9173E+01
      7.161  0.2012E+01  0.9267E+01
      7.207  0.2032E+01  0.9361E+01
      7.254  0.1956E+01  0.9452E+01
      7.300  0.1829E+01  0.9537E+01
      7.347  0.1720E+01  0.9617E+01
      7.393  0.1682E+01  0.9695E+01
      7.440  0.1729E+01  0.9776E+01
      7.486  0.1834E+01  0.9861E+01
      7.533  0.1942E+01  0.9951E+01
      7.579  0.1991E+01  0.1004E+02
      7.626  0.1927E+01  0.1013E+02
      7.672  0.1722E+01  0.1021E+02
      7.719  0.1392E+01  0.1028E+02
      7.765  0.9908E+00  0.1032E+02
      7.812  0.5982E+00  0.1035E+02
      7.858  0.2823E+00  0.1037E+02
      7.905  0.7673E-01  0.1037E+02
      7.951 -0.2478E-01  0.1037E+02
      7.998 -0.5406E-01  0.1037E+02
      8.044 -0.4739E-01  0.1036E+02
      8.091 -0.3094E-01  0.1036E+02
      8.137 -0.1719E-01  0.1036E+02
      8.184 -0.8900E-02  0.1036E+02
      8.230 -0.4657E-02  0.1036E+02
      8.277 -0.2555E-02  0.1036E+02
      8.323 -0.1419E-02  0.1036E+02
      8.370 -0.7512E-03  0.1036E+02
      8.416 -0.3620E-03  0.1036E+02
      8.463 -0.1555E-03  0.1036E+02
      8.509 -0.5904E-04  0.1036E+02
      8.556 -0.1979E-04  0.1036E+02
      8.602 -0.5865E-05  0.1036E+02
      8.649 -0.1538E-05  0.1036E+02
      8.695 -0.3579E-06  0.1036E+02
      8.742 -0.7397E-07  0.1036E+02
      8.788 -0.1360E-07  0.1036E+02
      8.835 -0.2228E-08  0.1036E+02
      8.881 -0.3254E-09  0.1036E+02
      8.928 -0.4240E-10  0.1036E+02
      8.974 -0.4935E-11  0.1036E+02
      9.021 -0.5132E-12  0.1036E+02
      9.067 -0.4770E-13  0.1036E+02
      9.114 -0.3968E-14  0.1036E+02
      9.161 -0.2971E-15  0.1036E+02
      9.207 -0.2122E-16  0.1036E+02
      9.254  0.0000E+00  0.1036E+02
      9.300  0.0000E+00  0.1036E+02
      9.347  0.0000E+00  0.1036E+02
      9.393  0.0000E+00  0.1036E+02
      9.440  0.0000E+00  0.1036E+02
      9.486  0.0000E+00  0.1036E+02
      9.533  0.0000E+00  0.1036E+02
      9.579  0.0000E+00  0.1036E+02
      9.626  0.0000E+00  0.1036E+02
      9.672  0.0000E+00  0.1036E+02
      9.719  0.0000E+00  0.1036E+02
      9.765  0.0000E+00  0.1036E+02
      9.812  0.0000E+00  0.1036E+02
      9.858  0.0000E+00  0.1036E+02
      9.905  0.0000E+00  0.1036E+02
      9.951  0.0000E+00  0.1036E+02
