  108  108  100    1
  0.1022088E+02  0.1033485E-08  0.1033485E-08  0.1033485E-08  0.5000000E-15
  1.000000000000000E-004
  CAR 
 Opt                                     
    864      4    518
 
  0.0000000E+00  0.0000000E+00  0.0000000E+00  0.3703704E-01
    1       -2.000637   1.000000
    2       -0.509037   1.000000
    3       -0.509037   1.000000
    4       -0.509037   1.000000
    5       -0.507962   1.000000
    6       -0.507962   1.000000
    7       -0.507962   1.000000
    8        0.781810   1.000000
    9        0.781810   1.000000
   10        0.781810   1.000000
   11        0.782807   1.000000
   12        0.782807   1.000000
   13        0.782807   1.000000
   14        0.782807   1.000000
   15        0.782807   1.000000
   16        0.782807   1.000000
   17        0.783804   1.000000
   18        0.783804   1.000000
   19        0.783804   1.000000
   20        1.420830   1.000000
   21        1.421493   1.000000
   22        1.421493   1.000000
   23        1.421493   1.000000
   24        1.422157   1.000000
   25        1.422157   1.000000
   26        1.422157   1.000000
   27        1.422820   1.000000
   28        1.863898   1.000000
   29        1.863898   1.000000
   30        1.863898   1.000000
   31        1.897197   1.000000
   32        1.897197   1.000000
   33        1.897197   1.000000
   34        1.897827   1.000000
   35        1.897827   1.000000
   36        1.897827   1.000000
   37        2.592023   1.000000
   38        2.592023   1.000000
   39        2.592023   1.000000
   40        2.592026   1.000000
   41        2.592026   1.000000
   42        2.592026   1.000000
   43        2.592028   1.000000
   44        2.592028   1.000000
   45        2.592028   1.000000
   46        2.592036   1.000000
   47        2.592036   1.000000
   48        2.592036   1.000000
   49        2.592197   1.000000
   50        2.592197   1.000000
   51        2.592197   1.000000
   52        2.592205   1.000000
   53        2.592205   1.000000
   54        2.592205   1.000000
   55        2.592206   1.000000
   56        2.592206   1.000000
   57        2.592207   1.000000
   58        2.592210   1.000000
   59        2.592210   1.000000
   60        2.592210   1.000000
   61        2.606103   1.000000
   62        2.606103   1.000000
   63        2.606103   1.000000
   64        2.665371   1.000000
   65        2.665371   1.000000
   66        2.665371   1.000000
   67        2.665372   1.000000
   68        2.665372   1.000000
   69        2.665372   1.000000
   70        2.666335   1.000000
   71        2.666335   1.000000
   72        2.666336   1.000000
   73        2.666336   1.000000
   74        2.666336   1.000000
   75        2.666336   1.000000
   76        2.880193   1.000000
   77        2.880193   1.000000
   78        2.880193   1.000000
   79        2.880193   1.000000
   80        2.880193   1.000000
   81        2.880193   1.000000
   82        2.880672   1.000000
   83        2.880672   1.000000
   84        2.880672   1.000000
   85        2.880672   1.000000
   86        2.880672   1.000000
   87        2.880672   1.000000
   88        2.881133   1.000000
   89        2.881133   1.000000
   90        2.881133   1.000000
   91        2.881133   1.000000
   92        2.881133   1.000000
   93        2.881133   1.000000
   94        2.881611   1.000000
   95        2.881611   1.000000
   96        2.881611   1.000000
   97        2.881612   1.000000
   98        2.881612   1.000000
   99        2.881612   1.000000
  100        3.184311   1.000000
  101        3.184311   1.000000
  102        3.184311   1.000000
  103        3.185345   1.000000
  104        3.185345   1.000000
  105        3.185345   1.000000
  106        3.311632   1.000000
  107        3.311632   1.000000
  108        3.311632   1.000000
  109        3.311756   1.000000
  110        3.311756   1.000000
  111        3.311756   1.000000
  112        3.311756   1.000000
  113        3.311756   1.000000
  114        3.311756   1.000000
  115        3.311874   1.000000
  116        3.311874   1.000000
  117        3.311875   1.000000
  118        3.322026   1.000000
  119        3.322026   1.000000
  120        3.322026   1.000000
  121        3.322027   1.000000
  122        3.322027   1.000000
  123        3.322027   1.000000
  124        3.322990   1.000000
  125        3.322990   1.000000
  126        3.322990   1.000000
  127        3.322990   1.000000
  128        3.322990   1.000000
  129        3.322990   1.000000
  130        3.568790   1.000000
  131        3.568790   1.000000
  132        3.568791   1.000000
  133        3.568805   1.000000
  134        3.568805   1.000000
  135        3.568805   1.000000
  136        3.568805   1.000000
  137        3.568805   1.000000
  138        3.568805   1.000000
  139        3.568826   1.000000
  140        3.568826   1.000000
  141        3.568826   1.000000
  142        3.691331   1.000000
  143        3.691331   1.000000
  144        3.691331   1.000000
  145        3.691331   1.000000
  146        3.691331   1.000000
  147        3.691331   1.000000
  148        3.692183   1.000000
  149        3.692183   1.000000
  150        3.692183   1.000000
  151        3.692183   1.000000
  152        3.692184   1.000000
  153        3.692184   1.000000
  154        3.692268   1.000000
  155        3.692268   1.000000
  156        3.692268   1.000000
  157        3.692269   1.000000
  158        3.692269   1.000000
  159        3.692269   1.000000
  160        3.693121   1.000000
  161        3.693121   1.000000
  162        3.693121   1.000000
  163        3.693121   1.000000
  164        3.693121   1.000000
  165        3.693121   1.000000
  166        4.296905   1.000000
  167        4.296905   1.000000
  168        4.296905   1.000000
  169        4.297694   1.000000
  170        4.297694   1.000000
  171        4.297694   1.000000
  172        4.297695   1.000000
  173        4.297695   1.000000
  174        4.297695   1.000000
  175        4.297763   1.000000
  176        4.297763   1.000000
  177        4.297763   1.000000
  178        4.298484   1.000000
  179        4.298484   1.000000
  180        4.298484   1.000000
  181        4.298553   1.000000
  182        4.298553   1.000000
  183        4.298553   1.000000
  184        4.298553   1.000000
  185        4.298553   1.000000
  186        4.298553   1.000000
  187        4.299342   1.000000
  188        4.299343   1.000000
  189        4.299343   1.000000
  190        4.348955   1.000000
  191        4.348955   1.000000
  192        4.348955   1.000000
  193        4.349129   1.000000
  194        4.349129   1.000000
  195        4.349129   1.000000
  196        4.349129   1.000000
  197        4.349129   1.000000
  198        4.349129   1.000000
  199        4.349305   1.000000
  200        4.349305   1.000000
  201        4.349305   1.000000
  202        4.462082   1.000000
  203        4.462082   1.000000
  204        4.462082   1.000000
  205        4.462721   1.000000
  206        4.462721   1.000000
  207        4.462721   1.000000
  208        4.639122   1.000000
  209        4.639122   1.000000
  210        4.639122   1.000000
  211        4.639122   1.000000
  212        4.639122   1.000000
  213        4.639122   1.000000
  214        4.639226   1.000000
  215        4.639226   1.000000
  216        4.639226   1.000000
  217        4.639227   1.000000
  218        4.639227   1.000000
  219        4.639227   1.000000
  220        4.639267   1.000000
  221        4.639267   1.000000
  222        4.639267   1.000000
  223        4.639267   1.000000
  224        4.639267   1.000000
  225        4.639267   1.000000
  226        4.639371   1.000000
  227        4.639371   1.000000
  228        4.639371   1.000000
  229        4.639371   1.000000
  230        4.639371   1.000000
  231        4.639371   1.000000
  232        4.872753   1.000000
  233        4.872753   1.000000
  234        4.872754   1.000000
  235        4.873193   1.000000
  236        4.873193   1.000000
  237        4.873193   1.000000
  238        4.873193   1.000000
  239        4.873193   1.000000
  240        4.873193   1.000000
  241        4.873632   1.000000
  242        4.873632   1.000000
  243        4.873632   1.000000
  244        5.038906   1.000000
  245        5.038924   1.000000
  246        5.038924   1.000000
  247        5.038924   1.000000
  248        5.038943   1.000000
  249        5.038943   1.000000
  250        5.038943   1.000000
  251        5.038963   1.000000
  252        5.175267   1.000000
  253        5.175267   1.000000
  254        5.175267   1.000000
  255        5.228696   1.000000
  256        5.228696   1.000000
  257        5.228696   1.000000
  258        5.228905   1.000000
  259        5.228905   1.000000
  260        5.228905   1.000000
  261        5.228905   1.000000
  262        5.228905   1.000000
  263        5.228905   1.000000
  264        5.228937   1.000000
  265        5.228937   1.000000
  266        5.228938   1.000000
  267        5.229115   1.000000
  268        5.229115   1.000000
  269        5.229115   1.000000
  270        5.229147   1.000000
  271        5.229147   1.000000
  272        5.229147   1.000000
  273        5.229147   1.000000
  274        5.229147   1.000000
  275        5.229147   1.000000
  276        5.229357   1.000000
  277        5.229357   1.000000
  278        5.229357   1.000000
  279        5.299738   1.000000
  280        5.299738   1.000000
  281        5.299751   1.000000
  282        5.299751   1.000000
  283        5.299751   1.000000
  284        5.299978   1.000000
  285        5.299978   1.000000
  286        5.299978   1.000000
  287        5.300178   1.000000
  288        5.300178   1.000000
  289        5.300178   1.000000
  290        5.300404   1.000000
  291        5.300404   1.000000
  292        5.300404   1.000000
  293        5.300416   1.000000
  294        5.300416   1.000000
  295        5.324634   1.000000
  296        5.324634   1.000000
  297        5.324634   1.000000
  298        5.324785   1.000000
  299        5.324785   1.000000
  300        5.324785   1.000000
  301        5.324785   1.000000
  302        5.324785   1.000000
  303        5.324785   1.000000
  304        5.324935   1.000000
  305        5.324935   1.000000
  306        5.324935   1.000000
  307        5.440415   1.000000
  308        5.440415   1.000000
  309        5.440415   1.000000
  310        5.440415   1.000000
  311        5.440415   1.000000
  312        5.440415   1.000000
  313        5.440539   1.000000
  314        5.440539   1.000000
  315        5.440539   1.000000
  316        5.440542   1.000000
  317        5.440542   1.000000
  318        5.440542   1.000000
  319        5.677556   1.000000
  320        5.677556   1.000000
  321        5.677556   1.000000
  322        5.677815   1.000000
  323        5.677815   1.000000
  324        5.677815   1.000000
  325        5.678017   1.000000
  326        5.678017   1.000000
  327        5.678017   1.000000
  328        5.678017   1.000000
  329        5.678017   1.000000
  330        5.678017   1.000000
  331        5.678277   1.000000
  332        5.678277   1.000000
  333        5.678277   1.000000
  334        5.678277   1.000000
  335        5.678277   1.000000
  336        5.678277   1.000000
  337        5.678478   1.000000
  338        5.678478   1.000000
  339        5.678478   1.000000
  340        5.678736   1.000000
  341        5.678737   1.000000
  342        5.678737   1.000000
  343        5.738841   1.000000
  344        5.738841   1.000000
  345        5.738841   1.000000
  346        5.738841   1.000000
  347        5.738841   1.000000
  348        5.738841   1.000000
  349        5.739775   1.000000
  350        5.739775   1.000000
  351        5.739775   1.000000
  352        5.739775   1.000000
  353        5.739775   1.000000
  354        5.739775   1.000000
  355        5.947100   1.000000
  356        5.947100   1.000000
  357        5.947100   1.000000
  358        5.947202   1.000000
  359        5.947202   1.000000
  360        5.947202   1.000000
  361        5.947202   1.000000
  362        5.947202   1.000000
  363        5.947202   1.000000
  364        5.947303   1.000000
  365        5.947303   1.000000
  366        5.947303   1.000000
  367        6.107076   1.000007
  368        6.107076   1.000007
  369        6.107076   1.000007
  370        6.107616   1.000007
  371        6.107616   1.000007
  372        6.107616   1.000007
  373        6.121928   1.000011
  374        6.121928   1.000011
  375        6.121928   1.000011
  376        6.122652   1.000011
  377        6.122652   1.000011
  378        6.122652   1.000011
  379        6.122652   1.000011
  380        6.122652   1.000011
  381        6.122652   1.000011
  382        6.123376   1.000011
  383        6.123376   1.000011
  384        6.123376   1.000011
  385        6.530030   1.034221
  386        6.530030   1.034221
  387        6.530030   1.034221
  388        6.530742   1.034305
  389        6.530742   1.034305
  390        6.530742   1.034305
  391        6.530745   1.034306
  392        6.530745   1.034306
  393        6.530745   1.034306
  394        6.531455   1.034387
  395        6.531455   1.034387
  396        6.531460   1.034388
  397        6.617702   1.008186
  398        6.617702   1.008186
  399        6.617702   1.008186
  400        6.617723   1.008166
  401        6.617727   1.008162
  402        6.617727   1.008162
  403        6.733399   0.744328
  404        6.733399   0.744328
  405        6.733399   0.744328
  406        6.733399   0.744327
  407        6.733399   0.744327
  408        6.733399   0.744327
  409        6.733825   0.742785
  410        6.733825   0.742785
  411        6.734077   0.741871
  412        6.734077   0.741871
  413        6.734077   0.741871
  414        6.734077   0.741871
  415        6.734077   0.741871
  416        6.734077   0.741871
  417        6.734089   0.741824
  418        6.734089   0.741824
  419        6.734089   0.741824
  420        6.734092   0.741816
  421        6.734092   0.741816
  422        6.734092   0.741816
  423        6.734767   0.739356
  424        6.734767   0.739356
  425        6.734768   0.739355
  426        6.734768   0.739354
  427        6.734768   0.739353
  428        6.734768   0.739353
  429        6.954720   0.009207
  430        6.954720   0.009207
  431        6.954720   0.009207
  432        6.954721   0.009207
  433        6.954721   0.009207
  434        6.954721   0.009207
  435        6.955344   0.008423
  436        6.955344   0.008423
  437        6.955344   0.008423
  438        6.955344   0.008422
  439        6.955344   0.008422
  440        6.955344   0.008422
  441        6.983753  -0.018868
  442        6.983753  -0.018868
  443        6.983753  -0.018868
  444        6.984694  -0.019510
  445        6.984694  -0.019510
  446        6.984694  -0.019510
  447        7.144025  -0.016448
  448        7.144025  -0.016448
  449        7.144025  -0.016448
  450        7.144026  -0.016447
  451        7.144026  -0.016447
  452        7.144026  -0.016447
  453        7.144620  -0.016325
  454        7.144620  -0.016325
  455        7.144620  -0.016325
  456        7.144620  -0.016325
  457        7.144620  -0.016325
  458        7.144620  -0.016325
  459        7.145868  -0.016070
  460        7.145868  -0.016070
  461        7.145868  -0.016070
  462        7.145868  -0.016070
  463        7.145868  -0.016070
  464        7.145868  -0.016070
  465        7.146334  -0.015975
  466        7.146334  -0.015975
  467        7.146334  -0.015975
  468        7.146335  -0.015975
  469        7.146335  -0.015975
  470        7.146335  -0.015975
  471        7.146516  -0.015938
  472        7.146516  -0.015938
  473        7.146516  -0.015938
  474        7.146517  -0.015938
  475        7.146517  -0.015938
  476        7.146517  -0.015938
  477        7.146983  -0.015843
  478        7.146983  -0.015843
  479        7.146983  -0.015843
  480        7.146983  -0.015843
  481        7.146983  -0.015843
  482        7.146983  -0.015843
  483        7.271373  -0.001896
  484        7.271374  -0.001896
  485        7.271386  -0.001896
  486        7.271386  -0.001896
  487        7.271427  -0.001894
  488        7.271620  -0.001887
  489        7.271621  -0.001887
  490        7.271666  -0.001885
  491        7.271826  -0.001878
  492        7.271828  -0.001878
  493        7.271849  -0.001878
  494        7.272060  -0.001869
  495        7.272060  -0.001869
  496        7.272067  -0.001869
  497        7.272075  -0.001869
  498        7.272103  -0.001868
  499        7.407594  -0.000064
  500        7.407886  -0.000063
  501        7.408569  -0.000062
  502        7.409784  -0.000060
  503        7.410875  -0.000058
  504        7.411992  -0.000056
  505        7.419401  -0.000045
  506        7.423629  -0.000040
  507        7.426780  -0.000036
  508        7.443551  -0.000022
  509        7.450847  -0.000018
  510        7.476304  -0.000008
  511        7.512265  -0.000002
  512        7.515258  -0.000002
  513        7.527076  -0.000001
  514        7.546447  -0.000001
  515        7.573964  -0.000000
  516        7.580723  -0.000000
  517        7.590829  -0.000000
  518        7.603988  -0.000000
 
  0.3333333E+00  0.0000000E+00  0.0000000E+00  0.2222222E+00
    1       -1.824947   1.000000
    2       -1.311577   1.000000
    3       -0.355041   1.000000
    4       -0.355041   1.000000
    5       -0.353974   1.000000
    6       -0.353974   1.000000
    7        0.091941   1.000000
    8        0.091941   1.000000
    9        0.092984   1.000000
   10        0.092984   1.000000
   11        0.472838   1.000000
   12        0.865111   1.000000
   13        0.866070   1.000000
   14        0.866070   1.000000
   15        0.867030   1.000000
   16        1.094667   1.000000
   17        1.095511   1.000000
   18        1.095511   1.000000
   19        1.096356   1.000000
   20        1.388743   1.000000
   21        1.616528   1.000000
   22        1.616528   1.000000
   23        1.617460   1.000000
   24        1.617460   1.000000
   25        1.795828   1.000000
   26        1.796274   1.000000
   27        1.796274   1.000000
   28        1.796720   1.000000
   29        1.905203   1.000000
   30        1.972028   1.000000
   31        1.972029   1.000000
   32        1.977234   1.000000
   33        2.023505   1.000000
   34        2.023505   1.000000
   35        2.024124   1.000000
   36        2.024124   1.000000
   37        2.191664   1.000000
   38        2.191886   1.000000
   39        2.191886   1.000000
   40        2.192107   1.000000
   41        2.269712   1.000000
   42        2.269712   1.000000
   43        2.378435   1.000000
   44        2.378435   1.000000
   45        2.379015   1.000000
   46        2.379015   1.000000
   47        2.414079   1.000000
   48        2.414079   1.000000
   49        2.414964   1.000000
   50        2.414964   1.000000
   51        2.517529   1.000000
   52        2.517529   1.000000
   53        2.517533   1.000000
   54        2.517533   1.000000
   55        2.517599   1.000000
   56        2.517599   1.000000
   57        2.517602   1.000000
   58        2.517602   1.000000
   59        2.674101   1.000000
   60        2.685834   1.000000
   61        2.685834   1.000000
   62        2.716191   1.000000
   63        2.716192   1.000000
   64        2.716364   1.000000
   65        2.716364   1.000000
   66        2.716490   1.000000
   67        2.716490   1.000000
   68        2.716662   1.000000
   69        2.716662   1.000000
   70        2.732129   1.000000
   71        2.732129   1.000000
   72        2.733096   1.000000
   73        2.733096   1.000000
   74        2.754025   1.000000
   75        2.754025   1.000000
   76        2.754945   1.000000
   77        2.754945   1.000000
   78        2.833850   1.000000
   79        2.833851   1.000000
   80        2.834269   1.000000
   81        2.834269   1.000000
   82        2.834463   1.000000
   83        2.834463   1.000000
   84        2.834882   1.000000
   85        2.834882   1.000000
   86        2.872592   1.000000
   87        2.879426   1.000000
   88        2.879426   1.000000
   89        2.880401   1.000000
   90        2.880401   1.000000
   91        2.924552   1.000000
   92        2.924552   1.000000
   93        2.965293   1.000000
   94        2.965510   1.000000
   95        2.965510   1.000000
   96        2.965726   1.000000
   97        2.975979   1.000000
   98        2.975980   1.000000
   99        2.994827   1.000000
  100        2.994827   1.000000
  101        2.995551   1.000000
  102        2.995551   1.000000
  103        3.236833   1.000000
  104        3.237068   1.000000
  105        3.237068   1.000000
  106        3.237298   1.000000
  107        3.242698   1.000000
  108        3.242712   1.000000
  109        3.243728   1.000000
  110        3.243728   1.000000
  111        3.346742   1.000000
  112        3.346742   1.000000
  113        3.347649   1.000000
  114        3.347649   1.000000
  115        3.361281   1.000000
  116        3.361281   1.000000
  117        3.361470   1.000000
  118        3.361471   1.000000
  119        3.366602   1.000000
  120        3.366602   1.000000
  121        3.367555   1.000000
  122        3.367555   1.000000
  123        3.414590   1.000000
  124        3.414590   1.000000
  125        3.415584   1.000000
  126        3.415584   1.000000
  127        3.428849   1.000000
  128        3.428849   1.000000
  129        3.429526   1.000000
  130        3.429526   1.000000
  131        3.495391   1.000000
  132        3.495391   1.000000
  133        3.496310   1.000000
  134        3.496310   1.000000
  135        3.555776   1.000000
  136        3.555777   1.000000
  137        3.556462   1.000000
  138        3.556462   1.000000
  139        3.582969   1.000000
  140        3.624482   1.000000
  141        3.624977   1.000000
  142        3.624977   1.000000
  143        3.625475   1.000000
  144        3.740537   1.000000
  145        3.740537   1.000000
  146        3.741412   1.000000
  147        3.741412   1.000000
  148        3.770347   1.000000
  149        3.770347   1.000000
  150        3.770701   1.000000
  151        3.770701   1.000000
  152        3.771279   1.000000
  153        3.771280   1.000000
  154        3.771633   1.000000
  155        3.771633   1.000000
  156        3.877701   1.000000
  157        3.877701   1.000000
  158        3.884288   1.000000
  159        3.885045   1.000000
  160        3.885045   1.000000
  161        3.885802   1.000000
  162        3.927992   1.000000
  163        3.927992   1.000000
  164        3.928724   1.000000
  165        3.928724   1.000000
  166        4.004286   1.000000
  167        4.004286   1.000000
  168        4.004685   1.000000
  169        4.004685   1.000000
  170        4.005197   1.000000
  171        4.005197   1.000000
  172        4.005596   1.000000
  173        4.005597   1.000000
  174        4.025797   1.000000
  175        4.055946   1.000000
  176        4.055954   1.000000
  177        4.056785   1.000000
  178        4.056785   1.000000
  179        4.120680   1.000000
  180        4.120680   1.000000
  181        4.120769   1.000000
  182        4.120769   1.000000
  183        4.163945   1.000000
  184        4.163945   1.000000
  185        4.164463   1.000000
  186        4.164463   1.000000
  187        4.427880   1.000000
  188        4.428024   1.000000
  189        4.428024   1.000000
  190        4.428170   1.000000
  191        4.444526   1.000000
  192        4.444526   1.000000
  193        4.444768   1.000000
  194        4.444768   1.000000
  195        4.464182   1.000000
  196        4.464182   1.000000
  197        4.464724   1.000000
  198        4.464724   1.000000
  199        4.469891   1.000000
  200        4.469891   1.000000
  201        4.470570   1.000000
  202        4.470570   1.000000
  203        4.482661   1.000000
  204        4.482661   1.000000
  205        4.483479   1.000000
  206        4.483479   1.000000
  207        4.483501   1.000000
  208        4.483501   1.000000
  209        4.484319   1.000000
  210        4.484320   1.000000
  211        4.586770   1.000000
  212        4.586770   1.000000
  213        4.671295   1.000000
  214        4.671360   1.000000
  215        4.671360   1.000000
  216        4.671425   1.000000
  217        4.730829   1.000000
  218        4.730830   1.000000
  219        4.730863   1.000000
  220        4.730863   1.000000
  221        4.730908   1.000000
  222        4.730908   1.000000
  223        4.730941   1.000000
  224        4.730942   1.000000
  225        4.740417   1.000000
  226        4.740417   1.000000
  227        4.740667   1.000000
  228        4.740667   1.000000
  229        4.754690   1.000000
  230        4.755426   1.000000
  231        4.755426   1.000000
  232        4.756162   1.000000
  233        4.834593   1.000000
  234        4.922192   1.000000
  235        4.922192   1.000000
  236        4.922226   1.000000
  237        4.922226   1.000000
  238        4.936274   1.000000
  239        4.936558   1.000000
  240        4.936558   1.000000
  241        4.936843   1.000000
  242        4.952921   1.000000
  243        4.952921   1.000000
  244        4.952992   1.000000
  245        4.952993   1.000000
  246        4.953155   1.000000
  247        4.953155   1.000000
  248        4.953227   1.000000
  249        4.953227   1.000000
  250        5.069211   1.000000
  251        5.069211   1.000000
  252        5.069367   1.000000
  253        5.069367   1.000000
  254        5.078120   1.000000
  255        5.078127   1.000000
  256        5.078127   1.000000
  257        5.078135   1.000000
  258        5.086186   1.000000
  259        5.115588   1.000000
  260        5.116143   1.000000
  261        5.116143   1.000000
  262        5.116699   1.000000
  263        5.191394   1.000000
  264        5.191394   1.000000
  265        5.191555   1.000000
  266        5.191555   1.000000
  267        5.239428   1.000000
  268        5.239428   1.000000
  269        5.278832   1.000000
  270        5.278833   1.000000
  271        5.279041   1.000000
  272        5.279041   1.000000
  273        5.282517   1.000000
  274        5.282517   1.000000
  275        5.282615   1.000000
  276        5.282615   1.000000
  277        5.299477   1.000000
  278        5.299848   1.000000
  279        5.299848   1.000000
  280        5.300219   1.000000
  281        5.321340   1.000000
  282        5.321565   1.000000
  283        5.321565   1.000000
  284        5.321789   1.000000
  285        5.333677   1.000000
  286        5.333805   1.000000
  287        5.333805   1.000000
  288        5.333933   1.000000
  289        5.338490   1.000000
  290        5.338790   1.000000
  291        5.338790   1.000000
  292        5.339091   1.000000
  293        5.342341   1.000000
  294        5.342390   1.000000
  295        5.342390   1.000000
  296        5.342438   1.000000
  297        5.380139   1.000000
  298        5.380139   1.000000
  299        5.380187   1.000000
  300        5.380192   1.000000
  301        5.430197   1.000000
  302        5.430197   1.000000
  303        5.430322   1.000000
  304        5.430635   1.000000
  305        5.430734   1.000000
  306        5.430734   1.000000
  307        5.430929   1.000000
  308        5.430929   1.000000
  309        5.431146   1.000000
  310        5.431222   1.000000
  311        5.462503   1.000000
  312        5.462503   1.000000
  313        5.462883   1.000000
  314        5.462883   1.000000
  315        5.463348   1.000000
  316        5.463349   1.000000
  317        5.463559   1.000000
  318        5.463559   1.000000
  319        5.463583   1.000000
  320        5.463583   1.000000
  321        5.463793   1.000000
  322        5.463794   1.000000
  323        5.530614   1.000000
  324        5.530615   1.000000
  325        5.530828   1.000000
  326        5.530828   1.000000
  327        5.530968   1.000000
  328        5.530968   1.000000
  329        5.531181   1.000000
  330        5.531181   1.000000
  331        5.616871   1.000000
  332        5.616871   1.000000
  333        5.617476   1.000000
  334        5.617476   1.000000
  335        5.677666   1.000000
  336        5.677897   1.000000
  337        5.677897   1.000000
  338        5.678127   1.000000
  339        5.743279   1.000000
  340        5.743279   1.000000
  341        5.744114   1.000000
  342        5.744114   1.000000
  343        5.789393   1.000000
  344        5.789393   1.000000
  345        5.789922   1.000000
  346        5.789922   1.000000
  347        5.843626   1.000000
  348        5.898445   1.000000
  349        5.979909   1.000000
  350        5.979909   1.000000
  351        5.980174   1.000000
  352        5.980174   1.000000
  353        5.980494   1.000000
  354        5.980494   1.000000
  355        5.980759   1.000000
  356        5.980759   1.000000
  357        6.007247   1.000000
  358        6.007772   1.000000
  359        6.007772   1.000000
  360        6.008296   1.000000
  361        6.015842   1.000000
  362        6.015844   1.000000
  363        6.016036   1.000000
  364        6.016036   1.000000
  365        6.147277   1.000024
  366        6.147277   1.000024
  367        6.147919   1.000024
  368        6.147919   1.000024
  369        6.150078   1.000026
  370        6.150078   1.000026
  371        6.224016   1.000210
  372        6.224016   1.000210
  373        6.224376   1.000212
  374        6.224376   1.000212
  375        6.249019   1.000399
  376        6.249019   1.000399
  377        6.249278   1.000401
  378        6.249278   1.000401
  379        6.249521   1.000404
  380        6.249521   1.000404
  381        6.250116   1.000410