       N       E                     dE             d eps       ncg     rms          rms(c)
DAV:   1     0.759933447205E+04    0.75993E+04   -0.28884E+05  4152   0.184E+03
DAV:   2    -0.232322842141E+02   -0.76226E+04   -0.74536E+04  4144   0.458E+02
DAV:   3    -0.850120357765E+03   -0.82689E+03   -0.70732E+03  4152   0.191E+02
DAV:   4    -0.102999529342E+04   -0.17987E+03   -0.16903E+03  7504   0.574E+01
DAV:   5    -0.104513688104E+04   -0.15142E+02   -0.14293E+02  6616   0.218E+01    0.935E+01
RMM:   6    -0.877770908986E+03    0.16737E+03   -0.13581E+03  4144   0.110E+02    0.912E+00
RMM:   7    -0.880262808223E+03   -0.24919E+01   -0.10893E+02  4499   0.239E+01    0.306E+00
RMM:   8    -0.879416029950E+03    0.84678E+00   -0.12697E+01  4421   0.969E+00    0.309E+00
RMM:   9    -0.879793855954E+03   -0.37783E+00   -0.45832E+00  5727   0.202E+00    0.526E+00
RMM:  10    -0.879600796717E+03    0.19306E+00   -0.84563E-01  4881   0.160E+00    0.104E+00
RMM:  11    -0.879607819440E+03   -0.70227E-02   -0.28081E-01  5213   0.762E-01    0.606E-01
RMM:  12    -0.879606987137E+03    0.83230E-03   -0.54607E-02  5062   0.380E-01    0.198E-01
RMM:  13    -0.879607667226E+03   -0.68009E-03   -0.12084E-02  6088   0.847E-02    0.989E-02
RMM:  14    -0.879607839568E+03   -0.17234E-03   -0.95270E-04  4871   0.811E-02    0.180E-01
RMM:  15    -0.879607524096E+03    0.31547E-03   -0.13241E-05  4700   0.496E-02    0.458E-02
RMM:  16    -0.879607466446E+03    0.57649E-04   -0.23273E-05  5227   0.262E-02    0.134E-02
RMM:  17    -0.879607460690E+03    0.57564E-05    0.98267E-05  6022   0.829E-03    0.541E-03
RMM:  18    -0.879607446038E+03    0.14652E-04    0.15849E-04  3196   0.240E-03    0.217E-03
RMM:  19    -0.879607435010E+03    0.11028E-04    0.10003E-04  2793   0.193E-03    0.738E-04
RMM:  20    -0.879607416129E+03    0.18881E-04    0.16688E-04  2682   0.139E-03    0.214E-03
RMM:  21    -0.879607403179E+03    0.12950E-04    0.11133E-04  2616   0.148E-03    0.337E-04
RMM:  22    -0.879607397191E+03    0.59879E-05    0.56530E-05  2440   0.938E-04    0.455E-04
RMM:  23    -0.879607386446E+03    0.10745E-04    0.97321E-05  2352   0.100E-03    0.224E-04
RMM:  24    -0.879607381728E+03    0.47183E-05    0.42592E-05  2291   0.794E-04    0.267E-04
RMM:  25    -0.879607378105E+03    0.36229E-05    0.35472E-05  1869   0.708E-04    0.104E-04
RMM:  26    -0.879607374995E+03    0.31103E-05    0.29813E-05  1562   0.582E-04    0.106E-04
RMM:  27    -0.879607372197E+03    0.27981E-05    0.27301E-05  1519   0.563E-04    0.814E-05
RMM:  28    -0.879607367781E+03    0.44156E-05    0.39207E-05  1368   0.486E-04    0.510E-05
RMM:  29    -0.879607363294E+03    0.44871E-05    0.39212E-05  1301   0.472E-04    0.767E-05
RMM:  30    -0.879607360373E+03    0.29214E-05    0.26857E-05  1132   0.423E-04    0.360E-05
RMM:  31    -0.879607358152E+03    0.22208E-05    0.21626E-05  1102   0.411E-04    0.625E-05
RMM:  32    -0.879607356314E+03    0.18377E-05    0.17897E-05  1011   0.385E-04    0.276E-05
RMM:  33    -0.879607354698E+03    0.16162E-05    0.15795E-05   973   0.375E-04    0.547E-05
RMM:  34    -0.879607353211E+03    0.14871E-05    0.14542E-05   890   0.359E-04    0.211E-05
RMM:  35    -0.879607351841E+03    0.13701E-05    0.13440E-05   849   0.349E-04    0.549E-05
RMM:  36    -0.879607350568E+03    0.12726E-05    0.12478E-05   803   0.340E-04    0.245E-05
RMM:  37    -0.879607347204E+03    0.33642E-05    0.27862E-05   791   0.333E-04    0.538E-05
RMM:  38    -0.879607345921E+03    0.12829E-05    0.11213E-05   762   0.326E-04    0.322E-05
RMM:  39    -0.879607344863E+03    0.10584E-05    0.10434E-05   735   0.321E-04    0.526E-05
RMM:  40    -0.879607344031E+03    0.83187E-06    0.81977E-06   719   0.316E-04
   1 F= -.87960734E+03 E0= -.87961960E+03  d E =-.879607E+03
