 vasp.5.4.4.18Apr17-6-g9f103f2a35 (build Aug 17 2017 06:00:38) complex          
  
 executed on             LinuxIFC date 2019.07.13  00:34:48
 running on    8 total cores
 distrk:  each k-point on    8 cores,    1 groups
 distr:  one band on NCORES_PER_BAND=   4 cores,    2 groups


--------------------------------------------------------------------------------------------------------


 INCAR:
 POTCAR:   PAW_PBE Fe 06Sep2000                   
 POTCAR:   PAW_PBE Fe 06Sep2000                   
   VRHFIN =Fe:  d7 s1                                                           
   LEXCH  = PE                                                                  
   EATOM  =   594.4687 eV,   43.6922 Ry                                         
                                                                                
   TITEL  = PAW_PBE Fe 06Sep2000                                                
   LULTRA =        F    use ultrasoft PP ?                                      
   IUNSCR =        1    unscreen: 0-lin 1-nonlin 2-no                           
   RPACOR =    2.000    partial core radius                                     
   POMASS =   55.847; ZVAL   =    8.000    mass and valenz                      
   RCORE  =    2.300    outmost cutoff radius                                   
   RWIGS  =    2.460; RWIGS  =    1.302    wigner-seitz radius (au A)           
   ENMAX  =  267.883; ENMIN  =  200.912 eV                                      
   RCLOC  =    1.701    cutoff for local pot                                    
   LCOR   =        T    correct aug charges                                     
   LPAW   =        T    paw PP                                                  
   EAUG   =  511.368                                                            
   DEXC   =    -.022                                                            
   RMAX   =    2.817    core radius for proj-oper                               
   RAUG   =    1.300    factor for augmentation sphere                          
   RDEP   =    2.442    radius for radial grids                                 
   QCUT   =   -4.437; QGAM   =    8.874    optimization parameters              
                                                                                
   Description                                                                  
     l     E      TYP  RCUT    TYP  RCUT                                        
     2   .000     23  2.300                                                     
     2   .000     23  2.300                                                     
     0   .000     23  2.300                                                     
     0   .000     23  2.300                                                     
     1  -.200     23  2.300                                                     
     1   .000     23  2.300                                                     
     3   .000      7   .000                                                     
  local pseudopotential read in
  partial core-charges read in
  atomic valenz-charges read in
  non local Contribution for L=           2  read in
    real space projection operators read in
  non local Contribution for L=           2  read in
    real space projection operators read in
  non local Contribution for L=           0  read in
    real space projection operators read in
  non local Contribution for L=           0  read in
    real space projection operators read in
  non local Contribution for L=           1  read in
    real space projection operators read in
  non local Contribution for L=           1  read in
    real space projection operators read in
    PAW grid and wavefunctions read in
 
   number of l-projection  operators is LMAX  =           6
   number of lm-projection operators is LMMAX =          18
 
 Optimization of the real space projectors (new method)

 maximal supplied QI-value         = 16.25
 optimisation between [QCUT,QGAM] = [ 10.24, 20.48] = [ 29.35,117.42] Ry 
 Optimized for a Real-space Cutoff    1.51 Angstroem

   l    n(q)    QCUT    max X(q) W(low)/X(q) W(high)/X(q)  e(spline) 
   2      8    10.239     4.378    0.29E-04    0.57E-04    0.52E-07
   2      8    10.239    23.237    0.44E-03    0.68E-03    0.20E-06
   0      9    10.239    17.641    0.18E-04    0.41E-06    0.72E-08
   0      9    10.239    50.908    0.75E-04    0.38E-04    0.65E-07
   1      9    10.239     6.148    0.18E-04    0.27E-04    0.19E-07
   1      9    10.239     8.345    0.39E-04    0.13E-03    0.98E-07
 PAW_PBE Fe 06Sep2000                   :
 energy of atom  1       EATOM= -594.4687
 kinetic energy error for atom=    0.0088 (will be added to EATOM!!)
 
 
 POSCAR: fcc_Fe_CON_333                          
  positions in direct lattice
  velocities in cartesian coordinates
 exchange correlation table for  LEXCH =        8
   RHO(1)=    0.500       N(1)  =     2000
   RHO(2)=  100.500       N(2)  =     4000
 


--------------------------------------------------------------------------------------------------------


 ion  position               nearest neighbor table
   1  0.000  0.000  0.000-   2 2.44   3 2.44   4 2.44  11 2.44  12 2.44  26 2.44  28 2.44  74 2.44
                            75 2.44  36 2.44  83 2.44  98 2.44
   2  0.000  0.167  0.167-  49 2.44  37 2.44  13 2.44  40 2.44  15 2.44  48 2.44  23 2.44   3 2.44
                             4 2.44   1 2.44  12 2.44  11 2.44
   3  0.167  0.000  0.167-  41 2.44  37 2.44   5 2.44  40 2.44   6 2.44  30 2.44  64 2.44   2 2.44
                             4 2.44   1 2.44  28 2.44  26 2.44
   4  0.167  0.167  0.000-  17 2.44  13 2.44   5 2.44  15 2.44   6 2.44  78 2.44  87 2.44   2 2.44
                             3 2.44   1 2.44  74 2.44  75 2.44
   5  0.333  0.000  0.000-   3 2.44   4 2.44  28 2.44  75 2.44   6 2.44   7 2.44   8 2.44  30 2.44
                            78 2.44  32 2.44  79 2.44 102 2.44
   6  0.333  0.167  0.167-  15 2.44  40 2.44  53 2.44  17 2.44  19 2.44   4 2.44  41 2.44  44 2.44
                             3 2.44   7 2.44   8 2.44   5 2.44
   7  0.500  0.000  0.167-  41 2.44  44 2.44  45 2.44  68 2.44   6 2.44   5 2.44   8 2.44  10 2.44
                            30 2.44   9 2.44  32 2.44  34 2.44
   8  0.500  0.167  0.000-  17 2.44  19 2.44  21 2.44  91 2.44   6 2.44   5 2.44   7 2.44  78 2.44
                            10 2.44  79 2.44   9 2.44  82 2.44
   9  0.667  0.000  0.000-  11 2.44  12 2.44  36 2.44  83 2.44  10 2.44  82 2.44  34 2.44   8 2.44
                             7 2.44 106 2.44  79 2.44  32 2.44
  10  0.667  0.167  0.167-  23 2.44  48 2.44  57 2.44  12 2.44  11 2.44  21 2.44  45 2.44  44 2.44
                            19 2.44   9 2.44   7 2.44   8 2.44
  11  0.833  0.000  0.167-  45 2.44   9 2.44  10 2.44  34 2.44  48 2.44  37 2.44  72 2.44  12 2.44
                             2 2.44  36 2.44   1 2.44  26 2.44
  12  0.833  0.167  0.000-  21 2.44   9 2.44  10 2.44  82 2.44  23 2.44  13 2.44  95 2.44  11 2.44
                             1 2.44  83 2.44   2 2.44  74 2.44
  13  0.000  0.333  0.000-   2 2.44   4 2.44  12 2.44  74 2.44  15 2.44  16 2.44  14 2.44  23 2.44
                            87 2.44  86 2.44  24 2.44  95 2.44
  14  0.000  0.500  0.167-  49 2.44  52 2.44  60 2.44  61 2.44  15 2.44  13 2.44  16 2.44  23 2.44
                            27 2.44  25 2.44  24 2.44  35 2.44
  15  0.167  0.333  0.167-   6 2.44  40 2.44  53 2.44  17 2.44  18 2.44   4 2.44  49 2.44  52 2.44
                             2 2.44  13 2.44  14 2.44  16 2.44
  16  0.167  0.500  0.000-  17 2.44  18 2.44  29 2.44  90 2.44  15 2.44  14 2.44  13 2.44  87 2.44
                            27 2.44  25 2.44  86 2.44  99 2.44
  17  0.333  0.333  0.000-   4 2.44   8 2.44  16 2.44  15 2.44   6 2.44  78 2.44  87 2.44  20 2.44
                            18 2.44  19 2.44  90 2.44  91 2.44
  18  0.333  0.500  0.167-  52 2.44  16 2.44  56 2.44  53 2.44  15 2.44  27 2.44  65 2.44  20 2.44
                            17 2.44  19 2.44  29 2.44  31 2.44
  19  0.500  0.333  0.167-  44 2.44   8 2.44  56 2.44  53 2.44   6 2.44  10 2.44  57 2.44  18 2.44
                            20 2.44  17 2.44  21 2.44  22 2.44
  20  0.500  0.500  0.000-  17 2.44  18 2.44  19 2.44  21 2.44  22 2.44  29 2.44  31 2.44  90 2.44
                            91 2.44  33 2.44  94 2.44 103 2.44
  21  0.667  0.333  0.000-  12 2.44  24 2.44  23 2.44  95 2.44  10 2.44   8 2.44  82 2.44  22 2.44
                            20 2.44  94 2.44  19 2.44  91 2.44
  22  0.667  0.500  0.167-  60 2.44  24 2.44  23 2.44  35 2.44  57 2.44  56 2.44  69 2.44  21 2.44
                            33 2.44  20 2.44  19 2.44  31 2.44
  23  0.833  0.333  0.167-  10 2.44  57 2.44  48 2.44  21 2.44  22 2.44  12 2.44  60 2.44   2 2.44
                            49 2.44  24 2.44  14 2.44  13 2.44
  24  0.833  0.500  0.000-  21 2.44  22 2.44  33 2.44  94 2.44  23 2.44  35 2.44  95 2.44  14 2.44
                            13 2.44 107 2.44  86 2.44  25 2.44
  25  0.000  0.667  0.000-  26 2.44  28 2.44  36 2.44  98 2.44  27 2.44  35 2.44  99 2.44  16 2.44
                            14 2.44 107 2.44  86 2.44  24 2.44
  26  0.000  0.833  0.167-  61 2.44  25 2.44  27 2.44  35 2.44  64 2.44  37 2.44  72 2.44  28 2.44
                             3 2.44  36 2.44   1 2.44  11 2.44
  27  0.167  0.667  0.167-  30 2.44  64 2.44  65 2.44  28 2.44  26 2.44  29 2.44  61 2.44  52 2.44
                            18 2.44  25 2.44  14 2.44  16 2.44
  28  0.167  0.833  0.000-  29 2.44  25 2.44  27 2.44  99 2.44  30 2.44   5 2.44 102 2.44  26 2.44
                            98 2.44   1 2.44   3 2.44  75 2.44
  29  0.333  0.667  0.000-  28 2.44  32 2.44  30 2.44 102 2.44  27 2.44  16 2.44  99 2.44  31 2.44
                            20 2.44  18 2.44 103 2.44  90 2.44
  30  0.333  0.833  0.167-  27 2.44  65 2.44  64 2.44  29 2.44  31 2.44  28 2.44  68 2.44  41 2.44
                             3 2.44  32 2.44   7 2.44   5 2.44
  31  0.500  0.667  0.167-  68 2.44  32 2.44  30 2.44  34 2.44  65 2.44  56 2.44  69 2.44  29 2.44
                            33 2.44  20 2.44  18 2.44  22 2.44
  32  0.500  0.833  0.000-  29 2.44  31 2.44  33 2.44 103 2.44  30 2.44 102 2.44  34 2.44   7 2.44
                             5 2.44 106 2.44  79 2.44   9 2.44
  33  0.667  0.667  0.000-  36 2.44  35 2.44  34 2.44  32 2.44  24 2.44 106 2.44 107 2.44  22 2.44
                            31 2.44 103 2.44  20 2.44  94 2.44
  34  0.667  0.833  0.167-  35 2.44  69 2.44  72 2.44  33 2.44  36 2.44  31 2.44  11 2.44  45 2.44
                            68 2.44  32 2.44   9 2.44   7 2.44
  35  0.833  0.667  0.167-  34 2.44  69 2.44  72 2.44  33 2.44  36 2.44  26 2.44  22 2.44  60 2.44
                            61 2.44  24 2.44  25 2.44  14 2.44
  36  0.833  0.833  0.000-  33 2.44  34 2.44  35 2.44  25 2.44   9 2.44 106 2.44 107 2.44  26 2.44
                            11 2.44  98 2.44   1 2.44  83 2.44
  37  0.000  0.000  0.333-   2 2.44   3 2.44  11 2.44  26 2.44  40 2.44  39 2.44  38 2.44  48 2.44
                            64 2.44  62 2.44  47 2.44  72 2.44
  38  0.000  0.167  0.500-  49 2.44  51 2.44  59 2.44  85 2.44  40 2.44  39 2.44  37 2.44  76 2.44
                            48 2.44  47 2.44  73 2.44  84 2.44
  39  0.167  0.000  0.500-  41 2.44  42 2.44  66 2.44  77 2.44  40 2.44  38 2.44  37 2.44  76 2.44
                            64 2.44  62 2.44  73 2.44 100 2.44
  40  0.167  0.167  0.333-   6 2.44  15 2.44  53 2.44   3 2.44  41 2.44  42 2.44  49 2.44  51 2.44
                             2 2.44  39 2.44  37 2.44  38 2.44
  41  0.333  0.000  0.333-   3 2.44   7 2.44  39 2.44   6 2.44  40 2.44  30 2.44  64 2.44  43 2.44
                            44 2.44  42 2.44  66 2.44  68 2.44
  42  0.333  0.167  0.500-  51 2.44  39 2.44  55 2.44  53 2.44  40 2.44  76 2.44  89 2.44  44 2.44
                            41 2.44  43 2.44  80 2.44  77 2.44
  43  0.500  0.000  0.500-  41 2.44  42 2.44  44 2.44  45 2.44  46 2.44  66 2.44  68 2.44  77 2.44
                            80 2.44  70 2.44  81 2.44 104 2.44
  44  0.500  0.167  0.333-  19 2.44   7 2.44  55 2.44  53 2.44   6 2.44  10 2.44  57 2.44  41 2.44
                            42 2.44  43 2.44  46 2.44  45 2.44
  45  0.667  0.000  0.333-  11 2.44  47 2.44  48 2.44  72 2.44  10 2.44   7 2.44  34 2.44  46 2.44
                            43 2.44  70 2.44  44 2.44  68 2.44
  46  0.667  0.167  0.500-  59 2.44  47 2.44  48 2.44  84 2.44  57 2.44  55 2.44  93 2.44  45 2.44
                            81 2.44  43 2.44  44 2.44  80 2.44
  47  0.833  0.000  0.500-  45 2.44  46 2.44  70 2.44  81 2.44  48 2.44  72 2.44  84 2.44  38 2.44
                            37 2.44 108 2.44  73 2.44  62 2.44
  48  0.833  0.167  0.333-  10 2.44  57 2.44  23 2.44  46 2.44  45 2.44  11 2.44  59 2.44   2 2.44
                            49 2.44  47 2.44  37 2.44  38 2.44
  49  0.000  0.333  0.333-   2 2.44  14 2.44  38 2.44  15 2.44  40 2.44  23 2.44  48 2.44  50 2.44
                            51 2.44  52 2.44  59 2.44  60 2.44
  50  0.000  0.500  0.500-  49 2.44  51 2.44  52 2.44  59 2.44  60 2.44  61 2.44  63 2.44  85 2.44
                            88 2.44  71 2.44  96 2.44  97 2.44
  51  0.167  0.333  0.500-  42 2.44  38 2.44  54 2.44  53 2.44  40 2.44  76 2.44  89 2.44  50 2.44
                            52 2.44  49 2.44  88 2.44  85 2.44
  52  0.167  0.500  0.333-  18 2.44  14 2.44  54 2.44  53 2.44  15 2.44  27 2.44  65 2.44  49 2.44
                            50 2.44  51 2.44  63 2.44  61 2.44
  53  0.333  0.333  0.333-   6 2.44  15 2.44  40 2.44  19 2.44  18 2.44  42 2.44  44 2.44  51 2.44
                            52 2.44  54 2.44  55 2.44  56 2.44
  54  0.333  0.500  0.500-  51 2.44  52 2.44  63 2.44  88 2.44  53 2.44  55 2.44  56 2.44  65 2.44
                            89 2.44  67 2.44  92 2.44 101 2.44
  55  0.500  0.333  0.500-  42 2.44  44 2.44  46 2.44  80 2.44  53 2.44  56 2.44  54 2.44  57 2.44
                            89 2.44  58 2.44  92 2.44  93 2.44
  56  0.500  0.500  0.333-  18 2.44  19 2.44  22 2.44  31 2.44  53 2.44  54 2.44  55 2.44  57 2.44
                            65 2.44  58 2.44  67 2.44  69 2.44
  57  0.667  0.333  0.333-  23 2.44  48 2.44  10 2.44  59 2.44  60 2.44  46 2.44  22 2.44  19 2.44
                            44 2.44  58 2.44  56 2.44  55 2.44
  58  0.667  0.500  0.500-  59 2.44  60 2.44  71 2.44  96 2.44  57 2.44  93 2.44  69 2.44  56 2.44
                            55 2.44 105 2.44  92 2.44  67 2.44
  59  0.833  0.333  0.500-  46 2.44  58 2.44  57 2.44  93 2.44  48 2.44  38 2.44  84 2.44  60 2.44
                            50 2.44  49 2.44  96 2.44  85 2.44
  60  0.833  0.500  0.333-  22 2.44  58 2.44  57 2.44  69 2.44  23 2.44  14 2.44  35 2.44  59 2.44
                            49 2.44  50 2.44  71 2.44  61 2.44
  61  0.000  0.667  0.333-  26 2.44  62 2.44  64 2.44  72 2.44  27 2.44  14 2.44  35 2.44  63 2.44
                            50 2.44  71 2.44  52 2.44  60 2.44
  62  0.000  0.833  0.500-  61 2.44  63 2.44  71 2.44  97 2.44  64 2.44  72 2.44 100 2.44  39 2.44
                            37 2.44 108 2.44  73 2.44  47 2.44
  63  0.167  0.667  0.500-  66 2.44  62 2.44  64 2.44 100 2.44  65 2.44  54 2.44 101 2.44  61 2.44
                            97 2.44  50 2.44  52 2.44  88 2.44
  64  0.167  0.833  0.333-  27 2.44  65 2.44  30 2.44  63 2.44  61 2.44  26 2.44  66 2.44   3 2.44
                            41 2.44  62 2.44  37 2.44  39 2.44
  65  0.333  0.667  0.333-  30 2.44  64 2.44  27 2.44  66 2.44  68 2.44  63 2.44  31 2.44  18 2.44
                            52 2.44  67 2.44  56 2.44  54 2.44
  66  0.333  0.833  0.500-  63 2.44  67 2.44  65 2.44 101 2.44  64 2.44  39 2.44 100 2.44  68 2.44
                            43 2.44  41 2.44 104 2.44  77 2.44
  67  0.500  0.667  0.500-  66 2.44  68 2.44  70 2.44 104 2.44  65 2.44 101 2.44  69 2.44  56 2.44
                            54 2.44 105 2.44  92 2.44  58 2.44
  68  0.500  0.833  0.333-  31 2.44  67 2.44  65 2.44  69 2.44  30 2.44   7 2.44  34 2.44  66 2.44
                            41 2.44  43 2.44  70 2.44  45 2.44
  69  0.667  0.667  0.333-  72 2.44  35 2.44  34 2.44  71 2.44  70 2.44  68 2.44  60 2.44  31 2.44
                            22 2.44  58 2.44  67 2.44  56 2.44
  70  0.667  0.833  0.500-  71 2.44  69 2.44  72 2.44  67 2.44  47 2.44 105 2.44 108 2.44  68 2.44
                            45 2.44 104 2.44  43 2.44  81 2.44
  71  0.833  0.667  0.500-  70 2.44  69 2.44  72 2.44  62 2.44  58 2.44 105 2.44 108 2.44  60 2.44
                            61 2.44  97 2.44  50 2.44  96 2.44
  72  0.833  0.833  0.333-  69 2.44  35 2.44  34 2.44  70 2.44  71 2.44  61 2.44  45 2.44  26 2.44
                            11 2.44  62 2.44  47 2.44  37 2.44
  73  0.000  0.000  0.667-  74 2.44  75 2.44  83 2.44  98 2.44  76 2.44  84 2.44 100 2.44  39 2.44
                            38 2.44 108 2.44  47 2.44  62 2.44
  74  0.000  0.167  0.833-  85 2.44  73 2.44  76 2.44  84 2.44  87 2.44  13 2.44  95 2.44  75 2.44
                             4 2.44  83 2.44   1 2.44  12 2.44
  75  0.167  0.000  0.833-  77 2.44  73 2.44  76 2.44 100 2.44  78 2.44   5 2.44 102 2.44  74 2.44
                            98 2.44   1 2.44   4 2.44  28 2.44
  76  0.167  0.167  0.667-  78 2.44  87 2.44  89 2.44  75 2.44  74 2.44  77 2.44  85 2.44  51 2.44
                            42 2.44  73 2.44  38 2.44  39 2.44
  77  0.333  0.000  0.667-  75 2.44  79 2.44  78 2.44 102 2.44  76 2.44  39 2.44 100 2.44  80 2.44
                            43 2.44  42 2.44 104 2.44  66 2.44
  78  0.333  0.167  0.833-  76 2.44  89 2.44  87 2.44  77 2.44  80 2.44  75 2.44  91 2.44  17 2.44
                             4 2.44  79 2.44   8 2.44   5 2.44
  79  0.500  0.000  0.833-  77 2.44  80 2.44  81 2.44 104 2.44  78 2.44 102 2.44  82 2.44   8 2.44
                             5 2.44 106 2.44   9 2.44  32 2.44
  80  0.500  0.167  0.667-  91 2.44  79 2.44  78 2.44  82 2.44  89 2.44  55 2.44  93 2.44  77 2.44
                            43 2.44  81 2.44  42 2.44  46 2.44
  81  0.667  0.000  0.667-  83 2.44  82 2.44  84 2.44  79 2.44  47 2.44 106 2.44 108 2.44  80 2.44
                            46 2.44 104 2.44  70 2.44  43 2.44
  82  0.667  0.167  0.833-  84 2.44  93 2.44  95 2.44  83 2.44  81 2.44  80 2.44  12 2.44  21 2.44
                            91 2.44  79 2.44   9 2.44   8 2.44
  83  0.833  0.000  0.833-  81 2.44  82 2.44  84 2.44  73 2.44   9 2.44 106 2.44 108 2.44  74 2.44
                            12 2.44  98 2.44  36 2.44   1 2.44
  84  0.833  0.167  0.667-  82 2.44  93 2.44  95 2.44  81 2.44  83 2.44  74 2.44  46 2.44  59 2.44
                            85 2.44  73 2.44  47 2.44  38 2.44
  85  0.000  0.333  0.667-  74 2.44  86 2.44  87 2.44  95 2.44  76 2.44  38 2.44  84 2.44  88 2.44
                            51 2.44  50 2.44  96 2.44  59 2.44
  86  0.000  0.500  0.833-  85 2.44  88 2.44  96 2.44  97 2.44  87 2.44  95 2.44  99 2.44  16 2.44
                            13 2.44 107 2.44  24 2.44  25 2.44
  87  0.167  0.333  0.833-  76 2.44  89 2.44  78 2.44  88 2.44  85 2.44  74 2.44  90 2.44  17 2.44
                             4 2.44  86 2.44  16 2.44  13 2.44
  88  0.167  0.500  0.667-  90 2.44  86 2.44  87 2.44  99 2.44  89 2.44  54 2.44 101 2.44  85 2.44
                            97 2.44  50 2.44  51 2.44  63 2.44
  89  0.333  0.333  0.667-  78 2.44  87 2.44  76 2.44  90 2.44  91 2.44  80 2.44  88 2.44  51 2.44
                            42 2.44  92 2.44  54 2.44  55 2.44
  90  0.333  0.500  0.833-  88 2.44  92 2.44  89 2.44 101 2.44  87 2.44  16 2.44  99 2.44  91 2.44
                            20 2.44  17 2.44 103 2.44  29 2.44
  91  0.500  0.333  0.833-  80 2.44  92 2.44  89 2.44  93 2.44  78 2.44   8 2.44  82 2.44  90 2.44
                            20 2.44  17 2.44  94 2.44  21 2.44
  92  0.500  0.500  0.667-  90 2.44  91 2.44  94 2.44 103 2.44  89 2.44 101 2.44  93 2.44  55 2.44
                            54 2.44 105 2.44  58 2.44  67 2.44
  93  0.667  0.333  0.667-  95 2.44  84 2.44  82 2.44  94 2.44  96 2.44  91 2.44  59 2.44  46 2.44
                            80 2.44  92 2.44  58 2.44  55 2.44
  94  0.667  0.500  0.833-  96 2.44  95 2.44  93 2.44  92 2.44  24 2.44 105 2.44 107 2.44  21 2.44
                            91 2.44 103 2.44  33 2.44  20 2.44
  95  0.833  0.333  0.833-  93 2.44  84 2.44  82 2.44  94 2.44  96 2.44  85 2.44  21 2.44  12 2.44
                            74 2.44  86 2.44  24 2.44  13 2.44
  96  0.833  0.500  0.667-  94 2.44  93 2.44  95 2.44  86 2.44  58 2.44 105 2.44 107 2.44  59 2.44
                            85 2.44  97 2.44  71 2.44  50 2.44
  97  0.000  0.667  0.667-  98 2.44  99 2.44 100 2.44  86 2.44  62 2.44 107 2.44 108 2.44  88 2.44
                            63 2.44  96 2.44  50 2.44  71 2.44
  98  0.000  0.833  0.833-  97 2.44  99 2.44 100 2.44  73 2.44  25 2.44 107 2.44 108 2.44  75 2.44
                            28 2.44  83 2.44   1 2.44  36 2.44
  99  0.167  0.667  0.833- 100 2.44 101 2.44 102 2.44  98 2.44  97 2.44  88 2.44  28 2.44  90 2.44
                            29 2.44  86 2.44  25 2.44  16 2.44
 100  0.167  0.833  0.667-  99 2.44 101 2.44 102 2.44  98 2.44  97 2.44  75 2.44  63 2.44  77 2.44
                            66 2.44  73 2.44  62 2.44  39 2.44
 101  0.333  0.667  0.667- 102 2.44 100 2.44  99 2.44 103 2.44 104 2.44  90 2.44  66 2.44  63 2.44
                            88 2.44  92 2.44  67 2.44  54 2.44
 102  0.333  0.833  0.833- 101 2.44 100 2.44  99 2.44 103 2.44 104 2.44  77 2.44  29 2.44  28 2.44
                            75 2.44  79 2.44  32 2.44   5 2.44
 103  0.500  0.667  0.833- 104 2.44 102 2.44 101 2.44  92 2.44  32 2.44 105 2.44 106 2.44  29 2.44
                            90 2.44  94 2.44  20 2.44  33 2.44
 104  0.500  0.833  0.667- 103 2.44 102 2.44 101 2.44  79 2.44  67 2.44 105 2.44 106 2.44  66 2.44
                            77 2.44  81 2.44  43 2.44  70 2.44
 105  0.667  0.667  0.667- 106 2.44 107 2.44 108 2.44  96 2.44 103 2.44 104 2.44  70 2.44  71 2.44
                            94 2.44  67 2.44  92 2.44  58 2.44
 106  0.667  0.833  0.833- 105 2.44 107 2.44 108 2.44  83 2.44 103 2.44 104 2.44  33 2.44  36 2.44
                            81 2.44  32 2.44  79 2.44   9 2.44
 107  0.833  0.667  0.833- 105 2.44 106 2.44 108 2.44  96 2.44  97 2.44  98 2.44  33 2.44  36 2.44
                            94 2.44  25 2.44  86 2.44  24 2.44
 108  0.833  0.833  0.667- 105 2.44 106 2.44 107 2.44  83 2.44  97 2.44  98 2.44  70 2.44  71 2.44
                            81 2.44  62 2.44  73 2.44  47 2.44
 
  LATTYP: Found a simple cubic cell.
 ALAT       =    10.3348470474
  
  Lattice vectors:
  
 A1 = (  10.3348470474,   0.0000000000,   0.0000000000)
 A2 = (   0.0000000000,  10.3348470474,   0.0000000000)
 A3 = (   0.0000000000,   0.0000000000,  10.3348470474)


Analysis of symmetry for initial positions (statically):
=====================================================================
 Subroutine PRICEL returns following result:
 
  LATTYP: Found a simple cubic cell.
 ALAT       =     3.4449252899
  
  Lattice vectors:
  
 A1 = (   3.4449252899,   0.0000000000,   0.0000000000)
 A2 = (   0.0000000000,   3.4449252899,   0.0000000000)
 A3 = (   0.0000000000,   0.0000000000,   3.4449252443)
 
  27 primitive cells build up your supercell.
 

 Routine SETGRP: Setting up the symmetry group for a 
 simple cubic supercell.


 Subroutine GETGRP returns: Found 48 space group operations
 (whereof 48 operations were pure point group operations)
 out of a pool of 48 trial point group operations.


The static configuration has the point symmetry O_h .


Analysis of symmetry for dynamics (positions and initial velocities):
=====================================================================
 Subroutine PRICEL returns following result:
 
  LATTYP: Found a simple cubic cell.
 ALAT       =     3.4449252899
  
  Lattice vectors:
  
 A1 = (   3.4449252899,   0.0000000000,   0.0000000000)
 A2 = (   0.0000000000,   3.4449252899,   0.0000000000)
 A3 = (   0.0000000000,   0.0000000000,   3.4449252443)
 
  27 primitive cells build up your supercell.
 

 Routine SETGRP: Setting up the symmetry group for a 
 simple cubic supercell.


 Subroutine GETGRP returns: Found 48 space group operations
 (whereof 48 operations were pure point group operations)
 out of a pool of 48 trial point group operations.


The dynamic configuration has the point symmetry O_h .


 Subroutine INISYM returns: Found 48 space group operations
 (whereof 48 operations are pure point group operations),
 and found    27 'primitive' translations

 
 
 KPOINTS: pymatgen generated KPOINTS with grid den

Automatic generation of k-mesh.
Space group operators:
 irot       det(A)        alpha          n_x          n_y          n_z        tau_x        tau_y        tau_z
    1     1.000000     0.000000     1.000000     0.000000     0.000000     0.000000     0.000000     0.000000
    2    -1.000000     0.000000     1.000000     0.000000     0.000000     0.000000     0.000000     0.000000
    3     1.000000   120.000000    -0.577350    -0.577350    -0.577350     0.000000     0.000000     0.000000
    4    -1.000000   120.000000    -0.577350    -0.577350    -0.577350     0.000000     0.000000     0.000000
    5     1.000000   120.000000     0.577350     0.577350     0.577350     0.000000     0.000000     0.000000
    6    -1.000000   120.000000     0.577350     0.577350     0.577350     0.000000     0.000000     0.000000
    7     1.000000    90.000000     0.000000     0.000000    -1.000000     0.000000     0.000000     0.000000
    8    -1.000000    90.000000     0.000000     0.000000    -1.000000     0.000000     0.000000     0.000000
    9     1.000000   180.000000     0.000000     0.707107     0.707107     0.000000     0.000000     0.000000
   10    -1.000000   180.000000     0.000000     0.707107     0.707107     0.000000     0.000000     0.000000
   11     1.000000    90.000000     0.000000     1.000000     0.000000     0.000000     0.000000     0.000000
   12    -1.000000    90.000000     0.000000     1.000000     0.000000     0.000000     0.000000     0.000000
   13     1.000000   180.000000     0.000000     0.000000     1.000000     0.000000     0.000000     0.000000
   14    -1.000000   180.000000     0.000000     0.000000     1.000000     0.000000     0.000000     0.000000
   15     1.000000   120.000000    -0.577350     0.577350     0.577350     0.000000     0.000000     0.000000
   16    -1.000000   120.000000    -0.577350     0.577350     0.577350     0.000000     0.000000     0.000000
   17     1.000000   120.000000    -0.577350     0.577350    -0.577350     0.000000     0.000000     0.000000
   18    -1.000000   120.000000    -0.577350     0.577350    -0.577350     0.000000     0.000000     0.000000
   19     1.000000    90.000000     0.000000     0.000000     1.000000     0.000000     0.000000     0.000000
   20    -1.000000    90.000000     0.000000     0.000000     1.000000     0.000000     0.000000     0.000000
   21     1.000000    90.000000    -1.000000     0.000000     0.000000     0.000000     0.000000     0.000000
   22    -1.000000    90.000000    -1.000000     0.000000     0.000000     0.000000     0.000000     0.000000
   23     1.000000   180.000000     0.707107     0.000000     0.707107     0.000000     0.000000     0.000000
   24    -1.000000   180.000000     0.707107     0.000000     0.707107     0.000000     0.000000     0.000000
   25     1.000000   120.000000     0.577350    -0.577350     0.577350     0.000000     0.000000     0.000000
   26    -1.000000   120.000000     0.577350    -0.577350     0.577350     0.000000     0.000000     0.000000
   27     1.000000   120.000000    -0.577350    -0.577350     0.577350     0.000000     0.000000     0.000000
   28    -1.000000   120.000000    -0.577350    -0.577350     0.577350     0.000000     0.000000     0.000000
   29     1.000000   180.000000     1.000000     0.000000     0.000000     0.000000     0.000000     0.000000
   30    -1.000000   180.000000     1.000000     0.000000     0.000000     0.000000     0.000000     0.000000
   31     1.000000    90.000000     0.000000    -1.000000     0.000000     0.000000     0.000000     0.000000
   32    -1.000000    90.000000     0.000000    -1.000000     0.000000     0.000000     0.000000     0.000000
   33     1.000000   180.000000     0.707107     0.707107     0.000000     0.000000     0.000000     0.000000
   34    -1.000000   180.000000     0.707107     0.707107     0.000000     0.000000     0.000000     0.000000
   35     1.000000    90.000000     1.000000     0.000000     0.000000     0.000000     0.000000     0.000000
   36    -1.000000    90.000000     1.000000     0.000000     0.000000     0.000000     0.000000     0.000000
   37     1.000000   120.000000     0.577350    -0.577350    -0.577350     0.000000     0.000000     0.000000
   38    -1.000000   120.000000     0.577350    -0.577350    -0.577350     0.000000     0.000000     0.000000
   39     1.000000   180.000000     0.000000     1.000000     0.000000     0.000000     0.000000     0.000000
   40    -1.000000   180.000000     0.000000     1.000000     0.000000     0.000000     0.000000     0.000000
   41     1.000000   120.000000     0.577350     0.577350    -0.577350     0.000000     0.000000     0.000000
   42    -1.000000   120.000000     0.577350     0.577350    -0.577350     0.000000     0.000000     0.000000
   43     1.000000   180.000000     0.000000    -0.707107     0.707107     0.000000     0.000000     0.000000
   44    -1.000000   180.000000     0.000000    -0.707107     0.707107     0.000000     0.000000     0.000000
   45     1.000000   180.000000     0.707107    -0.707107     0.000000     0.000000     0.000000     0.000000
   46    -1.000000   180.000000     0.707107    -0.707107     0.000000     0.000000     0.000000     0.000000
   47     1.000000   180.000000     0.707107     0.000000    -0.707107     0.000000     0.000000     0.000000
   48    -1.000000   180.000000     0.707107     0.000000    -0.707107     0.000000     0.000000     0.000000
 
 Subroutine IBZKPT returns following result:
 ===========================================
 
 Found      4 irreducible k-points:
 
 Following reciprocal coordinates:
            Coordinates               Weight
  0.000000  0.000000  0.000000      1.000000
  0.333333  0.000000  0.000000      6.000000
  0.333333  0.333333  0.000000     12.000000
  0.333333  0.333333  0.333333      8.000000
 
 Following cartesian coordinates:
            Coordinates               Weight
  0.000000  0.000000  0.000000      1.000000
  0.032253  0.000000  0.000000      6.000000
  0.032253  0.032253  0.000000     12.000000
  0.032253  0.032253  0.032253      8.000000
 


--------------------------------------------------------------------------------------------------------




 Dimension of arrays:
   k-points           NKPTS =      4   k-points in BZ     NKDIM =      4   number of bands    NBANDS=    518
   number of dos      NEDOS =    301   number of ions     NIONS =    108
   non local maximal  LDIM  =      6   non local SUM 2l+1 LMDIM =     18
   total plane-waves  NPLWV = 373248
   max r-space proj   IRMAX =   4912   max aug-charges    IRDMAX=  12243
   dimension x,y,z NGX =    72 NGY =   72 NGZ =   72
   dimension x,y,z NGXF=   144 NGYF=  144 NGZF=  144
   support grid    NGXF=   144 NGYF=  144 NGZF=  144
   ions per type =             108
   NGX,Y,Z   is equivalent  to a cutoff of  11.58, 11.58, 11.58 a.u.
   NGXF,Y,Z  is equivalent  to a cutoff of  23.16, 23.16, 23.16 a.u.

 Based on PREC, I would recommend the following setting:
   dimension x,y,z NGX =    54 NGY =   54 NGZ =   54

 SYSTEM =  Opt                                     
 POSCAR =  fcc_Fe_CON_333                          

 Startparameter for this run:
   NWRITE =      2    write-flag & timer
   PREC   = normal    normal or accurate (medium, high low for compatibility)
   ISTART =      0    job   : 0-new  1-cont  2-samecut
   ICHARG =      2    charge: 1-file 2-atom 10-const
   ISPIN  =      1    spin polarized calculation?
   LNONCOLLINEAR =      F non collinear calculations
   LSORBIT =      F    spin-orbit coupling
   INIWAV =      1    electr: 0-lowe 1-rand  2-diag
   LASPH  =      F    aspherical Exc in radial PAW
   METAGGA=      F    non-selfconsistent MetaGGA calc.

 Electronic Relaxation 1
   ENCUT  =  400.0 eV  29.40 Ry    5.42 a.u.  16.85 16.85 16.85*2*pi/ulx,y,z
   ENINI  =  400.0     initial cutoff
   ENAUG  =  511.4 eV  augmentation charge cutoff
   NELM   =    400;   NELMIN=  2; NELMDL= -5     # of ELM steps 
   EDIFF  = 0.1E-05   stopping-criterion for ELM
   LREAL  =      T    real-space projection
   NLSPLINE    = F    spline interpolate recip. space projectors
   LCOMPAT=      F    compatible to vasp.4.4
   GGA_COMPAT  = T    GGA compatible to vasp.4.4-vasp.4.6
   LMAXPAW     = -100 max onsite density
   LMAXMIX     =    2 max onsite mixed and CHGCAR
   VOSKOWN=      0    Vosko Wilk Nusair interpolation
   ROPT   =   -0.00050
 Ionic relaxation
   EDIFFG = -.1E-01   stopping-criterion for IOM
   NSW    =    100    number of steps for IOM
   NBLOCK =      1;   KBLOCK =    100    inner block; outer block 
   IBRION =      2    ionic relax: 0-MD 1-quasi-New 2-CG
   NFREE  =      1    steps in history (QN), initial steepest desc. (CG)
   ISIF   =      3    stress and relaxation
   IWAVPR =     11    prediction:  0-non 1-charg 2-wave 3-comb
   ISYM   =      2    0-nonsym 1-usesym 2-fastsym
   LCORR  =      T    Harris-Foulkes like correction to forces

   POTIM  = 0.5000    time-step for ionic-motion
   TEIN   =    0.0    initial temperature
   TEBEG  =    0.0;   TEEND  =   0.0 temperature during run
   SMASS  =  -3.00    Nose mass-parameter (am)
   estimated Nose-frequenzy (Omega)   =  0.10E-29 period in steps =****** mass=  -0.244E-26a.u.
   SCALEE = 1.0000    scale energy and forces
   NPACO  =    256;   APACO  = 16.0  distance and # of slots for P.C.
   PSTRESS=    0.0 pullay stress

  Mass of Ions in am
   POMASS =  55.85
  Ionic Valenz
   ZVAL   =   8.00
  Atomic Wigner-Seitz radii
   RWIGS  =  -1.00
  virtual crystal weights 
   VCA    =   1.00
   NELECT =     864.0000    total number of electrons
   NUPDOWN=      -1.0000    fix difference up-down

 DOS related values:
   EMIN   =  10.00;   EMAX   =-10.00  energy-range for DOS
   EFERMI =   0.00
   ISMEAR =     1;   SIGMA  =   0.20  broadening in eV -4-tet -1-fermi 0-gaus

 Electronic relaxation 2 (details)
   IALGO  =     68    algorithm
   LDIAG  =      T    sub-space diagonalisation (order eigenvalues)
   LSUBROT=      F    optimize rotation matrix (better conditioning)
   TURBO    =      0    0=normal 1=particle mesh
   IRESTART =      0    0=no restart 2=restart with 2 vectors
   NREBOOT  =      0    no. of reboots
   NMIN     =      0    reboot dimension
   EREF     =   0.00    reference energy to select bands
   IMIX   =      4    mixing-type and parameters
     AMIX     =   0.40;   BMIX     =  1.00
     AMIX_MAG =   1.60;   BMIX_MAG =  1.00
     AMIN     =   0.10
     WC   =   100.;   INIMIX=   1;  MIXPRE=   1;  MAXMIX= -45

 Intra band minimization:
   WEIMIN = 0.0010     energy-eigenvalue tresh-hold
   EBREAK =  0.48E-09  absolut break condition
   DEPER  =   0.30     relativ break condition  

   TIME   =   0.40     timestep for ELM

  volume/ion in A,a.u.               =      10.22        68.97
  Fermi-wavevector in a.u.,A,eV,Ry     =   1.508720  2.851068 30.970078  2.276236
  Thomas-Fermi vector in A             =   2.619137
 
 Write flags
   LWAVE        =      F    write WAVECAR
   LDOWNSAMPLE  =      F    k-point downsampling of WAVECAR
   LCHARG       =      F    write CHGCAR
   LVTOT        =      F    write LOCPOT, total local potential
   LVHAR        =      F    write LOCPOT, Hartree potential only
   LELF         =      F    write electronic localiz. function (ELF)
   LORBIT       =      0    0 simple, 1 ext, 2 COOP (PROOUT), +10 PAW based schemes


 Dipole corrections
   LMONO  =      F    monopole corrections only (constant potential shift)
   LDIPOL =      F    correct potential (dipole corrections)
   IDIPOL =      0    1-x, 2-y, 3-z, 4-all directions 
   EPSILON=  1.0000000 bulk dielectric constant

 Exchange correlation treatment:
   GGA     =    --    GGA type
   LEXCH   =     8    internal setting for exchange type
   VOSKOWN=      0    Vosko Wilk Nusair interpolation
   LHFCALC =     F    Hartree Fock is set to
   LHFONE  =     F    Hartree Fock one center treatment
   AEXX    =    0.0000 exact exchange contribution

 Linear response parameters
   LEPSILON=     F    determine dielectric tensor
   LRPA    =     F    only Hartree local field effects (RPA)
   LNABLA  =     F    use nabla operator in PAW spheres
   LVEL    =     F    velocity operator in full k-point grid
   LINTERFAST=   F  fast interpolation
   KINTER  =     0    interpolate to denser k-point grid
   CSHIFT  =0.1000    complex shift for real part using Kramers Kronig
   OMEGAMAX=  -1.0    maximum frequency
   DEG_THRESHOLD= 0.2000000E-02 threshold for treating states as degnerate
   RTIME   =   -0.100 relaxation time in fs
  (WPLASMAI=    0.000 imaginary part of plasma frequency in eV, 0.658/RTIME)
   DFIELD  = 0.0000000 0.0000000 0.0000000 field for delta impulse in time
 
 Orbital magnetization related:
   ORBITALMAG=     F  switch on orbital magnetization
   LCHIMAG   =     F  perturbation theory with respect to B field
   DQ        =  0.001000  dq finite difference perturbation B field
   LLRAUG    =     F  two centre corrections for induced B field



--------------------------------------------------------------------------------------------------------


 conjugate gradient relaxation of ions
 charge density and potential will be updated during run
 non-spin polarized calculation
 RMM-DIIS sequential band-by-band and
  variant of blocked Davidson during initial phase
 perform sub-space diagonalisation
    before iterative eigenvector-optimisation
 modified Broyden-mixing scheme, WC =      100.0
 initial mixing is a Kerker type mixing with AMIX =  0.4000 and BMIX =      1.0000
 Hartree-type preconditioning will be used
 using additional bands           86
 real space projection scheme for non local part
 use partial core corrections
 calculate Harris-corrections to forces 
   (improved forces if not selfconsistent)
 use gradient corrections 
 use of overlap-Matrix (Vanderbilt PP)
 Methfessel and Paxton  Order N= 1 SIGMA  =   0.20


--------------------------------------------------------------------------------------------------------


  energy-cutoff  :      400.00
  volume of cell :     1103.86
      direct lattice vectors                 reciprocal lattice vectors
    10.334847047  0.000000000  0.000000000     0.096760019  0.000000000  0.000000000
     0.000000000 10.334847047  0.000000000     0.000000000  0.096760019  0.000000000
     0.000000000  0.000000000 10.334847047     0.000000000  0.000000000  0.096760019

  length of vectors
    10.334847047 10.334847047 10.334847047     0.096760019  0.096760019  0.096760019


 
 k-points in units of 2pi/SCALE and weight: pymatgen generated KPOINTS with grid den
   0.00000000  0.00000000  0.00000000       0.037
   0.03225334  0.00000000  0.00000000       0.222
   0.03225334  0.03225334  0.00000000       0.444
   0.03225334  0.03225334  0.03225334       0.296
 
 k-points in reciprocal lattice and weights: pymatgen generated KPOINTS with grid den
   0.00000000  0.00000000  0.00000000       0.037
   0.33333333  0.00000000  0.00000000       0.222
   0.33333333  0.33333333  0.00000000       0.444
   0.33333333  0.33333333  0.33333333       0.296
 
 position of ions in fractional coordinates (direct lattice) 
   0.00000000  0.00000000  0.00000000
   0.00000000  0.16666893  0.16666893
   0.16666893  0.00000000  0.16666893
   0.16666893  0.16666893  0.00000000
   0.33333106  0.00000000  0.00000000
   0.33333107  0.16666893  0.16666893
   0.50000000  0.00000000  0.16666894
   0.50000000  0.16666894  0.00000000
   0.66666897  0.00000000  0.00000000
   0.66666896  0.16666893  0.16666893
   0.83333104  0.00000000  0.16666893
   0.83333104  0.16666893  0.00000000
   0.00000000  0.33333106  0.00000000
   0.00000000  0.50000000  0.16666894
   0.16666893  0.33333107  0.16666893
   0.16666894  0.50000000  0.00000000
   0.33333107  0.33333107  0.00000000
   0.33333107  0.50000000  0.16666893
   0.50000000  0.33333107  0.16666893
   0.50000000  0.50000000  0.00000000
   0.66666896  0.33333107  0.00000000
   0.66666896  0.50000000  0.16666893
   0.83333104  0.33333107  0.16666893
   0.83333103  0.50000000  0.00000000
   0.00000000  0.66666897  0.00000000
   0.00000000  0.83333104  0.16666893
   0.16666893  0.66666896  0.16666893
   0.16666893  0.83333104  0.00000000
   0.33333107  0.66666896  0.00000000
   0.33333107  0.83333104  0.16666893
   0.50000000  0.66666896  0.16666893
   0.50000000  0.83333103  0.00000000
   0.66666896  0.66666896  0.00000000
   0.66666896  0.83333104  0.16666893
   0.83333104  0.66666896  0.16666893
   0.83333104  0.83333104  0.00000000
   0.00000000  0.00000000  0.33333106
   0.00000000  0.16666894  0.50000000
   0.16666894  0.00000000  0.50000000
   0.16666893  0.16666893  0.33333107
   0.33333107  0.00000000  0.33333107
   0.33333107  0.16666893  0.50000000
   0.50000000  0.00000000  0.50000000
   0.50000000  0.16666893  0.33333107
   0.66666896  0.00000000  0.33333107
   0.66666896  0.16666893  0.50000000
   0.83333103  0.00000000  0.50000000
   0.83333104  0.16666893  0.33333107
   0.00000000  0.33333107  0.33333107
   0.00000000  0.50000000  0.50000000
   0.16666893  0.33333107  0.50000000
   0.16666893  0.50000000  0.33333107
   0.33333107  0.33333107  0.33333107
   0.33333106  0.50000000  0.50000000
   0.50000000  0.33333106  0.50000000
   0.50000000  0.50000000  0.33333106
   0.66666896  0.33333107  0.33333107
   0.66666897  0.50000000  0.50000000
   0.83333104  0.33333107  0.50000000
   0.83333104  0.50000000  0.33333107
   0.00000000  0.66666896  0.33333107
   0.00000000  0.83333103  0.50000000
   0.16666893  0.66666896  0.50000000
   0.16666893  0.83333104  0.33333107
   0.33333107  0.66666896  0.33333107
   0.33333107  0.83333104  0.50000000
   0.50000000  0.66666897  0.50000000
   0.50000000  0.83333104  0.33333107
   0.66666896  0.66666896  0.33333107
   0.66666896  0.83333104  0.50000000
   0.83333104  0.66666896  0.50000000
   0.83333104  0.83333104  0.33333107
   0.00000000  0.00000000  0.66666897
   0.00000000  0.16666893  0.83333104
   0.16666893  0.00000000  0.83333104
   0.16666893  0.16666893  0.66666896
   0.33333107  0.00000000  0.66666896
   0.33333107  0.16666893  0.83333104
   0.50000000  0.00000000  0.83333103
   0.50000000  0.16666893  0.66666896
   0.66666896  0.00000000  0.66666896
   0.66666896  0.16666893  0.83333104
   0.83333104  0.00000000  0.83333104
   0.83333104  0.16666893  0.66666896
   0.00000000  0.33333107  0.66666896
   0.00000000  0.50000000  0.83333103
   0.16666893  0.33333107  0.83333104
   0.16666893  0.50000000  0.66666896
   0.33333107  0.33333107  0.66666896
   0.33333107  0.50000000  0.83333104
   0.50000000  0.33333107  0.83333104
   0.50000000  0.50000000  0.66666897
   0.66666896  0.33333107  0.66666896
   0.66666896  0.50000000  0.83333104
   0.83333104  0.33333107  0.83333104
   0.83333104  0.50000000  0.66666896
   0.00000000  0.66666896  0.66666896
   0.00000000  0.83333104  0.83333104
   0.16666893  0.66666896  0.83333104
   0.16666893  0.83333104  0.66666896
   0.33333107  0.66666896  0.66666896
   0.33333107  0.83333104  0.83333104
   0.50000000  0.66666896  0.83333104
   0.50000000  0.83333104  0.66666896
   0.66666896  0.66666896  0.66666896
   0.66666896  0.83333104  0.83333104
   0.83333104  0.66666896  0.83333104
   0.83333104  0.83333104  0.66666896
 
 position of ions in cartesian coordinates  (Angst):
   0.00000000  0.00000000  0.00000000
   0.00000000  1.72249793  1.72249793
   1.72249793  0.00000000  1.72249793
   1.72249793  1.72249793  0.00000000
   3.44492554  0.00000000  0.00000000
   3.44492559  1.72249794  1.72249794
   5.16742352  0.00000000  1.72249798
   5.16742352  1.72249798  0.00000000
   6.88992180  0.00000000  0.00000000
   6.88992176  1.72249794  1.72249794
   8.61234881  0.00000000  1.72249793
   8.61234881  1.72249793  0.00000000
   0.00000000  3.44492554  0.00000000
   0.00000000  5.16742352  1.72249798
   1.72249794  3.44492559  1.72249794
   1.72249798  5.16742352  0.00000000
   3.44492559  3.44492559  0.00000000
   3.44492559  5.16742352  1.72249793
   5.16742352  3.44492559  1.72249793
   5.16742352  5.16742352  0.00000000
   6.88992176  3.44492559  0.00000000
   6.88992176  5.16742352  1.72249793
   8.61234881  3.44492559  1.72249794
   8.61234877  5.16742352  0.00000000
   0.00000000  6.88992180  0.00000000
   0.00000000  8.61234881  1.72249793
   1.72249794  6.88992176  1.72249794
   1.72249793  8.61234881  0.00000000
   3.44492559  6.88992176  0.00000000
   3.44492559  8.61234881  1.72249794
   5.16742352  6.88992176  1.72249793
   5.16742352  8.61234877  0.00000000
   6.88992176  6.88992176  0.00000000
   6.88992176  8.61234881  1.72249794
   8.61234881  6.88992176  1.72249794
   8.61234881  8.61234881  0.00000000
   0.00000000  0.00000000  3.44492554
   0.00000000  1.72249798  5.16742352
   1.72249798  0.00000000  5.16742352
   1.72249794  1.72249794  3.44492559
   3.44492559  0.00000000  3.44492559
   3.44492559  1.72249793  5.16742352
   5.16742352  0.00000000  5.16742352
   5.16742352  1.72249793  3.44492559
   6.88992176  0.00000000  3.44492559
   6.88992176  1.72249793  5.16742352
   8.61234877  0.00000000  5.16742352
   8.61234881  1.72249794  3.44492559
   0.00000000  3.44492559  3.44492559
   0.00000000  5.16742352  5.16742352
   1.72249793  3.44492559  5.16742352
   1.72249793  5.16742352  3.44492559
   3.44492559  3.44492559  3.44492559
   3.44492554  5.16742352  5.16742352
   5.16742352  3.44492554  5.16742352
   5.16742352  5.16742352  3.44492554
   6.88992176  3.44492559  3.44492559
   6.88992180  5.16742352  5.16742352
   8.61234881  3.44492559  5.16742352
   8.61234881  5.16742352  3.44492559
   0.00000000  6.88992176  3.44492559
   0.00000000  8.61234877  5.16742352
   1.72249793  6.88992176  5.16742352
   1.72249794  8.61234881  3.44492559
   3.44492559  6.88992176  3.44492559
   3.44492559  8.61234881  5.16742352
   5.16742352  6.88992180  5.16742352
   5.16742352  8.61234881  3.44492559
   6.88992176  6.88992176  3.44492559
   6.88992176  8.61234881  5.16742352
   8.61234881  6.88992176  5.16742352
   8.61234881  8.61234881  3.44492559
   0.00000000  0.00000000  6.88992180
   0.00000000  1.72249793  8.61234881
   1.72249793  0.00000000  8.61234881
   1.72249794  1.72249794  6.88992176
   3.44492559  0.00000000  6.88992176
   3.44492559  1.72249794  8.61234881
   5.16742352  0.00000000  8.61234877
   5.16742352  1.72249793  6.88992176
   6.88992176  0.00000000  6.88992176
   6.88992176  1.72249794  8.61234881
   8.61234881  0.00000000  8.61234881
   8.61234881  1.72249794  6.88992176
   0.00000000  3.44492559  6.88992176
   0.00000000  5.16742352  8.61234877
   1.72249794  3.44492559  8.61234881
   1.72249793  5.16742352  6.88992176
   3.44492559  3.44492559  6.88992176
   3.44492559  5.16742352  8.61234881
   5.16742352  3.44492559  8.61234881
   5.16742352  5.16742352  6.88992180
   6.88992176  3.44492559  6.88992176
   6.88992176  5.16742352  8.61234881
   8.61234881  3.44492559  8.61234881
   8.61234881  5.16742352  6.88992176
   0.00000000  6.88992176  6.88992176
   0.00000000  8.61234881  8.61234881
   1.72249794  6.88992176  8.61234881
   1.72249794  8.61234881  6.88992176
   3.44492559  6.88992176  6.88992176
   3.44492559  8.61234881  8.61234881
   5.16742352  6.88992176  8.61234881
   5.16742352  8.61234881  6.88992176
   6.88992176  6.88992176  6.88992176
   6.88992176  8.61234881  8.61234881
   8.61234881  6.88992176  8.61234881
   8.61234881  8.61234881  6.88992176
 


--------------------------------------------------------------------------------------------------------


 k-point  1 :   0.0000 0.0000 0.0000  plane waves:   20005
 k-point  2 :   0.3333 0.0000 0.0000  plane waves:   20054
 k-point  3 :   0.3333 0.3333 0.0000  plane waves:   20052
 k-point  4 :   0.3333 0.3333 0.3333  plane waves:   20054

 maximum and minimum number of plane-waves per node :      5038     4976

 maximum number of plane-waves:     20054
 maximum index in each direction: 
   IXMAX=   16   IYMAX=   16   IZMAX=   16
   IXMIN=  -17   IYMIN=  -17   IZMIN=  -17


 real space projection operators:
  total allocation   :      71821.69 KBytes
  max/ min on nodes  :      18240.19      17708.62


 parallel 3D FFT for wavefunctions:
    minimum data exchange during FFTs selected (reduces bandwidth)
 parallel 3D FFT for charge:
    minimum data exchange during FFTs selected (reduces bandwidth)


 total amount of memory used by VASP MPI-rank0   190286. kBytes
=======================================================================

   base      :      30000. kBytes
   nonlr-proj:      31400. kBytes
   fftplans  :      15431. kBytes
   grid      :      21835. kBytes
   one-center:        419. kBytes
   wavefun   :      91201. kBytes
 
     INWAV:  cpu time    0.0000: real time    0.0003
 Broyden mixing: mesh for mixing (old mesh)
   NGX = 33   NGY = 33   NGZ = 33
  (NGX  =144   NGY  =144   NGZ  =144)
  gives a total of  35937 points

 initial charge density was supplied:
 charge density of overlapping atoms calculated
 number of electron     864.0000000 magnetization 
 keeping initial charge density in first step


--------------------------------------------------------------------------------------------------------


 Maximum index for non-local projection operator         1201
 Maximum index for augmentation-charges         1463 (set IRDMAX)


--------------------------------------------------------------------------------------------------------


 First call to EWALD:  gamma=   0.172
 Maximum number of real-space cells 3x 3x 3
 Maximum number of reciprocal cells 3x 3x 3

    FEWALD:  cpu time    0.0103: real time    0.0103


--------------------------------------- Iteration      1(   1)  ---------------------------------------


    POTLOK:  cpu time    0.2979: real time    0.2986
    SETDIJ:  cpu time    0.0530: real time    0.0530
     EDDAV:  cpu time   40.9256: real time   40.9875
       DOS:  cpu time    0.0040: real time    0.0040
    --------------------------------------------
      LOOP:  cpu time   41.2806: real time   41.3430

 eigenvalue-minimisations  :  4152
 total energy-change (2. order) : 0.7599334E+04  (-0.2888449E+05)
 number of electron     864.0000000 magnetization 
 augmentation part      864.0000000 magnetization 

 Free energy of the ion-electron system (eV)
  ---------------------------------------------------
  alpha Z        PSCENC =      7300.31925852
  Ewald energy   TEWEN  =    -66232.83996889
  -Hartree energ DENC   =    -11197.02572337
  -exchange      EXHF   =         0.00000000
  -V(xc)+E(xc)   XCENC  =       446.63038354
  PAW double counting   =     51723.88885462   -52548.28121372
  entropy T*S    EENTRO =        -0.00666309
  eigenvalues    EBANDS =     13904.97866386
  atomic energy  EATOM  =     64201.67088057
  Solvation  Ediel_sol  =         0.00000000
  ---------------------------------------------------
  free energy    TOTEN  =      7599.33447205 eV

  energy without entropy =     7599.34113514  energy(sigma->0) =     7599.33669308


--------------------------------------------------------------------------------------------------------




--------------------------------------- Iteration      1(   2)  ---------------------------------------


     EDDAV:  cpu time   41.2867: real time   41.3116
       DOS:  cpu time    0.0061: real time    0.0061
    --------------------------------------------
      LOOP:  cpu time   41.2928: real time   41.3177

 eigenvalue-minimisations  :  4144
 total energy-change (2. order) :-0.7622567E+04  (-0.7453576E+04)
 number of electron     864.0000000 magnetization 
 augmentation part      864.0000000 magnetization 

 Free energy of the ion-electron system (eV)
  ---------------------------------------------------
  alpha Z        PSCENC =      7300.31925852
  Ewald energy   TEWEN  =    -66232.83996889
  -Hartree energ DENC   =    -11197.02572337
  -exchange      EXHF   =         0.00000000
  -V(xc)+E(xc)   XCENC  =       446.63038354
  PAW double counting   =     51723.88885462   -52548.28121372
  entropy T*S    EENTRO =        -0.01056695
  eigenvalues    EBANDS =      6282.41581145
  atomic energy  EATOM  =     64201.67088057
  Solvation  Ediel_sol  =         0.00000000
  ---------------------------------------------------
  free energy    TOTEN  =       -23.23228421 eV

  energy without entropy =      -23.22171727  energy(sigma->0) =      -23.22876190


--------------------------------------------------------------------------------------------------------




--------------------------------------- Iteration      1(   3)  ---------------------------------------


     EDDAV:  cpu time   41.1436: real time   41.1563
       DOS:  cpu time    0.0069: real time    0.0069
    --------------------------------------------
      LOOP:  cpu time   41.1505: real time   41.1632

 eigenvalue-minimisations  :  4152
 total energy-change (2. order) :-0.8268881E+03  (-0.7073157E+03)
 number of electron     864.0000000 magnetization 
 augmentation part      864.0000000 magnetization 

 Free energy of the ion-electron system (eV)
  ---------------------------------------------------
  alpha Z        PSCENC =      7300.31925852
  Ewald energy   TEWEN  =    -66232.83996889
  -Hartree energ DENC   =    -11197.02572337
  -exchange      EXHF   =         0.00000000
  -V(xc)+E(xc)   XCENC  =       446.63038354
  PAW double counting   =     51723.88885462   -52548.28121372
  entropy T*S    EENTRO =        -0.01404827
  eigenvalues    EBANDS =      5455.53121922
  atomic energy  EATOM  =     64201.67088057
  Solvation  Ediel_sol  =         0.00000000
  ---------------------------------------------------
  free energy    TOTEN  =      -850.12035777 eV

  energy without entropy =     -850.10630950  energy(sigma->0) =     -850.11567501


--------------------------------------------------------------------------------------------------------




--------------------------------------- Iteration      1(   4)  ---------------------------------------


     EDDAV:  cpu time   66.7998: real time   66.8326
       DOS:  cpu time    0.0071: real time    0.0071
    --------------------------------------------
      LOOP:  cpu time   66.8069: real time   66.8397

 eigenvalue-minimisations  :  7504
 total energy-change (2. order) :-0.1798749E+03  (-0.1690287E+03)
 number of electron     864.0000000 magnetization 
 augmentation part      864.0000000 magnetization 

 Free energy of the ion-electron system (eV)
  ---------------------------------------------------
  alpha Z        PSCENC =      7300.31925852
  Ewald energy   TEWEN  =    -66232.83996889
  -Hartree energ DENC   =    -11197.02572337
  -exchange      EXHF   =         0.00000000
  -V(xc)+E(xc)   XCENC  =       446.63038354
  PAW double counting   =     51723.88885462   -52548.28121372
  entropy T*S    EENTRO =         0.13826294
  eigenvalues    EBANDS =      5275.50397236
  atomic energy  EATOM  =     64201.67088057
  Solvation  Ediel_sol  =         0.00000000
  ---------------------------------------------------
  free energy    TOTEN  =     -1029.99529342 eV

  energy without entropy =    -1030.13355636  energy(sigma->0) =    -1030.04138107


--------------------------------------------------------------------------------------------------------




--------------------------------------- Iteration      1(   5)  ---------------------------------------


     EDDAV:  cpu time   59.9765: real time   59.9945
       DOS:  cpu time    0.0073: real time    0.0073
    CHARGE:  cpu time    2.1077: real time    2.1082
    MIXING:  cpu time    0.0074: real time    0.0074
    --------------------------------------------
      LOOP:  cpu time   62.0990: real time   62.1175

 eigenvalue-minimisations  :  6616
 total energy-change (2. order) :-0.1514159E+02  (-0.1429340E+02)
 number of electron     864.0000681 magnetization 
 augmentation part      382.6836525 magnetization 

 Broyden mixing:
  rms(total) = 0.93531E+01    rms(broyden)= 0.93527E+01
  rms(prec ) = 0.11662E+02
  weight for this iteration     100.00

 Free energy of the ion-electron system (eV)
  ---------------------------------------------------
  alpha Z        PSCENC =      7300.31925852
  Ewald energy   TEWEN  =    -66232.83996889
  -Hartree energ DENC   =    -11197.02572337
  -exchange      EXHF   =         0.00000000
  -V(xc)+E(xc)   XCENC  =       446.63038354
  PAW double counting   =     51723.88885462   -52548.28121372
  entropy T*S    EENTRO =         0.16020456
  eigenvalues    EBANDS =      5260.34044312
  atomic energy  EATOM  =     64201.67088057
  Solvation  Ediel_sol  =         0.00000000
  ---------------------------------------------------
  free energy    TOTEN  =     -1045.13688104 eV

  energy without entropy =    -1045.29708560  energy(sigma->0) =    -1045.19028256


--------------------------------------------------------------------------------------------------------




--------------------------------------- Iteration      1(   6)  ---------------------------------------


    POTLOK:  cpu time    0.2953: real time    0.2958
    SETDIJ:  cpu time    0.0536: real time    0.0536
    EDDIAG:  cpu time    5.1412: real time    5.1426
  RMM-DIIS:  cpu time   25.3916: real time   25.3989
    ORTHCH:  cpu time    0.9677: real time    0.9679
       DOS:  cpu time    0.0078: real time    0.0078
    CHARGE:  cpu time    2.1113: real time    2.1117
    MIXING:  cpu time    0.0082: real time    0.0082
    --------------------------------------------
      LOOP:  cpu time   33.9767: real time   33.9865

 eigenvalue-minimisations  :  4144
 total energy-change (2. order) : 0.1673660E+03  (-0.1358115E+03)
 number of electron     864.0000772 magnetization 
 augmentation part      448.1075579 magnetization 

 Broyden mixing:
  rms(total) = 0.91186E+00    rms(broyden)= 0.91083E+00
  rms(prec ) = 0.98728E+00
  weight for this iteration     100.00

 eigenvalues of (default mixing * dielectric matrix)
  average eigenvalue GAMMA=   0.9453
  0.9453

 Free energy of the ion-electron system (eV)
  ---------------------------------------------------
  alpha Z        PSCENC =      7300.31925852
  Ewald energy   TEWEN  =    -66232.83996889
  -Hartree energ DENC   =     -9340.48425509
  -exchange      EXHF   =         0.00000000
  -V(xc)+E(xc)   XCENC  =       355.75812805
  PAW double counting   =     52442.26396894   -53022.83700822
  entropy T*S    EENTRO =         0.10960678
  eigenvalues    EBANDS =      3418.26848034
  atomic energy  EATOM  =     64201.67088057
  Solvation  Ediel_sol  =         0.00000000
  ---------------------------------------------------
  free energy    TOTEN  =      -877.77090899 eV

  energy without entropy =     -877.88051577  energy(sigma->0) =     -877.80744458


--------------------------------------------------------------------------------------------------------




--------------------------------------- Iteration      1(   7)  ---------------------------------------


    POTLOK:  cpu time    0.2925: real time    0.2929
    SETDIJ:  cpu time    0.0533: real time    0.0534
    EDDIAG:  cpu time    5.1491: real time    5.1505
  RMM-DIIS:  cpu time   27.3977: real time   27.4153
    ORTHCH:  cpu time    0.9720: real time    0.9722
       DOS:  cpu time    0.0079: real time    0.0079
    CHARGE:  cpu time    2.1148: real time    2.1153
    MIXING:  cpu time    0.0077: real time    0.0077
    --------------------------------------------
      LOOP:  cpu time   35.9952: real time   36.0152

 eigenvalue-minimisations  :  4499
 total energy-change (2. order) :-0.2491899E+01  (-0.1089276E+02)
 number of electron     864.0000746 magnetization 
 augmentation part      446.4509736 magnetization 

 Broyden mixing:
  rms(total) = 0.30603E+00    rms(broyden)= 0.30495E+00
  rms(prec ) = 0.33513E+00
  weight for this iteration     100.00

 eigenvalues of (default mixing * dielectric matrix)
  average eigenvalue GAMMA=   1.1190
  1.0177  1.2203

 Free energy of the ion-electron system (eV)
  ---------------------------------------------------
  alpha Z        PSCENC =      7300.31925852
  Ewald energy   TEWEN  =    -66232.83996889
  -Hartree energ DENC   =     -9388.01384257
  -exchange      EXHF   =         0.00000000
  -V(xc)+E(xc)   XCENC  =       360.57267005
  PAW double counting   =     54331.14668478   -55108.49961916
  entropy T*S    EENTRO =        -0.01051503
  eigenvalues    EBANDS =      3655.39164351
  atomic energy  EATOM  =     64201.67088057
  Solvation  Ediel_sol  =         0.00000000
  ---------------------------------------------------
  free energy    TOTEN  =      -880.26280822 eV

  energy without entropy =     -880.25229319  energy(sigma->0) =     -880.25930321


--------------------------------------------------------------------------------------------------------




--------------------------------------- Iteration      1(   8)  ---------------------------------------


    POTLOK:  cpu time    0.2831: real time    0.2836
    SETDIJ:  cpu time    0.0533: real time    0.0533
    EDDIAG:  cpu time    5.1900: real time    5.1914
  RMM-DIIS:  cpu time   26.8761: real time   26.8841
    ORTHCH:  cpu time    0.9670: real time    0.9672
       DOS:  cpu time    0.0079: real time    0.0080
    CHARGE:  cpu time    2.1231: real time    2.1236
    MIXING:  cpu time    0.0071: real time    0.0071
    --------------------------------------------
      LOOP:  cpu time   35.5077: real time   35.5181

 eigenvalue-minimisations  :  4421
 total energy-change (2. order) : 0.8467783E+00  (-0.1269667E+01)
 number of electron     864.0000742 magnetization 
 augmentation part      443.1021703 magnetization 

 Broyden mixing:
  rms(total) = 0.30942E+00    rms(broyden)= 0.30937E+00
  rms(prec ) = 0.38990E+00
  weight for this iteration     100.00

 eigenvalues of (default mixing * dielectric matrix)
  average eigenvalue GAMMA=   1.0334
  1.4676  0.8162  0.8162

 Free energy of the ion-electron system (eV)
  ---------------------------------------------------
  alpha Z        PSCENC =      7300.31925852
  Ewald energy   TEWEN  =    -66232.83996889
  -Hartree energ DENC   =     -9409.53534794
  -exchange      EXHF   =         0.00000000
  -V(xc)+E(xc)   XCENC  =       362.81796234
  PAW double counting   =     56197.14661754   -57086.80221194
  entropy T*S    EENTRO =         0.02265637
  eigenvalues    EBANDS =      3787.78412348
  atomic energy  EATOM  =     64201.67088057
  Solvation  Ediel_sol  =         0.00000000
  ---------------------------------------------------
  free energy    TOTEN  =      -879.41602995 eV

  energy without entropy =     -879.43868632  energy(sigma->0) =     -879.42358207


--------------------------------------------------------------------------------------------------------




--------------------------------------- Iteration      1(   9)  ---------------------------------------


    POTLOK:  cpu time    0.2871: real time    0.2875
    SETDIJ:  cpu time    0.0540: real time    0.0540
    EDDIAG:  cpu time    5.2058: real time    5.2072
  RMM-DIIS:  cpu time   34.1320: real time   34.1533
    ORTHCH:  cpu time    0.9889: real time    0.9890
       DOS:  cpu time    0.0081: real time    0.0081
    CHARGE:  cpu time    2.1798: real time    2.1800
    MIXING:  cpu time    0.0090: real time    0.0090
    --------------------------------------------
      LOOP:  cpu time   42.8645: real time   42.8880

 eigenvalue-minimisations  :  5727
 total energy-change (2. order) :-0.3778260E+00  (-0.4583220E+00)
 number of electron     864.0000746 magnetization 
 augmentation part      444.1522098 magnetization 

 Broyden mixing:
  rms(total) = 0.52596E+00    rms(broyden)= 0.52580E+00
  rms(prec ) = 0.72934E+00
  weight for this iteration     100.00

 eigenvalues of (default mixing * dielectric matrix)
  average eigenvalue GAMMA=   1.1638
  2.4871  1.0310  1.0310  0.1059

 Free energy of the ion-electron system (eV)
  ---------------------------------------------------
  alpha Z        PSCENC =      7300.31925852
  Ewald energy   TEWEN  =    -66232.83996889
  -Hartree energ DENC   =     -9385.43830127
  -exchange      EXHF   =         0.00000000
  -V(xc)+E(xc)   XCENC  =       361.84420715
  PAW double counting   =     56618.46224182   -57522.71231873
  entropy T*S    EENTRO =         0.01828624
  eigenvalues    EBANDS =      3778.88185862
  atomic energy  EATOM  =     64201.67088057
  Solvation  Ediel_sol  =         0.00000000
  ---------------------------------------------------
  free energy    TOTEN  =      -879.79385595 eV

  energy without entropy =     -879.81214219  energy(sigma->0) =     -879.79995137


--------------------------------------------------------------------------------------------------------




--------------------------------------- Iteration      1(  10)  ---------------------------------------


    POTLOK:  cpu time    0.3001: real time    0.3007
    SETDIJ:  cpu time    0.0554: real time    0.0554
    EDDIAG:  cpu time    5.2823: real time    5.2830
  RMM-DIIS:  cpu time   29.6315: real time   29.6360
    ORTHCH:  cpu time    0.9740: real time    0.9741
       DOS:  cpu time    0.0081: real time    0.0081
    CHARGE:  cpu time    2.1214: real time    2.1215
    MIXING:  cpu time    0.0084: real time    0.0084
    --------------------------------------------
      LOOP:  cpu time   38.3811: real time   38.3872

 eigenvalue-minimisations  :  4881
 total energy-change (2. order) : 0.1930592E+00  (-0.8456317E-01)
 number of electron     864.0000747 magnetization 
 augmentation part      445.0520993 magnetization 

 Broyden mixing:
  rms(total) = 0.10401E+00    rms(broyden)= 0.10359E+00
  rms(prec ) = 0.13106E+00
  weight for this iteration     100.00

 eigenvalues of (default mixing * dielectric matrix)
  average eigenvalue GAMMA=   1.3106
  2.7165  1.8204  0.9547  0.9547  0.1070

 Free energy of the ion-electron system (eV)
  ---------------------------------------------------
  alpha Z        PSCENC =      7300.31925852
  Ewald energy   TEWEN  =    -66232.83996889
  -Hartree energ DENC   =     -9318.94020867
  -exchange      EXHF   =         0.00000000
  -V(xc)+E(xc)   XCENC  =       359.20281006
  PAW double counting   =     57863.63180166   -58808.72972731
  entropy T*S    EENTRO =         0.02670178
  eigenvalues    EBANDS =      3756.05765555
  atomic energy  EATOM  =     64201.67088057
  Solvation  Ediel_sol  =         0.00000000
  ---------------------------------------------------
  free energy    TOTEN  =      -879.60079672 eV

  energy without entropy =     -879.62749850  energy(sigma->0) =     -879.60969731


--------------------------------------------------------------------------------------------------------




--------------------------------------- Iteration      1(  11)  ---------------------------------------


    POTLOK:  cpu time    0.2754: real time    0.2758
    SETDIJ:  cpu time    0.0538: real time    0.0538
    EDDIAG:  cpu time    5.2204: real time    5.2209
  RMM-DIIS:  cpu time   31.6464: real time   31.6487
    ORTHCH:  cpu time    1.0092: real time    1.0092
       DOS:  cpu time    0.0082: real time    0.0082
    CHARGE:  cpu time    2.1266: real time    2.1268
    MIXING:  cpu time    0.0077: real time    0.0077
    --------------------------------------------
      LOOP:  cpu time   40.3478: real time   40.3512

 eigenvalue-minimisations  :  5213
 total energy-change (2. order) :-0.7022723E-02  (-0.2808091E-01)
 number of electron     864.0000746 magnetization 
 augmentation part      444.7871125 magnetization 

 Broyden mixing:
  rms(total) = 0.60596E-01    rms(broyden)= 0.60556E-01
  rms(prec ) = 0.80581E-01
  weight for this iteration     100.00

 eigenvalues of (default mixing * dielectric matrix)
  average eigenvalue GAMMA=   1.2844
  2.7921  2.2165  0.9645  0.9645  0.6614  0.1072

 Free energy of the ion-electron system (eV)
  ---------------------------------------------------
  alpha Z        PSCENC =      7300.31925852
  Ewald energy   TEWEN  =    -66232.83996889
  -Hartree energ DENC   =     -9335.18142855
  -exchange      EXHF   =         0.00000000
  -V(xc)+E(xc)   XCENC  =       359.94121589
  PAW double counting   =     58015.84013293   -58957.52822114
  entropy T*S    EENTRO =         0.03023650
  eigenvalues    EBANDS =      3768.14007473
  atomic energy  EATOM  =     64201.67088057
  Solvation  Ediel_sol  =         0.00000000
  ---------------------------------------------------
  free energy    TOTEN  =      -879.60781944 eV

  energy without entropy =     -879.63805594  energy(sigma->0) =     -879.61789827


--------------------------------------------------------------------------------------------------------




--------------------------------------- Iteration      1(  12)  ---------------------------------------


    POTLOK:  cpu time    0.2822: real time    0.2834
    SETDIJ:  cpu time    0.0531: real time    0.0531
    EDDIAG:  cpu time    5.0589: real time    5.0593
  RMM-DIIS:  cpu time   30.6062: real time   30.6085
    ORTHCH:  cpu time    0.9681: real time    0.9682
       DOS:  cpu time    0.0081: real time    0.0081
    CHARGE:  cpu time    2.1007: real time    2.1009
    MIXING:  cpu time    0.0081: real time    0.0081
    --------------------------------------------
      LOOP:  cpu time   39.0855: real time   39.0897

 eigenvalue-minimisations  :  5062
 total energy-change (2. order) : 0.8323027E-03  (-0.5460662E-02)
 number of electron     864.0000746 magnetization 
 augmentation part      444.5760617 magnetization 

 Broyden mixing:
  rms(total) = 0.19849E-01    rms(broyden)= 0.19844E-01
  rms(prec ) = 0.27919E-01
  weight for this iteration     100.00

 eigenvalues of (default mixing * dielectric matrix)
  average eigenvalue GAMMA=   1.2689
  2.6806  2.2835  0.9724  0.9724  0.9332  0.9332  0.1072

 Free energy of the ion-electron system (eV)
  ---------------------------------------------------
  alpha Z        PSCENC =      7300.31925852
  Ewald energy   TEWEN  =    -66232.83996889
  -Hartree energ DENC   =     -9345.31808889
  -exchange      EXHF   =         0.00000000
  -V(xc)+E(xc)   XCENC  =       360.38257291
  PAW double counting   =     58029.40504415   -58967.58986055
  entropy T*S    EENTRO =         0.03222287
  eigenvalues    EBANDS =      3774.33095216
  atomic energy  EATOM  =     64201.67088057
  Solvation  Ediel_sol  =         0.00000000
  ---------------------------------------------------
  free energy    TOTEN  =      -879.60698714 eV

  energy without entropy =     -879.63921001  energy(sigma->0) =     -879.61772810


--------------------------------------------------------------------------------------------------------




--------------------------------------- Iteration      1(  13)  ---------------------------------------


    POTLOK:  cpu time    0.2901: real time    0.2905
    SETDIJ:  cpu time    0.0540: real time    0.0540
    EDDIAG:  cpu time    5.1574: real time    5.1578
  RMM-DIIS:  cpu time   36.3714: real time   36.3753
    ORTHCH:  cpu time    0.9884: real time    0.9885
       DOS:  cpu time    0.0083: real time    0.0083
    CHARGE:  cpu time    2.1718: real time    2.1719
    MIXING:  cpu time    0.0091: real time    0.0091
    --------------------------------------------
      LOOP:  cpu time   45.0505: real time   45.0555

 eigenvalue-minimisations  :  6088
 total energy-change (2. order) :-0.6800888E-03  (-0.1208408E-02)
 number of electron     864.0000746 magnetization 
 augmentation part      444.5596782 magnetization 

 Broyden mixing:
  rms(total) = 0.98860E-02    rms(broyden)= 0.98765E-02
  rms(prec ) = 0.14071E-01
  weight for this iteration     100.00

 eigenvalues of (default mixing * dielectric matrix)
  average eigenvalue GAMMA=   1.7834
  5.1812  2.5714  2.5714  0.9586  0.9586  1.0348  0.8838  0.1072

 Free energy of the ion-electron system (eV)
  ---------------------------------------------------
  alpha Z        PSCENC =      7300.31925852
  Ewald energy   TEWEN  =    -66232.83996889
  -Hartree energ DENC   =     -9346.45017981
  -exchange      EXHF   =         0.00000000
  -V(xc)+E(xc)   XCENC  =       360.42547836
  PAW double counting   =     58019.22729164   -58956.21544060
  entropy T*S    EENTRO =         0.03353290
  eigenvalues    EBANDS =      3774.22148008
  atomic energy  EATOM  =     64201.67088057
  Solvation  Ediel_sol  =         0.00000000
  ---------------------------------------------------
  free energy    TOTEN  =      -879.60766723 eV

  energy without entropy =     -879.64120013  energy(sigma->0) =     -879.61884486


--------------------------------------------------------------------------------------------------------




--------------------------------------- Iteration      1(  14)  ---------------------------------------


    POTLOK:  cpu time    0.2692: real time    0.2695
    SETDIJ:  cpu time    0.0540: real time    0.0540
    EDDIAG:  cpu time    5.2140: real time    5.2144
  RMM-DIIS:  cpu time   29.3029: real time   29.3051
    ORTHCH:  cpu time    0.9948: real time    0.9949
       DOS:  cpu time    0.0083: real time    0.0083
    CHARGE:  cpu time    2.1775: real time    2.1777
    MIXING:  cpu time    0.0105: real time    0.0105
    --------------------------------------------
      LOOP:  cpu time   38.0311: real time   38.0345

 eigenvalue-minimisations  :  4871
 total energy-change (2. order) :-0.1723422E-03  (-0.9527036E-04)
 number of electron     864.0000746 magnetization 
 augmentation part      444.5938529 magnetization 

 Broyden mixing:
  rms(total) = 0.17991E-01    rms(broyden)= 0.17978E-01
  rms(prec ) = 0.25436E-01
  weight for this iteration     100.00

 eigenvalues of (default mixing * dielectric matrix)
  average eigenvalue GAMMA=   1.4453
  3.2432  2.5943  2.5943  0.9558  0.9558  1.0311  0.9076  0.1072  0.6187

 Free energy of the ion-electron system (eV)
  ---------------------------------------------------
  alpha Z        PSCENC =      7300.31925852
  Ewald energy   TEWEN  =    -66232.83996889
  -Hartree energ DENC   =     -9345.41191008
  -exchange      EXHF   =         0.00000000
  -V(xc)+E(xc)   XCENC  =       360.38622436
  PAW double counting   =     58014.55357113   -58951.49011244
  entropy T*S    EENTRO =         0.03413610
  eigenvalues    EBANDS =      3773.17008115
  atomic energy  EATOM  =     64201.67088057
  Solvation  Ediel_sol  =         0.00000000
  ---------------------------------------------------
  free energy    TOTEN  =      -879.60783957 eV

  energy without entropy =     -879.64197567  energy(sigma->0) =     -879.61921827


--------------------------------------------------------------------------------------------------------




--------------------------------------- Iteration      1(  15)  ---------------------------------------


    POTLOK:  cpu time    0.2938: real time    0.2943
    SETDIJ:  cpu time    0.0540: real time    0.0540
    EDDIAG:  cpu time    5.2594: real time    5.2714
  RMM-DIIS:  cpu time   28.6229: real time   28.6260
    ORTHCH:  cpu time    1.0101: real time    1.0102
       DOS:  cpu time    0.0082: real time    0.0082
    CHARGE:  cpu time    2.2647: real time    2.2650
    MIXING:  cpu time    0.0098: real time    0.0098
    --------------------------------------------
      LOOP:  cpu time   37.5229: real time   37.5388

 eigenvalue-minimisations  :  4700
 total energy-change (2. order) : 0.3154728E-03  (-0.1324125E-05)
 number of electron     864.0000746 magnetization 
 augmentation part      444.5720663 magnetization 

 Broyden mixing:
  rms(total) = 0.45833E-02    rms(broyden)= 0.45765E-02
  rms(prec ) = 0.64306E-02
  weight for this iteration     100.00

 eigenvalues of (default mixing * dielectric matrix)
  average eigenvalue GAMMA=   1.3943
  2.9963  2.5889  2.1924  1.1099  1.1099  0.9724  0.9724  0.9469  0.9469  0.1072

 Free energy of the ion-electron system (eV)
  ---------------------------------------------------
  alpha Z        PSCENC =      7300.31925852
  Ewald energy   TEWEN  =    -66232.83996889
  -Hartree energ DENC   =     -9346.46208981
  -exchange      EXHF   =         0.00000000
  -V(xc)+E(xc)   XCENC  =       360.42932037
  PAW double counting   =     58013.97813947   -58950.67526207
  entropy T*S    EENTRO =         0.03463418
  eigenvalues    EBANDS =      3773.93756355
  atomic energy  EATOM  =     64201.67088057
  Solvation  Ediel_sol  =         0.00000000
  ---------------------------------------------------
  free energy    TOTEN  =      -879.60752410 eV

  energy without entropy =     -879.64215828  energy(sigma->0) =     -879.61906882


--------------------------------------------------------------------------------------------------------




--------------------------------------- Iteration      1(  16)  ---------------------------------------


    POTLOK:  cpu time    0.2778: real time    0.2789
    SETDIJ:  cpu time    0.0540: real time    0.0540
    EDDIAG:  cpu time    4.9686: real time    4.9690
  RMM-DIIS:  cpu time   30.9083: real time   30.9106
    ORTHCH:  cpu time    0.9923: real time    0.9924
       DOS:  cpu time    0.0081: real time    0.0081
    CHARGE:  cpu time    2.1522: real time    2.1524
    MIXING:  cpu time    0.0106: real time    0.0106
    --------------------------------------------
      LOOP:  cpu time   39.3718: real time   39.3759

 eigenvalue-minimisations  :  5227
 total energy-change (2. order) : 0.5764911E-04  (-0.2327348E-05)
 number of electron     864.0000746 magnetization 
 augmentation part      444.5547100 magnetization 

 Broyden mixing:
  rms(total) = 0.13399E-02    rms(broyden)= 0.13378E-02
  rms(prec ) = 0.18973E-02
  weight for this iteration     100.00

 eigenvalues of (default mixing * dielectric matrix)
  average eigenvalue GAMMA=   1.3517
  2.7542  2.5552  1.9311  1.5370  1.5370  0.1072  0.9665  0.9665  1.0046  0.8721
  0.6373

 Free energy of the ion-electron system (eV)
  ---------------------------------------------------
  alpha Z        PSCENC =      7300.31925852
  Ewald energy   TEWEN  =    -66232.83996889
  -Hartree energ DENC   =     -9347.03204738
  -exchange      EXHF   =         0.00000000
  -V(xc)+E(xc)   XCENC  =       360.45369898
  PAW double counting   =     58014.81637318   -58951.39318762
  entropy T*S    EENTRO =         0.03498013
  eigenvalues    EBANDS =      3774.36254605
  atomic energy  EATOM  =     64201.67088057
  Solvation  Ediel_sol  =         0.00000000
  ---------------------------------------------------
  free energy    TOTEN  =      -879.60746645 eV

  energy without entropy =     -879.64244657  energy(sigma->0) =     -879.61912649


--------------------------------------------------------------------------------------------------------




--------------------------------------- Iteration      1(  17)  ---------------------------------------


    POTLOK:  cpu time    0.2892: real time    0.2894
    SETDIJ:  cpu time    0.0536: real time    0.0536
    EDDIAG:  cpu time    5.3804: real time    5.3808
  RMM-DIIS:  cpu time   36.7873: real time   36.7901
    ORTHCH:  cpu time    1.0214: real time    1.0214
       DOS:  cpu time    0.0082: real time    0.0082
    CHARGE:  cpu time    2.3264: real time    2.3266
    MIXING:  cpu time    0.0125: real time    0.0125
    --------------------------------------------
      LOOP:  cpu time   45.8788: real time   45.8827

 eigenvalue-minimisations  :  6022
[...]
   0.105E-01 -.143E-04 -.103E-01   -.205E-01 0.277E-04 0.202E-01   -.192E-20 -.127E-20 -.224E-19   0.115E-06 -.127E-06 0.124E-07
   0.105E-01 0.103E-01 0.143E-04   -.205E-01 -.202E-01 -.277E-04   -.430E-21 0.115E-19 0.191E-19   0.115E-06 -.132E-07 0.127E-06
   -.105E-01 -.143E-04 0.143E-04   0.205E-01 0.277E-04 -.277E-04   0.000E+00 -.678E-20 0.301E-19   -.114E-06 -.127E-06 0.127E-06
   -.105E-01 0.103E-01 -.103E-01   0.205E-01 -.202E-01 0.202E-01   0.000E+00 -.981E-20 -.529E-19   -.114E-06 -.132E-07 0.124E-07
   -.143E-04 -.103E-01 -.103E-01   0.277E-04 0.202E-01 0.202E-01   0.169E-20 -.169E-20 -.284E-19   -.127E-06 0.124E-07 0.124E-07
   -.143E-04 0.143E-04 0.143E-04   0.277E-04 -.277E-04 -.277E-04   -.847E-21 -.508E-20 0.212E-20   -.127E-06 0.127E-06 0.127E-06
   0.103E-01 -.103E-01 0.143E-04   -.202E-01 0.202E-01 -.277E-04   -.162E-21 0.381E-20 0.182E-19   -.132E-07 0.124E-07 0.127E-06
   0.103E-01 0.143E-04 -.103E-01   -.202E-01 -.277E-04 0.202E-01   -.117E-20 0.339E-20 0.368E-19   -.132E-07 0.127E-06 0.124E-07
   -.103E-01 -.103E-01 -.103E-01   0.202E-01 0.202E-01 0.202E-01   0.000E+00 -.296E-20 -.199E-19   0.124E-07 0.124E-07 0.124E-07
   -.104E-01 0.143E-04 0.143E-04   0.203E-01 -.277E-04 -.277E-04   0.000E+00 -.339E-20 -.127E-20   0.124E-07 0.127E-06 0.127E-06
   0.143E-04 -.104E-01 0.143E-04   -.277E-04 0.203E-01 -.277E-04   0.847E-21 -.424E-21 0.102E-19   0.127E-06 0.124E-07 0.127E-06
   0.143E-04 0.143E-04 -.104E-01   -.277E-04 -.277E-04 0.203E-01   0.424E-21 0.216E-19 0.673E-19   0.127E-06 0.127E-06 0.124E-07
   0.105E-01 -.103E-01 -.103E-01   -.205E-01 0.202E-01 0.202E-01   0.708E-21 -.212E-20 0.508E-20   0.115E-06 0.124E-07 0.124E-07
   0.105E-01 0.143E-04 0.143E-04   -.205E-01 -.277E-04 -.277E-04   -.834E-21 0.000E+00 -.424E-20   0.115E-06 0.127E-06 0.127E-06
   -.105E-01 -.103E-01 0.143E-04   0.205E-01 0.202E-01 -.277E-04   0.000E+00 0.000E+00 0.635E-20   -.114E-06 0.124E-07 0.127E-06
   -.105E-01 0.143E-04 -.103E-01   0.205E-01 -.277E-04 0.202E-01   0.000E+00 0.174E-19 0.534E-19   -.114E-06 0.127E-06 0.124E-07
   -.143E-04 0.105E-01 -.103E-01   0.277E-04 -.205E-01 0.202E-01   -.847E-21 0.946E-20 0.127E-19   -.127E-06 0.115E-06 0.124E-07
   -.143E-04 -.105E-01 0.143E-04   0.277E-04 0.205E-01 -.277E-04   0.424E-21 -.123E-19 -.974E-20   -.127E-06 -.114E-06 0.127E-06
   0.103E-01 0.105E-01 0.143E-04   -.202E-01 -.205E-01 -.277E-04   0.261E-21 0.820E-20 0.254E-20   -.132E-07 0.115E-06 0.127E-06
   0.103E-01 -.105E-01 -.103E-01   -.202E-01 0.205E-01 0.202E-01   0.946E-21 -.296E-20 -.123E-19   -.132E-07 -.114E-06 0.124E-07
   -.103E-01 0.105E-01 -.103E-01   0.202E-01 -.205E-01 0.202E-01   0.424E-21 -.790E-20 0.330E-19   0.124E-07 0.115E-06 0.124E-07
   -.103E-01 -.105E-01 0.143E-04   0.202E-01 0.205E-01 -.277E-04   0.000E+00 -.720E-20 0.110E-19   0.124E-07 -.114E-06 0.127E-06
   0.143E-04 0.105E-01 0.143E-04   -.277E-04 -.205E-01 -.277E-04   0.424E-21 0.142E-20 -.932E-20   0.127E-06 0.115E-06 0.127E-06
   0.143E-04 -.105E-01 -.103E-01   -.277E-04 0.205E-01 0.202E-01   0.424E-21 0.424E-21 0.847E-20   0.127E-06 -.114E-06 0.124E-07
   0.105E-01 0.105E-01 -.103E-01   -.205E-01 -.205E-01 0.202E-01   -.752E-21 -.282E-20 0.254E-20   0.115E-06 0.115E-06 0.124E-07
   0.105E-01 -.105E-01 0.143E-04   -.205E-01 0.205E-01 -.277E-04   0.146E-20 -.508E-20 0.241E-19   0.115E-06 -.114E-06 0.127E-06
   -.105E-01 0.105E-01 0.143E-04   0.205E-01 -.205E-01 -.277E-04   0.000E+00 -.366E-20 0.195E-19   -.114E-06 0.115E-06 0.127E-06
   -.105E-01 -.105E-01 -.103E-01   0.205E-01 0.205E-01 0.202E-01   0.000E+00 -.847E-21 -.127E-20   -.114E-06 -.114E-06 0.124E-07
   -.143E-04 -.143E-04 0.105E-01   0.277E-04 0.277E-04 -.205E-01   0.847E-21 -.127E-20 0.746E-20   -.127E-06 -.127E-06 0.115E-06
   -.143E-04 0.103E-01 -.105E-01   0.277E-04 -.202E-01 0.205E-01   -.424E-21 -.411E-20 -.305E-19   -.127E-06 -.132E-07 -.114E-06
   0.103E-01 -.143E-04 -.105E-01   -.202E-01 0.277E-04 0.205E-01   0.309E-21 0.678E-20 -.415E-19   -.132E-07 -.127E-06 -.114E-06
   0.103E-01 0.103E-01 0.105E-01   -.202E-01 -.202E-01 -.205E-01   0.157E-21 -.541E-20 0.701E-19   -.132E-07 -.132E-07 0.115E-06
   -.103E-01 -.143E-04 0.105E-01   0.202E-01 0.277E-04 -.205E-01   0.424E-21 0.212E-20 0.147E-19   0.124E-07 -.127E-06 0.115E-06
   -.103E-01 0.103E-01 -.105E-01   0.202E-01 -.202E-01 0.205E-01   0.000E+00 -.109E-19 -.136E-19   0.124E-07 -.132E-07 -.114E-06
   0.143E-04 -.143E-04 -.105E-01   -.277E-04 0.277E-04 0.205E-01   0.424E-21 -.678E-20 -.932E-20   0.127E-06 -.127E-06 -.114E-06
   0.143E-04 0.103E-01 0.105E-01   -.277E-04 -.202E-01 -.205E-01   -.424E-21 0.115E-19 0.527E-19   0.127E-06 -.132E-07 0.115E-06
   0.105E-01 -.143E-04 0.105E-01   -.205E-01 0.277E-04 -.205E-01   0.294E-21 0.152E-19 0.316E-19   0.115E-06 -.127E-06 0.115E-06
   0.105E-01 0.103E-01 -.105E-01   -.205E-01 -.202E-01 0.205E-01   -.700E-21 -.750E-20 0.339E-20   0.115E-06 -.132E-07 -.114E-06
   -.105E-01 -.143E-04 -.105E-01   0.205E-01 0.277E-04 0.205E-01   0.000E+00 -.254E-20 -.330E-19   -.114E-06 -.127E-06 -.114E-06
   -.105E-01 0.103E-01 0.105E-01   0.205E-01 -.202E-01 -.205E-01   0.000E+00 0.856E-20 0.671E-19   -.114E-06 -.132E-07 0.115E-06
   -.143E-04 -.103E-01 0.105E-01   0.277E-04 0.202E-01 -.205E-01   -.127E-20 0.593E-20 0.274E-19   -.127E-06 0.124E-07 0.115E-06
   -.143E-04 0.143E-04 -.105E-01   0.277E-04 -.277E-04 0.205E-01   0.847E-21 0.593E-20 -.182E-19   -.127E-06 0.127E-06 -.114E-06
   0.103E-01 -.103E-01 -.105E-01   -.202E-01 0.202E-01 0.205E-01   -.728E-22 -.131E-19 -.466E-20   -.132E-07 0.124E-07 -.114E-06
   0.103E-01 0.143E-04 0.105E-01   -.202E-01 -.277E-04 -.205E-01   -.164E-20 -.127E-20 -.189E-19   -.132E-07 0.127E-06 0.115E-06
   -.103E-01 -.103E-01 0.105E-01   0.202E-01 0.202E-01 -.205E-01   -.127E-20 -.102E-19 0.168E-19   0.124E-07 0.124E-07 0.115E-06
   -.103E-01 0.143E-04 -.105E-01   0.202E-01 -.277E-04 0.205E-01   0.000E+00 0.847E-21 -.508E-20   0.124E-07 0.127E-06 -.114E-06
   0.143E-04 -.103E-01 -.105E-01   -.277E-04 0.202E-01 0.205E-01   -.847E-21 0.424E-21 -.144E-19   0.127E-06 0.124E-07 -.114E-06
   0.143E-04 0.143E-04 0.105E-01   -.277E-04 -.277E-04 -.205E-01   0.424E-21 0.720E-20 -.735E-19   0.127E-06 0.127E-06 0.115E-06
   0.105E-01 -.103E-01 0.105E-01   -.205E-01 0.202E-01 -.205E-01   -.164E-20 0.508E-20 -.218E-19   0.115E-06 0.124E-07 0.115E-06
   0.105E-01 0.143E-04 -.105E-01   -.205E-01 -.277E-04 0.205E-01   0.507E-21 -.424E-20 0.106E-19   0.115E-06 0.127E-06 -.114E-06
   -.105E-01 -.103E-01 -.105E-01   0.205E-01 0.202E-01 0.205E-01   0.000E+00 -.254E-20 -.720E-20   -.114E-06 0.124E-07 -.114E-06
   -.105E-01 0.143E-04 0.105E-01   0.205E-01 -.277E-04 -.205E-01   0.000E+00 -.424E-20 -.481E-19   -.114E-06 0.127E-06 0.115E-06
   -.143E-04 0.105E-01 0.105E-01   0.277E-04 -.205E-01 -.205E-01   0.127E-20 0.149E-19 -.290E-19   -.127E-06 0.115E-06 0.115E-06
   -.143E-04 -.105E-01 -.105E-01   0.277E-04 0.205E-01 0.205E-01   -.847E-21 -.152E-19 0.000E+00   -.127E-06 -.114E-06 -.114E-06
   0.103E-01 0.105E-01 -.105E-01   -.202E-01 -.205E-01 0.205E-01   -.407E-21 -.238E-20 -.296E-19   -.132E-07 0.115E-06 -.114E-06
   0.103E-01 -.105E-01 0.105E-01   -.202E-01 0.205E-01 -.205E-01   0.354E-21 -.127E-19 -.337E-19   -.132E-07 -.114E-06 0.115E-06
   -.103E-01 0.105E-01 0.105E-01   0.202E-01 -.205E-01 -.205E-01   0.000E+00 -.884E-20 0.959E-20   0.124E-07 0.115E-06 0.115E-06
   -.103E-01 -.105E-01 -.105E-01   0.202E-01 0.205E-01 0.205E-01   0.000E+00 -.102E-19 0.296E-20   0.124E-07 -.114E-06 -.114E-06
   0.143E-04 0.105E-01 -.105E-01   -.277E-04 -.205E-01 0.205E-01   -.127E-20 0.270E-20 0.309E-19   0.127E-06 0.115E-06 -.114E-06
   0.143E-04 -.105E-01 0.105E-01   -.277E-04 0.205E-01 -.205E-01   -.127E-20 -.136E-19 -.295E-19   0.127E-06 -.114E-06 0.115E-06
   0.105E-01 0.105E-01 0.105E-01   -.205E-01 -.205E-01 -.205E-01   -.265E-22 -.588E-20 0.874E-20   0.115E-06 0.115E-06 0.115E-06
   0.105E-01 -.105E-01 -.105E-01   -.205E-01 0.205E-01 0.205E-01   -.963E-21 -.169E-20 -.208E-19   0.115E-06 -.114E-06 -.114E-06
   -.105E-01 0.105E-01 -.105E-01   0.205E-01 -.205E-01 0.205E-01   0.000E+00 0.354E-20 0.424E-21   -.114E-06 0.115E-06 -.114E-06
   -.105E-01 -.105E-01 0.105E-01   0.205E-01 0.205E-01 -.205E-01   0.000E+00 0.508E-20 0.226E-19   -.114E-06 -.114E-06 0.115E-06
 -----------------------------------------------------------------------------------------------
   0.109E-09 0.144E-09 0.578E-10   0.199E-12 0.130E-14 -.809E-13   -.269E-20 0.958E-20 0.341E-18   -.882E-10 -.870E-10 -.903E-10
 
 
 POSITION                                       TOTAL-FORCE (eV/Angst)
 -----------------------------------------------------------------------------------
      0.00000      0.00000      0.00000         0.000000      0.000000      0.000000
      0.00000      1.72250      1.72250         0.000000     -0.000000     -0.000000
      1.72250      0.00000      1.72250        -0.000000     -0.000000      0.000000
      1.72250      1.72250      0.00000        -0.000000      0.000000     -0.000000
      3.44493      0.00000      0.00000        -0.000000     -0.000000     -0.000000
      3.44493      1.72250      1.72250        -0.000000      0.000000      0.000000
      5.16742      0.00000      1.72250        -0.000000     -0.000000     -0.000000
      5.16742      1.72250      0.00000         0.000000      0.000000      0.000000
      6.88992      0.00000      0.00000         0.000000     -0.000000     -0.000000
      6.88992      1.72250      1.72250         0.000000     -0.000000      0.000000
      8.61235      0.00000      1.72250        -0.000000     -0.000000     -0.000000
      8.61235      1.72250      0.00000        -0.000000      0.000000      0.000000
      0.00000      3.44493      0.00000         0.000000     -0.000000     -0.000000
      0.00000      5.16742      1.72250        -0.000000     -0.000000     -0.000000
      1.72250      3.44493      1.72250         0.000000     -0.000000      0.000000
      1.72250      5.16742      0.00000         0.000000      0.000000     -0.000000
      3.44493      3.44493      0.00000        -0.000000      0.000000      0.000000
      3.44493      5.16742      1.72250        -0.000000     -0.000000     -0.000000
      5.16742      3.44493      1.72250         0.000000     -0.000000     -0.000000
      5.16742      5.16742      0.00000         0.000000      0.000000      0.000000
      6.88992      3.44493      0.00000         0.000000     -0.000000     -0.000000
      6.88992      5.16742      1.72250        -0.000000     -0.000000      0.000000
      8.61235      3.44493      1.72250         0.000000     -0.000000      0.000000
      8.61235      5.16742      0.00000        -0.000000     -0.000000      0.000000
      0.00000      6.88992      0.00000        -0.000000     -0.000000      0.000000
      0.00000      8.61235      1.72250         0.000000      0.000000     -0.000000
      1.72250      6.88992      1.72250        -0.000000      0.000000      0.000000
      1.72250      8.61235      0.00000        -0.000000      0.000000     -0.000000
      3.44493      6.88992      0.00000         0.000000     -0.000000     -0.000000
      3.44493      8.61235      1.72250         0.000000      0.000000      0.000000
      5.16742      6.88992      1.72250        -0.000000     -0.000000      0.000000
      5.16742      8.61235      0.00000        -0.000000      0.000000     -0.000000
      6.88992      6.88992      0.00000         0.000000     -0.000000     -0.000000
      6.88992      8.61235      1.72250         0.000000      0.000000     -0.000000
      8.61235      6.88992      1.72250         0.000000      0.000000      0.000000
      8.61235      8.61235      0.00000         0.000000      0.000000     -0.000000
      0.00000      0.00000      3.44493         0.000000     -0.000000     -0.000000
      0.00000      1.72250      5.16742         0.000000      0.000000     -0.000000
      1.72250      0.00000      5.16742        -0.000000      0.000000      0.000000
      1.72250      1.72250      3.44493         0.000000     -0.000000     -0.000000
      3.44493      0.00000      3.44493         0.000000     -0.000000      0.000000
      3.44493      1.72250      5.16742         0.000000      0.000000      0.000000
      5.16742      0.00000      5.16742         0.000000     -0.000000     -0.000000
      5.16742      1.72250      3.44493         0.000000      0.000000     -0.000000
      6.88992      0.00000      3.44493        -0.000000     -0.000000      0.000000
      6.88992      1.72250      5.16742         0.000000     -0.000000      0.000000
      8.61235      0.00000      5.16742        -0.000000     -0.000000      0.000000
      8.61235      1.72250      3.44493        -0.000000      0.000000     -0.000000
      0.00000      3.44493      3.44493         0.000000     -0.000000     -0.000000
      0.00000      5.16742      5.16742         0.000000      0.000000      0.000000
      1.72250      3.44493      5.16742         0.000000     -0.000000     -0.000000
      1.72250      5.16742      3.44493        -0.000000      0.000000      0.000000
      3.44493      3.44493      3.44493         0.000000     -0.000000      0.000000
      3.44493      5.16742      5.16742        -0.000000      0.000000     -0.000000
      5.16742      3.44493      5.16742        -0.000000      0.000000     -0.000000
      5.16742      5.16742      3.44493         0.000000      0.000000     -0.000000
      6.88992      3.44493      3.44493         0.000000     -0.000000     -0.000000
      6.88992      5.16742      5.16742         0.000000      0.000000      0.000000
      8.61235      3.44493      5.16742         0.000000     -0.000000      0.000000
      8.61235      5.16742      3.44493         0.000000      0.000000     -0.000000
      0.00000      6.88992      3.44493        -0.000000      0.000000     -0.000000
      0.00000      8.61235      5.16742        -0.000000      0.000000      0.000000
      1.72250      6.88992      5.16742         0.000000     -0.000000      0.000000
      1.72250      8.61235      3.44493         0.000000      0.000000     -0.000000
      3.44493      6.88992      3.44493         0.000000      0.000000      0.000000
      3.44493      8.61235      5.16742         0.000000     -0.000000     -0.000000
      5.16742      6.88992      5.16742        -0.000000      0.000000      0.000000
      5.16742      8.61235      3.44493        -0.000000     -0.000000      0.000000
      6.88992      6.88992      3.44493        -0.000000      0.000000      0.000000
      6.88992      8.61235      5.16742         0.000000      0.000000      0.000000
      8.61235      6.88992      5.16742         0.000000      0.000000      0.000000
      8.61235      8.61235      3.44493         0.000000      0.000000     -0.000000
      0.00000      0.00000      6.88992        -0.000000     -0.000000      0.000000
      0.00000      1.72250      8.61235         0.000000      0.000000     -0.000000
      1.72250      0.00000      8.61235        -0.000000     -0.000000     -0.000000
      1.72250      1.72250      6.88992        -0.000000     -0.000000      0.000000
      3.44493      0.00000      6.88992         0.000000      0.000000     -0.000000
      3.44493      1.72250      8.61235        -0.000000      0.000000     -0.000000
      5.16742      0.00000      8.61235        -0.000000     -0.000000      0.000000
      5.16742      1.72250      6.88992        -0.000000      0.000000      0.000000
      6.88992      0.00000      6.88992        -0.000000     -0.000000     -0.000000
      6.88992      1.72250      8.61235         0.000000     -0.000000     -0.000000
      8.61235      0.00000      8.61235         0.000000     -0.000000      0.000000
      8.61235      1.72250      6.88992         0.000000      0.000000     -0.000000
      0.00000      3.44493      6.88992        -0.000000     -0.000000      0.000000
      0.00000      5.16742      8.61235        -0.000000      0.000000      0.000000
      1.72250      3.44493      8.61235         0.000000      0.000000     -0.000000
      1.72250      5.16742      6.88992        -0.000000      0.000000      0.000000
      3.44493      3.44493      6.88992         0.000000      0.000000     -0.000000
      3.44493      5.16742      8.61235         0.000000     -0.000000      0.000000
      5.16742      3.44493      8.61235         0.000000     -0.000000      0.000000
      5.16742      5.16742      6.88992         0.000000      0.000000      0.000000
      6.88992      3.44493      6.88992         0.000000     -0.000000     -0.000000
      6.88992      5.16742      8.61235        -0.000000      0.000000      0.000000
      8.61235      3.44493      8.61235         0.000000     -0.000000     -0.000000
      8.61235      5.16742      6.88992        -0.000000      0.000000     -0.000000
      0.00000      6.88992      6.88992        -0.000000     -0.000000     -0.000000
      0.00000      8.61235      8.61235         0.000000      0.000000      0.000000
      1.72250      6.88992      8.61235        -0.000000     -0.000000     -0.000000
      1.72250      8.61235      6.88992        -0.000000      0.000000      0.000000
      3.44493      6.88992      6.88992         0.000000     -0.000000     -0.000000
      3.44493      8.61235      8.61235         0.000000     -0.000000     -0.000000
      5.16742      6.88992      8.61235         0.000000      0.000000      0.000000
      5.16742      8.61235      6.88992         0.000000     -0.000000     -0.000000
      6.88992      6.88992      6.88992        -0.000000      0.000000     -0.000000
      6.88992      8.61235      8.61235        -0.000000      0.000000     -0.000000
      8.61235      6.88992      8.61235         0.000000     -0.000000     -0.000000
      8.61235      8.61235      6.88992        -0.000000     -0.000000      0.000000
 -----------------------------------------------------------------------------------
    total drift:                                0.000000      0.000000     -0.000000


--------------------------------------------------------------------------------------------------------



  FREE ENERGIE OF THE ION-ELECTRON SYSTEM (eV)
  ---------------------------------------------------
  free  energy   TOTEN  =      -879.60734403 eV

  energy  without entropy=     -879.64410238  energy(sigma->0) =     -879.61959681
 


--------------------------------------------------------------------------------------------------------


    POTLOK:  cpu time    0.3578: real time    0.3578


--------------------------------------------------------------------------------------------------------




--------------------------------------------------------------------------------------------------------


  
 reached required accuracy - stopping structural energy minimisation
     LOOP+:  cpu time 1313.8832: real time 1314.2298
    4ORBIT:  cpu time    0.0000: real time    0.0000

 total amount of memory used by VASP MPI-rank0   190286. kBytes
=======================================================================

   base      :      30000. kBytes
   nonlr-proj:      31400. kBytes
   fftplans  :      15431. kBytes
   grid      :      21835. kBytes
   one-center:        419. kBytes
   wavefun   :      91201. kBytes
 
  
  
 General timing and accounting informations for this job:
 ========================================================
  
                  Total CPU time used (sec):     1322.005
                            User time (sec):     1320.083
                          System time (sec):        1.922
                         Elapsed time (sec):     1322.337
  
                   Maximum memory used (kb):      239976.
                   Average memory used (kb):           0.
  
                          Minor page faults:       194086
                          Major page faults:            2
                 Voluntary context switches:          374
