<?xml version="1.0" encoding="ISO-8859-1"?>
<modeling>
 <generator>
  <i name="program" type="string">vasp </i>
  <i name="version" type="string">5.4.4.18Apr17-6-g9f103f2a35  </i>
  <i name="subversion" type="string">(build Aug 17 2017 06:00:38) complex            parallel </i>
  <i name="platform" type="string">LinuxIFC </i>
  <i name="date" type="string">2019 07 13 </i>
  <i name="time" type="string">00:34:48 </i>
 </generator>
 <incar>
  <i type="string" name="SYSTEM">Opt</i>
  <i type="int" name="ISTART">     0</i>
  <i type="string" name="PREC">normal</i>
  <i type="string" name="ALGO"> Fast</i>
  <i type="int" name="ISPIN">     1</i>
  <i type="int" name="ICHARG">     2</i>
  <i type="int" name="NELM">   400</i>
  <i type="int" name="IBRION">     2</i>
  <i name="EDIFF">      0.00000100</i>
  <i name="EDIFFG">     -0.01000000</i>
  <i type="int" name="NSW">   100</i>
  <i type="int" name="ISIF">     3</i>
  <i name="ENCUT">    400.00000000</i>
  <i type="int" name="NGX">    72</i>
  <i type="int" name="NGY">    72</i>
  <i type="int" name="NGZ">    72</i>
  <i name="POTIM">      0.50000000</i>
  <i type="string" name="LREAL">Auto</i>
  <i type="logical" name="LWAVE"> F  </i>
  <i type="logical" name="LCHARG"> F  </i>
  <v type="int" name="KPOINT_BSE">    -1     0     0     0</v>
  <i type="int" name="NELM">   400</i>
 </incar>
 <structure name="primitive_cell" >
  <crystal>
   <varray name="basis" >
    <v>       3.44492529       0.00000000       0.00000000 </v>
    <v>       0.00000000       3.44492529       0.00000000 </v>
    <v>       0.00000000       0.00000000       3.44492524 </v>
   </varray>
   <i name="volume">     40.88268566 </i>
   <varray name="rec_basis" >
    <v>       0.29028206       0.00000000       0.00000000 </v>
    <v>       0.00000000       0.29028206       0.00000000 </v>
    <v>       0.00000000       0.00000000       0.29028206 </v>
   </varray>
  </crystal>
  <varray name="positions" >
   <v>       0.00000000       0.00000000       0.00000000 </v>
   <v>       0.00000000      -0.49998976      -0.49998975 </v>
   <v>      -0.49998976       0.00000000      -0.49998975 </v>
   <v>      -0.49998976      -0.49998976       0.00000000 </v>
  </varray>
 </structure>
 <varray name="primitive_index" >
  <v type="int" >        1 </v>
  <v type="int" >        2 </v>
  <v type="int" >        3 </v>
  <v type="int" >        4 </v>
 </varray>
 <kpoints>
  <generation param="Monkhorst-Pack">
   <v type="int" name="divisions">       3        3        3 </v>
   <v name="usershift">      0.00000000       0.00000000       0.00000000 </v>
   <v name="genvec1">      0.33333333       0.00000000       0.00000000 </v>
   <v name="genvec2">      0.00000000       0.33333333       0.00000000 </v>
   <v name="genvec3">      0.00000000       0.00000000       0.33333333 </v>
   <v name="shift">      0.00000000       0.00000000       0.00000000 </v>
  </generation>
  <varray name="kpointlist" >
   <v>       0.00000000       0.00000000       0.00000000 </v>
   <v>       0.33333333       0.00000000       0.00000000 </v>
   <v>       0.33333333       0.33333333       0.00000000 </v>
   <v>       0.33333333       0.33333333       0.33333333 </v>
  </varray>
  <varray name="weights" >
   <v>       0.03703704 </v>
   <v>       0.22222222 </v>
   <v>       0.44444444 </v>
   <v>       0.29629630 </v>
  </varray>
 </kpoints>
 <parameters>
  <separator name="general" >
   <i type="string" name="SYSTEM">Opt</i>
   <i type="logical" name="LCOMPAT"> F  </i>
  </separator>
  <separator name="electronic" >
   <i type="string" name="PREC">normal</i>
   <i name="ENMAX">    400.00000000</i>
   <i name="ENAUG">    511.36800000</i>
   <i name="EDIFF">      0.00000100</i>
   <i type="int" name="IALGO">    68</i>
   <i type="int" name="IWAVPR">    11</i>
   <i type="int" name="NBANDS">   518</i>
   <i name="NELECT">    864.00000000</i>
   <i type="int" name="TURBO">     0</i>
   <i type="int" name="IRESTART">     0</i>
   <i type="int" name="NREBOOT">     0</i>
   <i type="int" name="NMIN">     0</i>
   <i name="EREF">      0.00000000</i>
   <separator name="electronic smearing" >
    <i type="int" name="ISMEAR">     1</i>
    <i name="SIGMA">      0.20000000</i>
    <i name="KSPACING">      0.50000000</i>
    <i type="logical" name="KGAMMA"> T  </i>
   </separator>
   <separator name="electronic projectors" >
    <i type="logical" name="LREAL"> T  </i>
    <v name="ROPT">     -0.00050000</v>
    <i type="int" name="LMAXPAW">  -100</i>
    <i type="int" name="LMAXMIX">     2</i>
    <i type="logical" name="NLSPLINE"> F  </i>
   </separator>
   <separator name="electronic startup" >
    <i type="int" name="ISTART">     0</i>
    <i type="int" name="ICHARG">     2</i>
    <i type="int" name="INIWAV">     1</i>
   </separator>
   <separator name="electronic spin" >
    <i type="int" name="ISPIN">     1</i>
    <i type="logical" name="LNONCOLLINEAR"> F  </i>
    <v name="MAGMOM">      1.00000000      1.00000000      1.00000000      1.00000000      1.00000000      1.00000000      1.00000000      1.00000000      1.00000000      1.00000000      1.00000000      1.00000000      1.00000000      1.00000000      1.00000000      1.00000000      1.00000000      1.00000000      1.00000000      1.00000000
      1.00000000      1.00000000      1.00000000      1.00000000      1.00000000      1.00000000      1.00000000      1.00000000      1.00000000      1.00000000      1.00000000      1.00000000      1.00000000      1.00000000      1.00000000      1.00000000      1.00000000      1.00000000      1.00000000      1.00000000
      1.00000000      1.00000000      1.00000000      1.00000000      1.00000000      1.00000000      1.00000000      1.00000000      1.00000000      1.00000000      1.00000000      1.00000000      1.00000000      1.00000000      1.00000000      1.00000000      1.00000000      1.00000000      1.00000000      1.00000000
      1.00000000      1.00000000      1.00000000      1.00000000      1.00000000      1.00000000      1.00000000      1.00000000      1.00000000      1.00000000      1.00000000      1.00000000      1.00000000      1.00000000      1.00000000      1.00000000      1.00000000      1.00000000      1.00000000      1.00000000
      1.00000000      1.00000000      1.00000000      1.00000000      1.00000000      1.00000000      1.00000000      1.00000000      1.00000000      1.00000000      1.00000000      1.00000000      1.00000000      1.00000000      1.00000000      1.00000000      1.00000000      1.00000000      1.00000000      1.00000000
      1.00000000      1.00000000      1.00000000      1.00000000      1.00000000      1.00000000      1.00000000      1.00000000</v>
    <i name="NUPDOWN">     -1.00000000</i>
    <i type="logical" name="LSORBIT"> F  </i>
    <v name="SAXIS">      0.00000000      0.00000000      1.00000000</v>
    <i type="logical" name="LSPIRAL"> F  </i>
    <v name="QSPIRAL">      0.00000000      0.00000000      0.00000000</v>
    <i type="logical" name="LZEROZ"> F  </i>
   </separator>
   <separator name="electronic exchange-correlation" >
    <i type="logical" name="LASPH"> F  </i>
    <i type="logical" name="LMETAGGA"> F  </i>
   </separator>
   <separator name="electronic convergence" >
    <i type="int" name="NELM">   400</i>
    <i type="int" name="NELMDL">    -5</i>
    <i type="int" name="NELMIN">     2</i>
    <i name="ENINI">    400.00000000</i>
    <separator name="electronic convergence detail" >
     <i type="logical" name="LDIAG"> T  </i>
     <i type="logical" name="LSUBROT"> F  </i>
     <i name="WEIMIN">      0.00100000</i>
     <i name="EBREAK">      0.00000000</i>
     <i name="DEPER">      0.30000000</i>
     <i type="int" name="NRMM">     4</i>
     <i name="TIME">      0.40000000</i>
    </separator>
   </separator>
   <separator name="electronic mixer" >
    <i name="AMIX">      0.40000000</i>
    <i name="BMIX">      1.00000000</i>
    <i name="AMIN">      0.10000000</i>
    <i name="AMIX_MAG">      1.60000000</i>
    <i name="BMIX_MAG">      1.00000000</i>
    <separator name="electronic mixer details" >
     <i type="int" name="IMIX">     4</i>
     <i type="logical" name="MIXFIRST"> F  </i>
     <i type="int" name="MAXMIX">   -45</i>
     <i name="WC">    100.00000000</i>
     <i type="int" name="INIMIX">     1</i>
     <i type="int" name="MIXPRE">     1</i>
     <i type="int" name="MREMOVE">     5</i>
    </separator>
   </separator>
   <separator name="electronic dipolcorrection" >
    <i type="logical" name="LDIPOL"> F  </i>
    <i type="logical" name="LMONO"> F  </i>
    <i type="int" name="IDIPOL">     0</i>
    <i name="EPSILON">      1.00000000</i>
    <v name="DIPOL">   -100.00000000   -100.00000000   -100.00000000</v>
    <i name="EFIELD">      0.00000000</i>
   </separator>
  </separator>
  <separator name="grids" >
   <i type="int" name="NGX">    72</i>
   <i type="int" name="NGY">    72</i>
   <i type="int" name="NGZ">    72</i>
   <i type="int" name="NGXF">   144</i>
   <i type="int" name="NGYF">   144</i>
   <i type="int" name="NGZF">   144</i>
   <i type="logical" name="ADDGRID"> F  </i>
  </separator>
  <separator name="ionic" >
   <i type="int" name="NSW">   100</i>
   <i type="int" name="IBRION">     2</i>
   <i type="int" name="MDALGO">     0</i>
   <i type="int" name="ISIF">     3</i>
   <i name="PSTRESS">      0.00000000</i>
   <i name="EDIFFG">     -0.01000000</i>
   <i type="int" name="NFREE">     1</i>
   <i name="POTIM">      0.50000000</i>
   <i name="SMASS">     -3.00000000</i>
   <i name="SCALEE">      1.00000000</i>
  </separator>
  <separator name="ionic md" >
   <i name="TEBEG">      0.00010000</i>
   <i name="TEEND">      0.00010000</i>
   <i type="int" name="NBLOCK">     1</i>
   <i type="int" name="KBLOCK">   100</i>
   <i type="int" name="NPACO">   256</i>
   <i name="APACO">     16.00000000</i>
  </separator>
  <separator name="symmetry" >
   <i type="int" name="ISYM">     2</i>
   <i name="SYMPREC">      0.00001000</i>
  </separator>
  <separator name="dos" >
   <i type="int" name="LORBIT">     0</i>
   <v name="RWIGS">     -1.00000000</v>
   <i type="int" name="NEDOS">   301</i>
   <i name="EMIN">     10.00000000</i>
   <i name="EMAX">    -10.00000000</i>
   <i name="EFERMI">      0.00000000</i>
  </separator>
  <separator name="writing" >
   <i type="int" name="NWRITE">     2</i>
   <i type="logical" name="LWAVE"> F  </i>
   <i type="logical" name="LDOWNSAMPLE"> F  </i>
   <i type="logical" name="LCHARG"> F  </i>
   <i type="logical" name="LPARD"> F  </i>
   <i type="logical" name="LVTOT"> F  </i>
   <i type="logical" name="LVHAR"> F  </i>
   <i type="logical" name="LELF"> F  </i>
   <i type="logical" name="LOPTICS"> F  </i>
   <v name="STM">      0.00000000      0.00000000      0.00000000      0.00000000      0.00000000      0.00000000      0.00000000</v>
  </separator>
  <separator name="performance" >
   <i type="int" name="NPAR">     2</i>
   <i type="int" name="NSIM">     4</i>
   <i type="int" name="NBLK">    -1</i>
   <i type="logical" name="LPLANE"> T  </i>
   <i type="logical" name="LSCALAPACK"> T  </i>
   <i type="logical" name="LSCAAWARE"> F  </i>
   <i type="logical" name="LSCALU"> F  </i>
   <i type="logical" name="LASYNC"> F  </i>
   <i type="logical" name="LORBITALREAL"> F  </i>
  </separator>
  <separator name="miscellaneous" >
   <i type="int" name="IDIOT">     3</i>
   <i type="int" name="ISPECIAL">     0</i>
   <i type="logical" name="LMUSIC"> F  </i>
   <v name="POMASS">     55.84700000</v>
   <v name="DARWINR">      0.00000000</v>
   <v name="DARWINV">      1.00000000</v>
   <i type="logical" name="LCORR"> T  </i>
  </separator>
  <i type="logical" name="GGA_COMPAT"> T  </i>
  <i type="logical" name="LBERRY"> F  </i>
  <i type="int" name="ICORELEVEL">     0</i>
  <i type="logical" name="LDAU"> F  </i>
  <i type="int" name="I_CONSTRAINED_M">     0</i>
  <separator name="electronic exchange-correlation" >
   <i type="string" name="GGA">--</i>
   <i type="int" name="VOSKOWN">     0</i>
   <i type="logical" name="LHFCALC"> F  </i>
   <i type="string" name="PRECFOCK"></i>
   <i type="logical" name="LSYMGRAD"> F  </i>
   <i type="logical" name="LHFONE"> F  </i>
   <i type="logical" name="LRHFCALC"> F  </i>
   <i type="logical" name="LTHOMAS"> F  </i>
   <i type="logical" name="LMODELHF"> F  </i>
   <i name="ENCUT4O">     -1.00000000</i>
   <i type="int" name="EXXOEP">     0</i>
   <i type="int" name="FOURORBIT">     0</i>
   <i name="AEXX">      0.00000000</i>
   <i name="HFALPHA">      0.00000000</i>
   <i name="MCALPHA">      0.00000000</i>
   <i name="ALDAX">      1.00000000</i>
   <i name="AGGAX">      1.00000000</i>
   <i name="ALDAC">      1.00000000</i>
   <i name="AGGAC">      1.00000000</i>
   <i type="int" name="NKREDX">     1</i>
   <i type="int" name="NKREDY">     1</i>
   <i type="int" name="NKREDZ">     1</i>
   <i type="logical" name="SHIFTRED"> F  </i>
   <i type="logical" name="ODDONLY"> F  </i>
   <i type="logical" name="EVENONLY"> F  </i>
   <i type="int" name="LMAXFOCK">     0</i>
   <i type="int" name="NMAXFOCKAE">     0</i>
   <i type="logical" name="LFOCKAEDFT"> F  </i>
   <i name="HFSCREEN">      0.00000000</i>
   <i name="HFSCREENC">      0.00000000</i>
   <i type="int" name="NBANDSGWLOW">     0</i>
  </separator>
  <separator name="vdW DFT" >
   <i type="logical" name="LUSE_VDW"> F  </i>
   <i name="Zab_VDW">     -0.84910000</i>
   <i name="PARAM1">      0.12340000</i>
   <i name="PARAM2">      1.00000000</i>
   <i name="PARAM3">      0.00000000</i>
  </separator>
  <separator name="model GW" >
   <i type="int" name="MODEL_GW">     0</i>
   <i name="MODEL_EPS0">      6.13252964</i>
   <i name="MODEL_ALPHA">      1.00000000</i>
  </separator>
  <separator name="linear response parameters" >
   <i type="logical" name="LEPSILON"> F  </i>
   <i type="logical" name="LRPA"> F  </i>
   <i type="logical" name="LNABLA"> F  </i>
   <i type="logical" name="LVEL"> F  </i>
   <i type="int" name="KINTER">     0</i>
   <i name="CSHIFT">      0.10000000</i>
   <i name="OMEGAMAX">     -1.00000000</i>
   <i name="DEG_THRESHOLD">      0.00200000</i>
   <i name="RTIME">     -0.10000000</i>
   <i name="WPLASMAI">      0.00000000</i>
   <v name="DFIELD">      0.00000000      0.00000000      0.00000000</v>
   <v name="WPLASMA">      0.00000000      0.00000000      0.00000000      0.00000000      0.00000000      0.00000000      0.00000000      0.00000000      0.00000000</v>
  </separator>
  <separator name="orbital magnetization" >
   <i type="logical" name="NUCIND"> F  </i>
   <v name="MAGPOS">      0.00000000      0.00000000      0.00000000</v>
   <i type="logical" name="LNICSALL"> T  </i>
   <i type="logical" name="ORBITALMAG"> F  </i>
   <i type="logical" name="LMAGBLOCH"> F  </i>
   <i type="logical" name="LCHIMAG"> F  </i>
   <i type="logical" name="LGAUGE"> T  </i>
   <i type="int" name="MAGATOM">     0</i>
   <v name="MAGDIPOL">      0.00000000      0.00000000      0.00000000</v>
   <v name="AVECCONST">      0.00000000      0.00000000      0.00000000</v>
  </separator>
  <separator name="response functions" >
   <i type="logical" name="LADDER"> F  </i>
   <i type="logical" name="LRPAFORCE"> F  </i>
   <i type="logical" name="LFXC"> F  </i>
   <i type="logical" name="LHARTREE"> T  </i>
   <i type="int" name="IBSE">     0</i>
   <v type="int" name="KPOINT">    -1     0     0     0</v>
   <i type="logical" name="LTCTE"> F  </i>
   <i type="logical" name="LTETE"> F  </i>
   <i type="logical" name="LTRIPLET"> F  </i>
   <i type="logical" name="LFXCEPS"> F  </i>
   <i type="logical" name="LFXHEG"> F  </i>
   <i type="int" name="NATURALO">     2</i>
   <i type="logical" name="L2ORDER"> F  </i>
   <i type="logical" name="LMP2LT"> F  </i>
   <i type="logical" name="LUSEW"> F  </i>
   <i name="ENCUTGW">     -2.00000000</i>
   <i name="ENCUTGWSOFT">     -2.00000000</i>
   <i name="ENCUTLF">     -1.00000000</i>
   <i type="int" name="LMAXMP2">    -1</i>
   <i name="SCISSOR">      0.00000000</i>
   <i type="int" name="NOMEGA">     0</i>
   <i type="int" name="NOMEGAR">     0</i>
   <i type="int" name="NBANDSGW">    -1</i>
   <i type="int" name="NBANDSO">    -1</i>
   <i type="int" name="NBANDSV">    -1</i>
   <i type="int" name="NELM">   400</i>
   <i type="int" name="NELMHF">     1</i>
   <i type="int" name="DIM">     3</i>
   <i type="int" name="ANTIRES">     0</i>
   <i name="OMEGAMAX">    -30.00000000</i>
   <i name="OMEGAMIN">    -30.00000000</i>
   <i name="OMEGATL">   -200.00000000</i>
   <i type="int" name="OMEGAGRID">   140</i>
   <i name="CSHIFT">     -0.10000000</i>
   <i type="logical" name="SELFENERGY"> F  </i>
   <i type="logical" name="LSPECTRAL"> F  </i>
   <i type="logical" name="LSPECTRALGW"> F  </i>
   <i type="logical" name="LSINGLES"> F  </i>
   <i type="logical" name="LFERMIGW"> F  </i>
   <i type="logical" name="ODDONLYGW"> F  </i>
   <i type="logical" name="EVENONLYGW"> F  </i>
   <i type="int" name="NKREDLFX">     1</i>
   <i type="int" name="NKREDLFY">     1</i>
   <i type="int" name="NKREDLFZ">     1</i>
   <i type="int" name="MAXMEM">  2800</i>
   <i type="int" name="TELESCOPE">     0</i>
   <i type="int" name="TAUPAR">     1</i>
   <i type="int" name="OMEGAPAR">    -1</i>
   <i name="LAMBDA">      1.00000000</i>
  </separator>
  <separator name="External order field" >
   <i name="OFIELD_KAPPA">      0.00000000</i>
   <v name="OFIELD_K">      0.00000000      0.00000000      0.00000000</v>
   <i name="OFIELD_Q6_NEAR">      0.00000000</i>
   <i name="OFIELD_Q6_FAR">      0.00000000</i>
   <i name="OFIELD_A">      0.00000000</i>
  </separator>
 </parameters>
 <atominfo>
  <atoms>     108 </atoms>
  <types>       1 </types>
  <array name="atoms" >
   <dimension dim="1">ion</dimension>
   <field type="string">element</field>
   <field type="int">atomtype</field>
   <set>
    <rc><c>Fe</c><c>   1</c></rc>
    <rc><c>Fe</c><c>   1</c></rc>
    <rc><c>Fe</c><c>   1</c></rc>
    <rc><c>Fe</c><c>   1</c></rc>
    <rc><c>Fe</c><c>   1</c></rc>
    <rc><c>Fe</c><c>   1</c></rc>
    <rc><c>Fe</c><c>   1</c></rc>
    <rc><c>Fe</c><c>   1</c></rc>
    <rc><c>Fe</c><c>   1</c></rc>
    <rc><c>Fe</c><c>   1</c></rc>
    <rc><c>Fe</c><c>   1</c></rc>
    <rc><c>Fe</c><c>   1</c></rc>
    <rc><c>Fe</c><c>   1</c></rc>
    <rc><c>Fe</c><c>   1</c></rc>
    <rc><c>Fe</c><c>   1</c></rc>
    <rc><c>Fe</c><c>   1</c></rc>
    <rc><c>Fe</c><c>   1</c></rc>
    <rc><c>Fe</c><c>   1</c></rc>
    <rc><c>Fe</c><c>   1</c></rc>
    <rc><c>Fe</c><c>   1</c></rc>
    <rc><c>Fe</c><c>   1</c></rc>
    <rc><c>Fe</c><c>   1</c></rc>
    <rc><c>Fe</c><c>   1</c></rc>
    <rc><c>Fe</c><c>   1</c></rc>
    <rc><c>Fe</c><c>   1</c></rc>
    <rc><c>Fe</c><c>   1</c></rc>
    <rc><c>Fe</c><c>   1</c></rc>
    <rc><c>Fe</c><c>   1</c></rc>
    <rc><c>Fe</c><c>   1</c></rc>
    <rc><c>Fe</c><c>   1</c></rc>
    <rc><c>Fe</c><c>   1</c></rc>
    <rc><c>Fe</c><c>   1</c></rc>
    <rc><c>Fe</c><c>   1</c></rc>
    <rc><c>Fe</c><c>   1</c></rc>
    <rc><c>Fe</c><c>   1</c></rc>
    <rc><c>Fe</c><c>   1</c></rc>
    <rc><c>Fe</c><c>   1</c></rc>
    <rc><c>Fe</c><c>   1</c></rc>
    <rc><c>Fe</c><c>   1</c></rc>
    <rc><c>Fe</c><c>   1</c></rc>
    <rc><c>Fe</c><c>   1</c></rc>
    <rc><c>Fe</c><c>   1</c></rc>
    <rc><c>Fe</c><c>   1</c></rc>
    <rc><c>Fe</c><c>   1</c></rc>
    <rc><c>Fe</c><c>   1</c></rc>
    <rc><c>Fe</c><c>   1</c></rc>
    <rc><c>Fe</c><c>   1</c></rc>
    <rc><c>Fe</c><c>   1</c></rc>
    <rc><c>Fe</c><c>   1</c></rc>
    <rc><c>Fe</c><c>   1</c></rc>
    <rc><c>Fe</c><c>   1</c></rc>
    <rc><c>Fe</c><c>   1</c></rc>
    <rc><c>Fe</c><c>   1</c></rc>
    <rc><c>Fe</c><c>   1</c></rc>
    <rc><c>Fe</c><c>   1</c></rc>
    <rc><c>Fe</c><c>   1</c></rc>
    <rc><c>Fe</c><c>   1</c></rc>
    <rc><c>Fe</c><c>   1</c></rc>
    <rc><c>Fe</c><c>   1</c></rc>
    <rc><c>Fe</c><c>   1</c></rc>
    <rc><c>Fe</c><c>   1</c></rc>
    <rc><c>Fe</c><c>   1</c></rc>
    <rc><c>Fe</c><c>   1</c></rc>
    <rc><c>Fe</c><c>   1</c></rc>
    <rc><c>Fe</c><c>   1</c></rc>
    <rc><c>Fe</c><c>   1</c></rc>
    <rc><c>Fe</c><c>   1</c></rc>
    <rc><c>Fe</c><c>   1</c></rc>
    <rc><c>Fe</c><c>   1</c></rc>
    <rc><c>Fe</c><c>   1</c></rc>
    <rc><c>Fe</c><c>   1</c></rc>
    <rc><c>Fe</c><c>   1</c></rc>
    <rc><c>Fe</c><c>   1</c></rc>
    <rc><c>Fe</c><c>   1</c></rc>
    <rc><c>Fe</c><c>   1</c></rc>
    <rc><c>Fe</c><c>   1</c></rc>
    <rc><c>Fe</c><c>   1</c></rc>
    <rc><c>Fe</c><c>   1</c></rc>
    <rc><c>Fe</c><c>   1</c></rc>
    <rc><c>Fe</c><c>   1</c></rc>
    <rc><c>Fe</c><c>   1</c></rc>
    <rc><c>Fe</c><c>   1</c></rc>
    <rc><c>Fe</c><c>   1</c></rc>
    <rc><c>Fe</c><c>   1</c></rc>
    <rc><c>Fe</c><c>   1</c></rc>
    <rc><c>Fe</c><c>   1</c></rc>
    <rc><c>Fe</c><c>   1</c></rc>
    <rc><c>Fe</c><c>   1</c></rc>
    <rc><c>Fe</c><c>   1</c></rc>
    <rc><c>Fe</c><c>   1</c></rc>
    <rc><c>Fe</c><c>   1</c></rc>
    <rc><c>Fe</c><c>   1</c></rc>
    <rc><c>Fe</c><c>   1</c></rc>
    <rc><c>Fe</c><c>   1</c></rc>
    <rc><c>Fe</c><c>   1</c></rc>
    <rc><c>Fe</c><c>   1</c></rc>
    <rc><c>Fe</c><c>   1</c></rc>
    <rc><c>Fe</c><c>   1</c></rc>
    <rc><c>Fe</c><c>   1</c></rc>
    <rc><c>Fe</c><c>   1</c></rc>
    <rc><c>Fe</c><c>   1</c></rc>
    <rc><c>Fe</c><c>   1</c></rc>
    <rc><c>Fe</c><c>   1</c></rc>
    <rc><c>Fe</c><c>   1</c></rc>
    <rc><c>Fe</c><c>   1</c></rc>
    <rc><c>Fe</c><c>   1</c></rc>
    <rc><c>Fe</c><c>   1</c></rc>
    <rc><c>Fe</c><c>   1</c></rc>
   </set>
  </array>
  <array name="atomtypes" >
   <dimension dim="1">type</dimension>
   <field type="int">atomspertype</field>
   <field type="string">element</field>
   <field>mass</field>
   <field>valence</field>
   <field type="string">pseudopotential</field>
   <set>
    <rc><c> 108</c><c>Fe</c><c>     55.84700000</c><c>      8.00000000</c><c> PAW_PBE Fe 06Sep2000                   </c></rc>
   </set>
  </array>
 </atominfo>
 <structure name="initialpos" >
  <crystal>
   <varray name="basis" >
    <v>      10.33484705       0.00000000       0.00000000 </v>
    <v>       0.00000000      10.33484705       0.00000000 </v>
    <v>       0.00000000       0.00000000      10.33484705 </v>
   </varray>
   <i name="volume">   1103.85533447 </i>
   <varray name="rec_basis" >
    <v>       0.09676002       0.00000000       0.00000000 </v>
    <v>       0.00000000       0.09676002       0.00000000 </v>
    <v>       0.00000000       0.00000000       0.09676002 </v>
   </varray>
  </crystal>
  <varray name="positions" >
   <v>       0.00000000       0.00000000       0.00000000 </v>
   <v>       0.00000000       0.16666893       0.16666893 </v>
   <v>       0.16666893       0.00000000       0.16666893 </v>
   <v>       0.16666893       0.16666893       0.00000000 </v>
   <v>       0.33333106       0.00000000       0.00000000 </v>
   <v>       0.33333107       0.16666893       0.16666893 </v>
   <v>       0.50000000       0.00000000       0.16666894 </v>
   <v>       0.50000000       0.16666894       0.00000000 </v>
   <v>       0.66666897       0.00000000       0.00000000 </v>
   <v>       0.66666896       0.16666893       0.16666893 </v>
   <v>       0.83333104       0.00000000       0.16666893 </v>
   <v>       0.83333104       0.16666893       0.00000000 </v>
   <v>       0.00000000       0.33333106       0.00000000 </v>
   <v>       0.00000000       0.50000000       0.16666894 </v>
   <v>       0.16666893       0.33333107       0.16666893 </v>
   <v>       0.16666894       0.50000000       0.00000000 </v>
   <v>       0.33333107       0.33333107       0.00000000 </v>
   <v>       0.33333107       0.50000000       0.16666893 </v>
   <v>       0.50000000       0.33333107       0.16666893 </v>
   <v>       0.50000000       0.50000000       0.00000000 </v>
   <v>       0.66666896       0.33333107       0.00000000 </v>
   <v>       0.66666896       0.50000000       0.16666893 </v>
   <v>       0.83333104       0.33333107       0.16666893 </v>
   <v>       0.83333103       0.50000000       0.00000000 </v>
   <v>       0.00000000       0.66666897       0.00000000 </v>
   <v>       0.00000000       0.83333104       0.16666893 </v>
   <v>       0.16666893       0.66666896       0.16666893 </v>
   <v>       0.16666893       0.83333104       0.00000000 </v>
   <v>       0.33333107       0.66666896       0.00000000 </v>
   <v>       0.33333107       0.83333104       0.16666893 </v>
   <v>       0.50000000       0.66666896       0.16666893 </v>
   <v>       0.50000000       0.83333103       0.00000000 </v>
   <v>       0.66666896       0.66666896       0.00000000 </v>
   <v>       0.66666896       0.83333104       0.16666893 </v>
   <v>       0.83333104       0.66666896       0.16666893 </v>
   <v>       0.83333104       0.83333104       0.00000000 </v>
   <v>       0.00000000       0.00000000       0.33333106 </v>
   <v>       0.00000000       0.16666894       0.50000000 </v>
   <v>       0.16666894       0.00000000       0.50000000 </v>
   <v>       0.16666893       0.16666893       0.33333107 </v>
   <v>       0.33333107       0.00000000       0.33333107 </v>
   <v>       0.33333107       0.16666893       0.50000000 </v>
   <v>       0.50000000       0.00000000       0.50000000 </v>
   <v>       0.50000000       0.16666893       0.33333107 </v>
   <v>       0.66666896       0.00000000       0.33333107 </v>
   <v>       0.66666896       0.16666893       0.50000000 </v>
   <v>       0.83333103       0.00000000       0.50000000 </v>
   <v>       0.83333104       0.16666893       0.33333107 </v>
   <v>       0.00000000       0.33333107       0.33333107 </v>
   <v>       0.00000000       0.50000000       0.50000000 </v>
   <v>       0.16666893       0.33333107       0.50000000 </v>
   <v>       0.16666893       0.50000000       0.33333107 </v>
   <v>       0.33333107       0.33333107       0.33333107 </v>
   <v>       0.33333106       0.50000000       0.50000000 </v>
   <v>       0.50000000       0.33333106       0.50000000 </v>
   <v>       0.50000000       0.50000000       0.33333106 </v>
   <v>       0.66666896       0.33333107       0.33333107 </v>
   <v>       0.66666897       0.50000000       0.50000000 </v>
   <v>       0.83333104       0.33333107       0.50000000 </v>
   <v>       0.83333104       0.50000000       0.33333107 </v>
   <v>       0.00000000       0.66666896       0.33333107 </v>
   <v>       0.00000000       0.83333103       0.50000000 </v>
   <v>       0.16666893       0.66666896       0.50000000 </v>
   <v>       0.16666893       0.83333104       0.33333107 </v>
   <v>       0.33333107       0.66666896       0.33333107 </v>
   <v>       0.33333107       0.83333104       0.50000000 </v>
   <v>       0.50000000       0.66666897       0.50000000 </v>
   <v>       0.50000000       0.83333104       0.33333107 </v>
   <v>       0.66666896       0.66666896       0.33333107 </v>
   <v>       0.66666896       0.83333104       0.50000000 </v>
   <v>       0.83333104       0.66666896       0.50000000 </v>
   <v>       0.83333104       0.83333104       0.33333107 </v>
   <v>       0.00000000       0.00000000       0.66666897 </v>
   <v>       0.00000000       0.16666893       0.83333104 </v>
   <v>       0.16666893       0.00000000       0.83333104 </v>
   <v>       0.16666893       0.16666893       0.66666896 </v>
   <v>       0.33333107       0.00000000       0.66666896 </v>
   <v>       0.33333107       0.16666893       0.83333104 </v>
   <v>       0.50000000       0.00000000       0.83333103 </v>
   <v>       0.50000000       0.16666893       0.66666896 </v>
   <v>       0.66666896       0.00000000       0.66666896 </v>
   <v>       0.66666896       0.16666893       0.83333104 </v>
   <v>       0.83333104       0.00000000       0.83333104 </v>
   <v>       0.83333104       0.16666893       0.66666896 </v>
   <v>       0.00000000       0.33333107       0.66666896 </v>
   <v>       0.00000000       0.50000000       0.83333103 </v>
   <v>       0.16666893       0.33333107       0.83333104 </v>
   <v>       0.16666893       0.50000000       0.66666896 </v>
   <v>       0.33333107       0.33333107       0.66666896 </v>
   <v>       0.33333107       0.50000000       0.83333104 </v>
   <v>       0.50000000       0.33333107       0.83333104 </v>
   <v>       0.50000000       0.50000000       0.66666897 </v>
   <v>       0.66666896       0.33333107       0.66666896 </v>
   <v>       0.66666896       0.50000000       0.83333104 </v>
   <v>       0.83333104       0.33333107       0.83333104 </v>
   <v>       0.83333104       0.50000000       0.66666896 </v>
   <v>       0.00000000       0.66666896       0.66666896 </v>
   <v>       0.00000000       0.83333104       0.83333104 </v>
   <v>       0.16666893       0.66666896       0.83333104 </v>
   <v>       0.16666893       0.83333104       0.66666896 </v>
   <v>       0.33333107       0.66666896       0.66666896 </v>
   <v>       0.33333107       0.83333104       0.83333104 </v>
   <v>       0.50000000       0.66666896       0.83333104 </v>
   <v>       0.50000000       0.83333104       0.66666896 </v>
   <v>       0.66666896       0.66666896       0.66666896 </v>
   <v>       0.66666896       0.83333104       0.83333104 </v>
   <v>       0.83333104       0.66666896       0.83333104 </v>
   <v>       0.83333104       0.83333104       0.66666896 </v>
  </varray>
 </structure>
 <calculation>
  <scstep>
   <time name="dav">   40.93   40.99</time>
   <time name="total">   41.28   41.34</time>
   <energy>
    <i name="alphaZ">   7300.31925852 </i>
    <i name="ewald"> -66232.83996889 </i>
    <i name="hartreedc"> -11197.02572337 </i>
    <i name="XCdc">    446.63038354 </i>
    <i name="pawpsdc">  51723.88885462 </i>
    <i name="pawaedc"> -52548.28121372 </i>
    <i name="eentropy">     -0.00666309 </i>
    <i name="bandstr">  13904.97866386 </i>
    <i name="atom">  64201.67088057 </i>
    <i name="e_fr_energy">   7599.33447205 </i>
    <i name="e_wo_entrp">   7599.34113514 </i>
    <i name="e_0_energy">   7599.33669308 </i>
   </energy>
  </scstep>
  <scstep>
   <time name="dav">   41.29   41.31</time>
   <time name="total">   41.29   41.32</time>
   <energy>
    <i name="e_fr_energy">    -23.23228421 </i>
    <i name="e_wo_entrp">    -23.22171727 </i>
    <i name="e_0_energy">    -23.22876190 </i>
   </energy>
  </scstep>
  <scstep>
   <time name="dav">   41.14   41.16</time>
   <time name="total">   41.15   41.16</time>
   <energy>
    <i name="e_fr_energy">   -850.12035777 </i>
    <i name="e_wo_entrp">   -850.10630950 </i>
    <i name="e_0_energy">   -850.11567501 </i>
   </energy>
  </scstep>
  <scstep>
   <time name="dav">   66.80   66.83</time>
   <time name="total">   66.81   66.84</time>
   <energy>
    <i name="e_fr_energy">  -1029.99529342 </i>
    <i name="e_wo_entrp">  -1030.13355636 </i>
    <i name="e_0_energy">  -1030.04138107 </i>
   </energy>
  </scstep>
  <scstep>
   <time name="dav">   59.98   59.99</time>
   <time name="total">   62.10   62.12</time>
   <energy>
    <i name="e_fr_energy">  -1045.13688104 </i>
    <i name="e_wo_entrp">  -1045.29708560 </i>
    <i name="e_0_energy">  -1045.19028256 </i>
   </energy>
  </scstep>
  <scstep>
   <time name="diag">    5.14    5.14</time>
   <time name="diis">   25.39   25.40</time>
   <time name="orth">    0.97    0.97</time>
   <time name="total">   33.98   33.99</time>
   <energy>
    <i name="e_fr_energy">   -877.77090899 </i>
    <i name="e_wo_entrp">   -877.88051577 </i>
    <i name="e_0_energy">   -877.80744458 </i>
   </energy>
  </scstep>
  <scstep>
   <time name="diag">    5.15    5.15</time>
   <time name="diis">   27.40   27.42</time>
   <time name="orth">    0.97    0.97</time>
   <time name="total">   36.00   36.02</time>
   <energy>
    <i name="e_fr_energy">   -880.26280822 </i>
    <i name="e_wo_entrp">   -880.25229319 </i>
    <i name="e_0_energy">   -880.25930321 </i>
   </energy>
  </scstep>
  <scstep>
   <time name="diag">    5.19    5.19</time>
   <time name="diis">   26.88   26.88</time>
   <time name="orth">    0.97    0.97</time>
   <time name="total">   35.51   35.52</time>
   <energy>
    <i name="e_fr_energy">   -879.41602995 </i>
    <i name="e_wo_entrp">   -879.43868632 </i>
    <i name="e_0_energy">   -879.42358207 </i>
   </energy>
  </scstep>
  <scstep>
   <time name="diag">    5.21    5.21</time>
   <time name="diis">   34.13   34.15</time>
   <time name="orth">    0.99    0.99</time>
   <time name="total">   42.86   42.89</time>
   <energy>
    <i name="e_fr_energy">   -879.79385595 </i>
    <i name="e_wo_entrp">   -879.81214219 </i>
    <i name="e_0_energy">   -879.79995137 </i>
   </energy>
  </scstep>
  <scstep>
   <time name="diag">    5.28    5.28</time>
   <time name="diis">   29.63   29.64</time>
   <time name="orth">    0.97    0.97</time>
   <time name="total">   38.38   38.39</time>
   <energy>
    <i name="e_fr_energy">   -879.60079672 </i>
    <i name="e_wo_entrp">   -879.62749850 </i>
    <i name="e_0_energy">   -879.60969731 </i>
   </energy>
  </scstep>
  <scstep>
   <time name="diag">    5.22    5.22</time>
   <time name="diis">   31.65   31.65</time>
   <time name="orth">    1.01    1.01</time>
   <time name="total">   40.35   40.35</time>
   <energy>
    <i name="e_fr_energy">   -879.60781944 </i>
    <i name="e_wo_entrp">   -879.63805594 </i>
    <i name="e_0_energy">   -879.61789827 </i>
   </energy>
  </scstep>
  <scstep>
   <time name="diag">    5.06    5.06</time>
   <time name="diis">   30.61   30.61</time>
   <time name="orth">    0.97    0.97</time>
   <time name="total">   39.09   39.09</time>
   <energy>
    <i name="e_fr_energy">   -879.60698714 </i>
    <i name="e_wo_entrp">   -879.63921001 </i>
    <i name="e_0_energy">   -879.61772810 </i>
   </energy>
  </scstep>
  <scstep>
   <time name="diag">    5.16    5.16</time>
   <time name="diis">   36.37   36.38</time>
   <time name="orth">    0.99    0.99</time>
   <time name="total">   45.05   45.06</time>
   <energy>
    <i name="e_fr_energy">   -879.60766723 </i>
    <i name="e_wo_entrp">   -879.64120013 </i>
    <i name="e_0_energy">   -879.61884486 </i>
   </energy>
  </scstep>
  <scstep>
   <time name="diag">    5.21    5.21</time>
   <time name="diis">   29.30   29.31</time>
   <time name="orth">    0.99    0.99</time>
   <time name="total">   38.03   38.03</time>
   <energy>
    <i name="e_fr_energy">   -879.60783957 </i>
    <i name="e_wo_entrp">   -879.64197567 </i>
    <i name="e_0_energy">   -879.61921827 </i>
   </energy>
  </scstep>
  <scstep>
   <time name="diag">    5.26    5.27</time>
   <time name="diis">   28.62   28.63</time>
   <time name="orth">    1.01    1.01</time>
   <time name="total">   37.52   37.54</time>
   <energy>
    <i name="e_fr_energy">   -879.60752410 </i>
    <i name="e_wo_entrp">   -879.64215828 </i>
    <i name="e_0_energy">   -879.61906882 </i>
   </energy>
  </scstep>
  <scstep>
   <time name="diag">    4.97    4.97</time>
   <time name="diis">   30.91   30.91</time>
   <time name="orth">    0.99    0.99</time>
   <time name="total">   39.37   39.38</time>
   <energy>
    <i name="e_fr_energy">   -879.60746645 </i>
    <i name="e_wo_entrp">   -879.64244657 </i>
    <i name="e_0_energy">   -879.61912649 </i>
   </energy>
  </scstep>
  <scstep>
   <time name="diag">    5.38    5.38</time>
   <time name="diis">   36.79   36.79</time>
   <time name="orth">    1.02    1.02</time>
   <time name="total">   45.88   45.88</time>
   <energy>
    <i name="e_fr_energy">   -879.60746069 </i>
    <i name="e_wo_entrp">   -879.64264994 </i>
    <i name="e_0_energy">   -879.61919044 </i>
   </energy>
  </scstep>
  <scstep>
   <time name="diag">    5.43    5.43</time>
   <time name="diis">   19.48   19.48</time>
   <time name="orth">    1.02    1.02</time>
   <time name="total">   28.58   28.59</time>
   <energy>
    <i name="e_fr_energy">   -879.60744604 </i>
    <i name="e_wo_entrp">   -879.64283447 </i>
    <i name="e_0_energy">   -879.61924218 </i>
   </energy>
  </scstep>
  <scstep>
   <time name="diag">    5.10    5.10</time>
   <time name="diis">   18.07   18.08</time>
   <time name="orth">    1.02    1.02</time>
   <time name="total">   26.89   26.90</time>
   <energy>
    <i name="e_fr_energy">   -879.60743501 </i>
    <i name="e_wo_entrp">   -879.64295957 </i>
    <i name="e_0_energy">   -879.61927653 </i>
   </energy>
  </scstep>
  <scstep>
   <time name="diag">    5.14    5.14</time>
   <time name="diis">   17.70   17.70</time>
   <time name="orth">    1.02    1.02</time>
   <time name="total">   26.58   26.58</time>
   <energy>
    <i name="e_fr_energy">   -879.60741613 </i>
    <i name="e_wo_entrp">   -879.64316665 </i>
    <i name="e_0_energy">   -879.61933297 </i>
   </energy>
  </scstep>
  <scstep>
   <time name="diag">    5.12    5.12</time>
   <time name="diis">   17.42   17.42</time>
   <time name="orth">    1.02    1.02</time>
   <time name="total">   26.13   26.13</time>
   <energy>
    <i name="e_fr_energy">   -879.60740318 </i>
    <i name="e_wo_entrp">   -879.64331652 </i>
    <i name="e_0_energy">   -879.61937429 </i>
   </energy>
  </scstep>
  <scstep>
   <time name="diag">    4.80    4.80</time>
   <time name="diis">   16.17   16.17</time>
   <time name="orth">    1.03    1.03</time>
   <time name="total">   24.58   24.59</time>
   <energy>
    <i name="e_fr_energy">   -879.60739719 </i>
    <i name="e_wo_entrp">   -879.64339593 </i>
    <i name="e_0_energy">   -879.61939677 </i>
   </energy>
  </scstep>
  <scstep>
   <time name="diag">    5.14    5.14</time>
   <time name="diis">   16.56   16.56</time>
   <time name="orth">    1.02    1.02</time>
   <time name="total">   25.24   25.24</time>
   <energy>
    <i name="e_fr_energy">   -879.60738645 </i>
    <i name="e_wo_entrp">   -879.64352405 </i>
    <i name="e_0_energy">   -879.61943231 </i>
   </energy>
  </scstep>
  <scstep>
   <time name="diag">    5.21    5.21</time>
   <time name="diis">   16.48   16.48</time>
   <time name="orth">    1.00    1.00</time>
   <time name="total">   25.22   25.22</time>
   <energy>
    <i name="e_fr_energy">   -879.60738173 </i>
    <i name="e_wo_entrp">   -879.64358688 </i>
    <i name="e_0_energy">   -879.61945011 </i>
   </energy>
  </scstep>
  <scstep>
   <time name="diag">    5.34    5.34</time>
   <time name="diis">   14.73   14.73</time>
   <time name="orth">    1.01    1.01</time>
   <time name="total">   23.54   23.54</time>
   <energy>
    <i name="e_fr_energy">   -879.60737810 </i>
    <i name="e_wo_entrp">   -879.64363781 </i>
    <i name="e_0_energy">   -879.61946467 </i>
   </energy>
  </scstep>
  <scstep>
   <time name="diag">    5.17    5.17</time>
   <time name="diis">   14.61   14.61</time>
   <time name="orth">    0.99    0.99</time>
   <time name="total">   23.34   23.34</time>
   <energy>
    <i name="e_fr_energy">   -879.60737499 </i>
    <i name="e_wo_entrp">   -879.64368192 </i>
    <i name="e_0_energy">   -879.61947730 </i>
   </energy>
  </scstep>
  <scstep>
   <time name="diag">    5.31    5.31</time>
   <time name="diis">   14.52   14.53</time>
   <time name="orth">    0.97    0.97</time>
   <time name="total">   23.40   23.41</time>
   <energy>
    <i name="e_fr_energy">   -879.60737220 </i>
    <i name="e_wo_entrp">   -879.64372249 </i>
    <i name="e_0_energy">   -879.61948896 </i>
   </energy>
  </scstep>
  <scstep>
   <time name="diag">    5.30    5.30</time>
   <time name="diis">   14.04   14.04</time>
   <time name="orth">    0.98    0.98</time>
   <time name="total">   22.97   22.98</time>
   <energy>
    <i name="e_fr_energy">   -879.60736778 </i>
    <i name="e_wo_entrp">   -879.64377879 </i>
    <i name="e_0_energy">   -879.61950478 </i>
   </energy>
  </scstep>
  <scstep>
   <time name="diag">    5.32    5.32</time>
   <time name="diis">   13.70   13.70</time>
   <time name="orth">    1.00    1.00</time>
   <time name="total">   22.56   22.57</time>
   <energy>
    <i name="e_fr_energy">   -879.60736329 </i>
    <i name="e_wo_entrp">   -879.64383479 </i>
    <i name="e_0_energy">   -879.61952046 </i>
   </energy>
  </scstep>
  <scstep>
   <time name="diag">    5.07    5.07</time>
   <time name="diis">   12.79   12.79</time>
   <time name="orth">    1.02    1.02</time>
   <time name="total">   21.48   21.48</time>
   <energy>
    <i name="e_fr_energy">   -879.60736037 </i>
    <i name="e_wo_entrp">   -879.64387345 </i>
    <i name="e_0_energy">   -879.61953140 </i>
   </energy>
  </scstep>
  <scstep>
   <time name="diag">    5.34    5.34</time>
   <time name="diis">   13.11   13.11</time>
   <time name="orth">    1.02    1.02</time>
   <time name="total">   22.09   22.09</time>
   <energy>
    <i name="e_fr_energy">   -879.60735815 </i>
    <i name="e_wo_entrp">   -879.64390463 </i>
    <i name="e_0_energy">   -879.61954031 </i>
   </energy>
  </scstep>
  <scstep>
   <time name="diag">    5.33    5.33</time>
   <time name="diis">   12.86   12.86</time>
   <time name="orth">    1.01    1.01</time>
   <time name="total">   21.85   21.85</time>
   <energy>
    <i name="e_fr_energy">   -879.60735631 </i>
    <i name="e_wo_entrp">   -879.64393125 </i>
    <i name="e_0_energy">   -879.61954796 </i>
   </energy>
  </scstep>
  <scstep>
   <time name="diag">    5.37    5.37</time>
   <time name="diis">   12.69   12.70</time>
   <time name="orth">    1.01    1.01</time>
   <time name="total">   21.71   21.71</time>
   <energy>
    <i name="e_fr_energy">   -879.60735470 </i>
    <i name="e_wo_entrp">   -879.64395519 </i>
    <i name="e_0_energy">   -879.61955486 </i>
   </energy>
  </scstep>
  <scstep>
   <time name="diag">    5.36    5.36</time>
   <time name="diis">   12.19   12.19</time>
   <time name="orth">    1.00    1.00</time>
   <time name="total">   21.09   21.09</time>
   <energy>
    <i name="e_fr_energy">   -879.60735321 </i>
    <i name="e_wo_entrp">   -879.64397720 </i>
    <i name="e_0_energy">   -879.61956121 </i>
   </energy>
  </scstep>
  <scstep>
   <time name="diag">    5.20    5.20</time>
   <time name="diis">   11.97   11.97</time>
   <time name="orth">    1.02    1.02</time>
   <time name="total">   20.80   20.80</time>
   <energy>
    <i name="e_fr_energy">   -879.60735184 </i>
    <i name="e_wo_entrp">   -879.64399761 </i>
    <i name="e_0_energy">   -879.61956710 </i>
   </energy>
  </scstep>
  <scstep>
   <time name="diag">    5.33    5.33</time>
   <time name="diis">   12.17   12.17</time>
   <time name="orth">    1.02    1.02</time>
   <time name="total">   21.13   21.13</time>
   <energy>
    <i name="e_fr_energy">   -879.60735057 </i>
    <i name="e_wo_entrp">   -879.64401649 </i>
    <i name="e_0_energy">   -879.61957254 </i>
   </energy>
  </scstep>
  <scstep>
   <time name="diag">    5.33    5.33</time>
   <time name="diis">   12.15   12.15</time>
   <time name="orth">    1.03    1.03</time>
   <time name="total">   21.12   21.12</time>
   <energy>
    <i name="e_fr_energy">   -879.60734720 </i>
    <i name="e_wo_entrp">   -879.64405644 </i>
    <i name="e_0_energy">   -879.61958362 </i>
   </energy>
  </scstep>
  <scstep>
   <time name="diag">    5.32    5.32</time>
   <time name="diis">   12.13   12.13</time>
   <time name="orth">    1.02    1.02</time>
   <time name="total">   21.09   21.10</time>
   <energy>
    <i name="e_fr_energy">   -879.60734592 </i>
    <i name="e_wo_entrp">   -879.64407433 </i>
    <i name="e_0_energy">   -879.61958872 </i>
   </energy>
  </scstep>
  <scstep>
   <time name="diag">    5.32    5.32</time>
   <time name="diis">   11.92   11.92</time>
   <time name="orth">    1.04    1.04</time>
   <time name="total">   20.81   20.81</time>
   <energy>
    <i name="e_fr_energy">   -879.60734486 </i>
    <i name="e_wo_entrp">   -879.64408963 </i>
    <i name="e_0_energy">   -879.61959312 </i>
   </energy>
  </scstep>
  <scstep>
   <time name="diag">    5.06    5.06</time>
   <time name="diis">   11.55   11.55</time>
   <time name="orth">    1.03    1.03</time>
   <time name="total">   17.99   17.99</time>
   <energy>
    <i name="alphaZ">   7300.31925852 </i>
    <i name="ewald"> -66232.83996889 </i>
    <i name="hartreedc">  -9346.87983856 </i>
    <i name="XCdc">    360.44675411 </i>
    <i name="pawpsdc">  58014.44814623 </i>
    <i name="pawaedc"> -58951.05064443 </i>
    <i name="eentropy">      0.03675835 </i>
    <i name="bandstr">   3774.24131006 </i>
    <i name="atom">  64201.67088057 </i>
    <i name="e_fr_energy">   -879.60734403 </i>
    <i name="e_wo_entrp">   -879.64410238 </i>
    <i name="e_0_energy">   -879.61959681 </i>
   </energy>
  </scstep>
  <structure>
   <crystal>
    <varray name="basis" >
     <v>      10.33484705       0.00000000       0.00000000 </v>
     <v>       0.00000000      10.33484705       0.00000000 </v>
     <v>       0.00000000       0.00000000      10.33484705 </v>
    </varray>
    <i name="volume">   1103.85533447 </i>
    <varray name="rec_basis" >
     <v>       0.09676002       0.00000000       0.00000000 </v>
     <v>       0.00000000       0.09676002       0.00000000 </v>
     <v>       0.00000000       0.00000000       0.09676002 </v>
    </varray>
   </crystal>
   <varray name="positions" >
    <v>       0.00000000       0.00000000       0.00000000 </v>
    <v>       0.00000000       0.16666893       0.16666893 </v>
    <v>       0.16666893       0.00000000       0.16666893 </v>
    <v>       0.16666893       0.16666893       0.00000000 </v>
    <v>       0.33333106       0.00000000       0.00000000 </v>
    <v>       0.33333107       0.16666893       0.16666893 </v>
    <v>       0.50000000       0.00000000       0.16666894 </v>
    <v>       0.50000000       0.16666894       0.00000000 </v>
    <v>       0.66666897       0.00000000       0.00000000 </v>
    <v>       0.66666896       0.16666893       0.16666893 </v>
    <v>       0.83333104       0.00000000       0.16666893 </v>
    <v>       0.83333104       0.16666893       0.00000000 </v>
    <v>       0.00000000       0.33333106       0.00000000 </v>
    <v>       0.00000000       0.50000000       0.16666894 </v>
    <v>       0.16666893       0.33333107       0.16666893 </v>
    <v>       0.16666894       0.50000000       0.00000000 </v>
    <v>       0.33333107       0.33333107       0.00000000 </v>
    <v>       0.33333107       0.50000000       0.16666893 </v>
    <v>       0.50000000       0.33333107       0.16666893 </v>
    <v>       0.50000000       0.50000000       0.00000000 </v>
    <v>       0.66666896       0.33333107       0.00000000 </v>
    <v>       0.66666896       0.50000000       0.16666893 </v>
    <v>       0.83333104       0.33333107       0.16666893 </v>
    <v>       0.83333103       0.50000000       0.00000000 </v>
    <v>       0.00000000       0.66666897       0.00000000 </v>
    <v>       0.00000000       0.83333104       0.16666893 </v>
    <v>       0.16666893       0.66666896       0.16666893 </v>
    <v>       0.16666893       0.83333104       0.00000000 </v>
    <v>       0.33333107       0.66666896       0.00000000 </v>
    <v>       0.33333107       0.83333104       0.16666893 </v>
    <v>       0.50000000       0.66666896       0.16666893 </v>
    <v>       0.50000000       0.83333103       0.00000000 </v>
    <v>       0.66666896       0.66666896       0.00000000 </v>
    <v>       0.66666896       0.83333104       0.16666893 </v>
    <v>       0.83333104       0.66666896       0.16666893 </v>
    <v>       0.83333104       0.83333104       0.00000000 </v>
    <v>       0.00000000       0.00000000       0.33333106 </v>
    <v>       0.00000000       0.16666894       0.50000000 </v>
    <v>       0.16666894       0.00000000       0.50000000 </v>
    <v>       0.16666893       0.16666893       0.33333107 </v>
    <v>       0.33333107       0.00000000       0.33333107 </v>
    <v>       0.33333107       0.16666893       0.50000000 </v>
    <v>       0.50000000       0.00000000       0.50000000 </v>
    <v>       0.50000000       0.16666893       0.33333107 </v>
    <v>       0.66666896       0.00000000       0.33333107 </v>
    <v>       0.66666896       0.16666893       0.50000000 </v>
    <v>       0.83333103       0.00000000       0.50000000 </v>
    <v>       0.83333104       0.16666893       0.33333107 </v>
    <v>       0.00000000       0.33333107       0.33333107 </v>
    <v>       0.00000000       0.50000000       0.50000000 </v>
    <v>       0.16666893       0.33333107       0.50000000 </v>
    <v>       0.16666893       0.50000000       0.33333107 </v>
    <v>       0.33333107       0.33333107       0.33333107 </v>
    <v>       0.33333106       0.50000000       0.50000000 </v>
    <v>       0.50000000       0.33333106       0.50000000 </v>
    <v>       0.50000000       0.50000000       0.33333106 </v>
    <v>       0.66666896       0.33333107       0.33333107 </v>
    <v>       0.66666897       0.50000000       0.50000000 </v>
    <v>       0.83333104       0.33333107       0.50000000 </v>
    <v>       0.83333104       0.50000000       0.33333107 </v>
    <v>       0.00000000       0.66666896       0.33333107 </v>
    <v>       0.00000000       0.83333103       0.50000000 </v>
    <v>       0.16666893       0.66666896       0.50000000 </v>
    <v>       0.16666893       0.83333104       0.33333107 </v>
    <v>       0.33333107       0.66666896       0.33333107 </v>
    <v>       0.33333107       0.83333104       0.50000000 </v>
    <v>       0.50000000       0.66666897       0.50000000 </v>
    <v>       0.50000000       0.83333104       0.33333107 </v>
    <v>       0.66666896       0.66666896       0.33333107 </v>
    <v>       0.66666896       0.83333104       0.50000000 </v>
    <v>       0.83333104       0.66666896       0.50000000 </v>
    <v>       0.83333104       0.83333104       0.33333107 </v>
    <v>       0.00000000       0.00000000       0.66666897 </v>
    <v>       0.00000000       0.16666893       0.83333104 </v>
    <v>       0.16666893       0.00000000       0.83333104 </v>
    <v>       0.16666893       0.16666893       0.66666896 </v>
    <v>       0.33333107       0.00000000       0.66666896 </v>
    <v>       0.33333107       0.16666893       0.83333104 </v>
    <v>       0.50000000       0.00000000       0.83333103 </v>
    <v>       0.50000000       0.16666893       0.66666896 </v>
    <v>       0.66666896       0.00000000       0.66666896 </v>
    <v>       0.66666896       0.16666893       0.83333104 </v>
    <v>       0.83333104       0.00000000       0.83333104 </v>
    <v>       0.83333104       0.16666893       0.66666896 </v>
    <v>       0.00000000       0.33333107       0.66666896 </v>
    <v>       0.00000000       0.50000000       0.83333103 </v>
    <v>       0.16666893       0.33333107       0.83333104 </v>
    <v>       0.16666893       0.50000000       0.66666896 </v>
    <v>       0.33333107       0.33333107       0.66666896 </v>
    <v>       0.33333107       0.50000000       0.83333104 </v>
    <v>       0.50000000       0.33333107       0.83333104 </v>
    <v>       0.50000000       0.50000000       0.66666897 </v>
    <v>       0.66666896       0.33333107       0.66666896 </v>
    <v>       0.66666896       0.50000000       0.83333104 </v>
    <v>       0.83333104       0.33333107       0.83333104 </v>
    <v>       0.83333104       0.50000000       0.66666896 </v>
    <v>       0.00000000       0.66666896       0.66666896 </v>
    <v>       0.00000000       0.83333104       0.83333104 </v>
    <v>       0.16666893       0.66666896       0.83333104 </v>
    <v>       0.16666893       0.83333104       0.66666896 </v>
    <v>       0.33333107       0.66666896       0.66666896 </v>
    <v>       0.33333107       0.83333104       0.83333104 </v>
    <v>       0.50000000       0.66666896       0.83333104 </v>
    <v>       0.50000000       0.83333104       0.66666896 </v>
    <v>       0.66666896       0.66666896       0.66666896 </v>
    <v>       0.66666896       0.83333104       0.83333104 </v>
    <v>       0.83333104       0.66666896       0.83333104 </v>
    <v>       0.83333104       0.83333104       0.66666896 </v>
   </varray>
  </structure>
  <varray name="forces" >
   <v>       0.00000000       0.00000000       0.00000000 </v>
   <v>       0.00000000      -0.00000000      -0.00000000 </v>
   <v>      -0.00000000      -0.00000000       0.00000000 </v>
   <v>      -0.00000000       0.00000000      -0.00000000 </v>
   <v>      -0.00000000      -0.00000000      -0.00000000 </v>
   <v>      -0.00000000       0.00000000       0.00000000 </v>
   <v>      -0.00000000      -0.00000000      -0.00000000 </v>
   <v>       0.00000000       0.00000000       0.00000000 </v>
   <v>       0.00000000      -0.00000000      -0.00000000 </v>
   <v>       0.00000000      -0.00000000       0.00000000 </v>
   <v>      -0.00000000      -0.00000000      -0.00000000 </v>
   <v>      -0.00000000       0.00000000       0.00000000 </v>
   <v>       0.00000000      -0.00000000      -0.00000000 </v>
   <v>      -0.00000000      -0.00000000      -0.00000000 </v>
   <v>       0.00000000      -0.00000000       0.00000000 </v>
   <v>       0.00000000       0.00000000      -0.00000000 </v>
   <v>      -0.00000000       0.00000000       0.00000000 </v>
   <v>      -0.00000000      -0.00000000      -0.00000000 </v>
   <v>       0.00000000      -0.00000000      -0.00000000 </v>
   <v>       0.00000000       0.00000000       0.00000000 </v>
   <v>       0.00000000      -0.00000000      -0.00000000 </v>
   <v>      -0.00000000      -0.00000000       0.00000000 </v>
   <v>       0.00000000      -0.00000000       0.00000000 </v>
   <v>      -0.00000000      -0.00000000       0.00000000 </v>
   <v>      -0.00000000      -0.00000000       0.00000000 </v>
   <v>       0.00000000       0.00000000      -0.00000000 </v>
   <v>      -0.00000000       0.00000000       0.00000000 </v>
   <v>      -0.00000000       0.00000000      -0.00000000 </v>
   <v>       0.00000000      -0.00000000      -0.00000000 </v>
   <v>       0.00000000       0.00000000       0.00000000 </v>
   <v>      -0.00000000      -0.00000000       0.00000000 </v>
   <v>      -0.00000000       0.00000000      -0.00000000 </v>
   <v>       0.00000000      -0.00000000      -0.00000000 </v>
   <v>       0.00000000       0.00000000      -0.00000000 </v>
   <v>       0.00000000       0.00000000       0.00000000 </v>
   <v>       0.00000000       0.00000000      -0.00000000 </v>
   <v>       0.00000000      -0.00000000      -0.00000000 </v>
   <v>       0.00000000       0.00000000      -0.00000000 </v>
   <v>      -0.00000000       0.00000000       0.00000000 </v>
   <v>       0.00000000      -0.00000000      -0.00000000 </v>
   <v>       0.00000000      -0.00000000       0.00000000 </v>
   <v>       0.00000000       0.00000000       0.00000000 </v>
   <v>       0.00000000      -0.00000000      -0.00000000 </v>
   <v>       0.00000000       0.00000000      -0.00000000 </v>
   <v>      -0.00000000      -0.00000000       0.00000000 </v>
   <v>       0.00000000      -0.00000000       0.00000000 </v>
   <v>      -0.00000000      -0.00000000       0.00000000 </v>
   <v>      -0.00000000       0.00000000      -0.00000000 </v>
   <v>       0.00000000      -0.00000000      -0.00000000 </v>
   <v>       0.00000000       0.00000000       0.00000000 </v>
   <v>       0.00000000      -0.00000000      -0.00000000 </v>
   <v>      -0.00000000       0.00000000       0.00000000 </v>
   <v>       0.00000000      -0.00000000       0.00000000 </v>
   <v>      -0.00000000       0.00000000      -0.00000000 </v>
   <v>      -0.00000000       0.00000000      -0.00000000 </v>
   <v>       0.00000000       0.00000000      -0.00000000 </v>
   <v>       0.00000000      -0.00000000      -0.00000000 </v>
   <v>       0.00000000       0.00000000       0.00000000 </v>
   <v>       0.00000000      -0.00000000       0.00000000 </v>
   <v>       0.00000000       0.00000000      -0.00000000 </v>
   <v>      -0.00000000       0.00000000      -0.00000000 </v>
   <v>      -0.00000000       0.00000000       0.00000000 </v>
   <v>       0.00000000      -0.00000000       0.00000000 </v>
   <v>       0.00000000       0.00000000      -0.00000000 </v>
   <v>       0.00000000       0.00000000       0.00000000 </v>
   <v>       0.00000000      -0.00000000      -0.00000000 </v>
   <v>      -0.00000000       0.00000000       0.00000000 </v>
   <v>      -0.00000000      -0.00000000       0.00000000 </v>
   <v>      -0.00000000       0.00000000       0.00000000 </v>
   <v>       0.00000000       0.00000000       0.00000000 </v>
   <v>       0.00000000       0.00000000       0.00000000 </v>
   <v>       0.00000000       0.00000000      -0.00000000 </v>
   <v>      -0.00000000      -0.00000000       0.00000000 </v>
   <v>       0.00000000       0.00000000      -0.00000000 </v>
   <v>      -0.00000000      -0.00000000      -0.00000000 </v>
   <v>      -0.00000000      -0.00000000       0.00000000 </v>
   <v>       0.00000000       0.00000000      -0.00000000 </v>
   <v>      -0.00000000       0.00000000      -0.00000000 </v>
   <v>      -0.00000000      -0.00000000       0.00000000 </v>
   <v>      -0.00000000       0.00000000       0.00000000 </v>
   <v>      -0.00000000      -0.00000000      -0.00000000 </v>
   <v>       0.00000000      -0.00000000      -0.00000000 </v>
   <v>       0.00000000      -0.00000000       0.00000000 </v>
   <v>       0.00000000       0.00000000      -0.00000000 </v>
   <v>      -0.00000000      -0.00000000       0.00000000 </v>
   <v>      -0.00000000       0.00000000       0.00000000 </v>
   <v>       0.00000000       0.00000000      -0.00000000 </v>
   <v>      -0.00000000       0.00000000       0.00000000 </v>
   <v>       0.00000000       0.00000000      -0.00000000 </v>
   <v>       0.00000000      -0.00000000       0.00000000 </v>
   <v>       0.00000000      -0.00000000       0.00000000 </v>
   <v>       0.00000000       0.00000000       0.00000000 </v>
   <v>       0.00000000      -0.00000000      -0.00000000 </v>
   <v>      -0.00000000       0.00000000       0.00000000 </v>
   <v>       0.00000000      -0.00000000      -0.00000000 </v>
   <v>      -0.00000000       0.00000000      -0.00000000 </v>
   <v>      -0.00000000      -0.00000000      -0.00000000 </v>
   <v>       0.00000000       0.00000000       0.00000000 </v>
   <v>      -0.00000000      -0.00000000      -0.00000000 </v>
   <v>      -0.00000000       0.00000000       0.00000000 </v>
   <v>       0.00000000      -0.00000000      -0.00000000 </v>
   <v>       0.00000000      -0.00000000      -0.00000000 </v>
   <v>       0.00000000       0.00000000       0.00000000 </v>
   <v>       0.00000000      -0.00000000      -0.00000000 </v>
   <v>      -0.00000000       0.00000000      -0.00000000 </v>
   <v>      -0.00000000       0.00000000      -0.00000000 </v>
   <v>       0.00000000      -0.00000000      -0.00000000 </v>
   <v>      -0.00000000      -0.00000000       0.00000000 </v>
  </varray>
  <varray name="stress" >
   <v>      -0.43015034      -0.00000000      -0.00000000 </v>
   <v>      -0.00000000      -0.43015034      -0.00000000 </v>
   <v>       0.00000000       0.00000000      -0.43015034 </v>
  </varray>
  <energy>
   <i name="e_fr_energy">   -879.60734403 </i>
   <i name="e_wo_entrp">   -879.61959681 </i>
   <i name="e_0_energy">      0.03675835 </i>
  </energy>
  <time name="totalsc"> 1313.88 1314.23</time>
  <eigenvalues>
   <array>
    <dimension dim="1">band</dimension>
    <dimension dim="2">kpoint</dimension>
    <dimension dim="3">spin</dimension>
    <field>eigene</field>
    <field>occ</field>
    <set>
     <set comment="spin 1">
      <set comment="kpoint 1">
       <r>   -2.0006    1.0000 </r>
       <r>   -0.5090    1.0000 </r>
       <r>   -0.5090    1.0000 </r>
       <r>   -0.5090    1.0000 </r>
       <r>   -0.5080    1.0000 </r>
       <r>   -0.5080    1.0000 </r>
       <r>   -0.5080    1.0000 </r>
       <r>    0.7818    1.0000 </r>
       <r>    0.7818    1.0000 </r>
       <r>    0.7818    1.0000 </r>
       <r>    0.7828    1.0000 </r>
       <r>    0.7828    1.0000 </r>
       <r>    0.7828    1.0000 </r>
       <r>    0.7828    1.0000 </r>
       <r>    0.7828    1.0000 </r>
       <r>    0.7828    1.0000 </r>
       <r>    0.7838    1.0000 </r>
       <r>    0.7838    1.0000 </r>
       <r>    0.7838    1.0000 </r>
       <r>    1.4208    1.0000 </r>
       <r>    1.4215    1.0000 </r>
       <r>    1.4215    1.0000 </r>
       <r>    1.4215    1.0000 </r>
       <r>    1.4222    1.0000 </r>
       <r>    1.4222    1.0000 </r>
       <r>    1.4222    1.0000 </r>
       <r>    1.4228    1.0000 </r>
       <r>    1.8639    1.0000 </r>
       <r>    1.8639    1.0000 </r>
       <r>    1.8639    1.0000 </r>
       <r>    1.8972    1.0000 </r>
       <r>    1.8972    1.0000 </r>
       <r>    1.8972    1.0000 </r>
       <r>    1.8978    1.0000 </r>
       <r>    1.8978    1.0000 </r>
       <r>    1.8978    1.0000 </r>
       <r>    2.5920    1.0000 </r>
       <r>    2.5920    1.0000 </r>
       <r>    2.5920    1.0000 </r>
       <r>    2.5920    1.0000 </r>
       <r>    2.5920    1.0000 </r>
       <r>    2.5920    1.0000 </r>
       <r>    2.5920    1.0000 </r>
       <r>    2.5920    1.0000 </r>
       <r>    2.5920    1.0000 </r>
       <r>    2.5920    1.0000 </r>
       <r>    2.5920    1.0000 </r>
       <r>    2.5920    1.0000 </r>
       <r>    2.5922    1.0000 </r>
       <r>    2.5922    1.0000 </r>
       <r>    2.5922    1.0000 </r>
       <r>    2.5922    1.0000 </r>
       <r>    2.5922    1.0000 </r>
       <r>    2.5922    1.0000 </r>
       <r>    2.5922    1.0000 </r>
       <r>    2.5922    1.0000 </r>
       <r>    2.5922    1.0000 </r>
       <r>    2.5922    1.0000 </r>
       <r>    2.5922    1.0000 </r>
       <r>    2.5922    1.0000 </r>
       <r>    2.6061    1.0000 </r>
       <r>    2.6061    1.0000 </r>
       <r>    2.6061    1.0000 </r>
       <r>    2.6654    1.0000 </r>
       <r>    2.6654    1.0000 </r>
       <r>    2.6654    1.0000 </r>
       <r>    2.6654    1.0000 </r>
       <r>    2.6654    1.0000 </r>
       <r>    2.6654    1.0000 </r>
       <r>    2.6663    1.0000 </r>
       <r>    2.6663    1.0000 </r>
       <r>    2.6663    1.0000 </r>
       <r>    2.6663    1.0000 </r>
       <r>    2.6663    1.0000 </r>
       <r>    2.6663    1.0000 </r>
       <r>    2.8802    1.0000 </r>
       <r>    2.8802    1.0000 </r>
       <r>    2.8802    1.0000 </r>
       <r>    2.8802    1.0000 </r>
       <r>    2.8802    1.0000 </r>
       <r>    2.8802    1.0000 </r>
       <r>    2.8807    1.0000 </r>
       <r>    2.8807    1.0000 </r>
       <r>    2.8807    1.0000 </r>
       <r>    2.8807    1.0000 </r>
       <r>    2.8807    1.0000 </r>
       <r>    2.8807    1.0000 </r>
       <r>    2.8811    1.0000 </r>
       <r>    2.8811    1.0000 </r>
       <r>    2.8811    1.0000 </r>
       <r>    2.8811    1.0000 </r>
       <r>    2.8811    1.0000 </r>
       <r>    2.8811    1.0000 </r>
       <r>    2.8816    1.0000 </r>
       <r>    2.8816    1.0000 </r>
       <r>    2.8816    1.0000 </r>
       <r>    2.8816    1.0000 </r>
       <r>    2.8816    1.0000 </r>
       <r>    2.8816    1.0000 </r>
       <r>    3.1843    1.0000 </r>
       <r>    3.1843    1.0000 </r>
       <r>    3.1843    1.0000 </r>
       <r>    3.1853    1.0000 </r>
       <r>    3.1853    1.0000 </r>
       <r>    3.1853    1.0000 </r>
       <r>    3.3116    1.0000 </r>
       <r>    3.3116    1.0000 </r>
       <r>    3.3116    1.0000 </r>
       <r>    3.3118    1.0000 </r>
       <r>    3.3118    1.0000 </r>
       <r>    3.3118    1.0000 </r>
       <r>    3.3118    1.0000 </r>
       <r>    3.3118    1.0000 </r>
       <r>    3.3118    1.0000 </r>
       <r>    3.3119    1.0000 </r>
       <r>    3.3119    1.0000 </r>
       <r>    3.3119    1.0000 </r>
       <r>    3.3220    1.0000 </r>
       <r>    3.3220    1.0000 </r>
       <r>    3.3220    1.0000 </r>
       <r>    3.3220    1.0000 </r>
       <r>    3.3220    1.0000 </r>
       <r>    3.3220    1.0000 </r>
       <r>    3.3230    1.0000 </r>
       <r>    3.3230    1.0000 </r>
       <r>    3.3230    1.0000 </r>
       <r>    3.3230    1.0000 </r>
       <r>    3.3230    1.0000 </r>
       <r>    3.3230    1.0000 </r>
       <r>    3.5688    1.0000 </r>
       <r>    3.5688    1.0000 </r>
       <r>    3.5688    1.0000 </r>
       <r>    3.5688    1.0000 </r>
       <r>    3.5688    1.0000 </r>
       <r>    3.5688    1.0000 </r>
       <r>    3.5688    1.0000 </r>
       <r>    3.5688    1.0000 </r>
       <r>    3.5688    1.0000 </r>
       <r>    3.5688    1.0000 </r>
       <r>    3.5688    1.0000 </r>
       <r>    3.5688    1.0000 </r>
       <r>    3.6913    1.0000 </r>
       <r>    3.6913    1.0000 </r>
       <r>    3.6913    1.0000 </r>
       <r>    3.6913    1.0000 </r>
       <r>    3.6913    1.0000 </r>
       <r>    3.6913    1.0000 </r>
       <r>    3.6922    1.0000 </r>
       <r>    3.6922    1.0000 </r>
       <r>    3.6922    1.0000 </r>
       <r>    3.6922    1.0000 </r>
       <r>    3.6922    1.0000 </r>
       <r>    3.6922    1.0000 </r>
       <r>    3.6923    1.0000 </r>
       <r>    3.6923    1.0000 </r>
       <r>    3.6923    1.0000 </r>
       <r>    3.6923    1.0000 </r>
       <r>    3.6923    1.0000 </r>
       <r>    3.6923    1.0000 </r>
       <r>    3.6931    1.0000 </r>
       <r>    3.6931    1.0000 </r>
       <r>    3.6931    1.0000 </r>
       <r>    3.6931    1.0000 </r>
       <r>    3.6931    1.0000 </r>
       <r>    3.6931    1.0000 </r>
       <r>    4.2969    1.0000 </r>
       <r>    4.2969    1.0000 </r>
       <r>    4.2969    1.0000 </r>
       <r>    4.2977    1.0000 </r>
       <r>    4.2977    1.0000 </r>
       <r>    4.2977    1.0000 </r>
       <r>    4.2977    1.0000 </r>
       <r>    4.2977    1.0000 </r>
       <r>    4.2977    1.0000 </r>
       <r>    4.2978    1.0000 </r>
       <r>    4.2978    1.0000 </r>
       <r>    4.2978    1.0000 </r>
       <r>    4.2985    1.0000 </r>
       <r>    4.2985    1.0000 </r>
       <r>    4.2985    1.0000 </r>
       <r>    4.2986    1.0000 </r>
       <r>    4.2986    1.0000 </r>
       <r>    4.2986    1.0000 </r>
       <r>    4.2986    1.0000 </r>
       <r>    4.2986    1.0000 </r>
       <r>    4.2986    1.0000 </r>
       <r>    4.2993    1.0000 </r>
       <r>    4.2993    1.0000 </r>
       <r>    4.2993    1.0000 </r>
       <r>    4.3490    1.0000 </r>
       <r>    4.3490    1.0000 </r>
       <r>    4.3490    1.0000 </r>
       <r>    4.3491    1.0000 </r>
       <r>    4.3491    1.0000 </r>
       <r>    4.3491    1.0000 </r>
       <r>    4.3491    1.0000 </r>
       <r>    4.3491    1.0000 </r>
       <r>    4.3491    1.0000 </r>
       <r>    4.3493    1.0000 </r>
       <r>    4.3493    1.0000 </r>
       <r>    4.3493    1.0000 </r>
       <r>    4.4621    1.0000 </r>
       <r>    4.4621    1.0000 </r>
       <r>    4.4621    1.0000 </r>
       <r>    4.4627    1.0000 </r>
       <r>    4.4627    1.0000 </r>
       <r>    4.4627    1.0000 </r>
       <r>    4.6391    1.0000 </r>
       <r>    4.6391    1.0000 </r>
       <r>    4.6391    1.0000 </r>
       <r>    4.6391    1.0000 </r>
       <r>    4.6391    1.0000 </r>
       <r>    4.6391    1.0000 </r>
       <r>    4.6392    1.0000 </r>
       <r>    4.6392    1.0000 </r>
       <r>    4.6392    1.0000 </r>
       <r>    4.6392    1.0000 </r>
       <r>    4.6392    1.0000 </r>
       <r>    4.6392    1.0000 </r>
       <r>    4.6393    1.0000 </r>
       <r>    4.6393    1.0000 </r>
       <r>    4.6393    1.0000 </r>
       <r>    4.6393    1.0000 </r>
       <r>    4.6393    1.0000 </r>
       <r>    4.6393    1.0000 </r>
       <r>    4.6394    1.0000 </r>
       <r>    4.6394    1.0000 </r>
       <r>    4.6394    1.0000 </r>
       <r>    4.6394    1.0000 </r>
       <r>    4.6394    1.0000 </r>
       <r>    4.6394    1.0000 </r>
       <r>    4.8728    1.0000 </r>
       <r>    4.8728    1.0000 </r>
       <r>    4.8728    1.0000 </r>
       <r>    4.8732    1.0000 </r>
       <r>    4.8732    1.0000 </r>
       <r>    4.8732    1.0000 </r>
       <r>    4.8732    1.0000 </r>
       <r>    4.8732    1.0000 </r>
       <r>    4.8732    1.0000 </r>
       <r>    4.8736    1.0000 </r>
       <r>    4.8736    1.0000 </r>
       <r>    4.8736    1.0000 </r>
       <r>    5.0389    1.0000 </r>
       <r>    5.0389    1.0000 </r>
       <r>    5.0389    1.0000 </r>
       <r>    5.0389    1.0000 </r>
       <r>    5.0389    1.0000 </r>
       <r>    5.0389    1.0000 </r>
       <r>    5.0389    1.0000 </r>
       <r>    5.0390    1.0000 </r>
       <r>    5.1753    1.0000 </r>
       <r>    5.1753    1.0000 </r>
       <r>    5.1753    1.0000 </r>
       <r>    5.2287    1.0000 </r>
       <r>    5.2287    1.0000 </r>
       <r>    5.2287    1.0000 </r>
       <r>    5.2289    1.0000 </r>
       <r>    5.2289    1.0000 </r>
       <r>    5.2289    1.0000 </r>
       <r>    5.2289    1.0000 </r>
       <r>    5.2289    1.0000 </r>
       <r>    5.2289    1.0000 </r>
       <r>    5.2289    1.0000 </r>
       <r>    5.2289    1.0000 </r>
       <r>    5.2289    1.0000 </r>
       <r>    5.2291    1.0000 </r>
       <r>    5.2291    1.0000 </r>
       <r>    5.2291    1.0000 </r>
       <r>    5.2291    1.0000 </r>
       <r>    5.2291    1.0000 </r>
       <r>    5.2291    1.0000 </r>
       <r>    5.2291    1.0000 </r>
       <r>    5.2291    1.0000 </r>
       <r>    5.2291    1.0000 </r>
       <r>    5.2294    1.0000 </r>
       <r>    5.2294    1.0000 </r>
       <r>    5.2294    1.0000 </r>
       <r>    5.2997    1.0000 </r>
       <r>    5.2997    1.0000 </r>
       <r>    5.2998    1.0000 </r>
       <r>    5.2998    1.0000 </r>
       <r>    5.2998    1.0000 </r>
       <r>    5.3000    1.0000 </r>
       <r>    5.3000    1.0000 </r>
       <r>    5.3000    1.0000 </r>
       <r>    5.3002    1.0000 </r>
       <r>    5.3002    1.0000 </r>
       <r>    5.3002    1.0000 </r>
       <r>    5.3004    1.0000 </r>
       <r>    5.3004    1.0000 </r>
       <r>    5.3004    1.0000 </r>
       <r>    5.3004    1.0000 </r>
       <r>    5.3004    1.0000 </r>
       <r>    5.3246    1.0000 </r>
       <r>    5.3246    1.0000 </r>
       <r>    5.3246    1.0000 </r>
       <r>    5.3248    1.0000 </r>
       <r>    5.3248    1.0000 </r>
       <r>    5.3248    1.0000 </r>
       <r>    5.3248    1.0000 </r>
       <r>    5.3248    1.0000 </r>
       <r>    5.3248    1.0000 </r>
       <r>    5.3249    1.0000 </r>
       <r>    5.3249    1.0000 </r>
       <r>    5.3249    1.0000 </r>
       <r>    5.4404    1.0000 </r>
       <r>    5.4404    1.0000 </r>
       <r>    5.4404    1.0000 </r>
       <r>    5.4404    1.0000 </r>
       <r>    5.4404    1.0000 </r>
       <r>    5.4404    1.0000 </r>
       <r>    5.4405    1.0000 </r>
       <r>    5.4405    1.0000 </r>
       <r>    5.4405    1.0000 </r>
       <r>    5.4405    1.0000 </r>
       <r>    5.4405    1.0000 </r>
       <r>    5.4405    1.0000 </r>
       <r>    5.6776    1.0000 </r>
       <r>    5.6776    1.0000 </r>
       <r>    5.6776    1.0000 </r>
       <r>    5.6778    1.0000 </r>
       <r>    5.6778    1.0000 </r>
       <r>    5.6778    1.0000 </r>
       <r>    5.6780    1.0000 </r>
       <r>    5.6780    1.0000 </r>
       <r>    5.6780    1.0000 </r>
       <r>    5.6780    1.0000 </r>
       <r>    5.6780    1.0000 </r>
       <r>    5.6780    1.0000 </r>
       <r>    5.6783    1.0000 </r>
       <r>    5.6783    1.0000 </r>
       <r>    5.6783    1.0000 </r>
       <r>    5.6783    1.0000 </r>
       <r>    5.6783    1.0000 </r>
       <r>    5.6783    1.0000 </r>
       <r>    5.6785    1.0000 </r>
       <r>    5.6785    1.0000 </r>
       <r>    5.6785    1.0000 </r>
       <r>    5.6787    1.0000 </r>
       <r>    5.6787    1.0000 </r>
       <r>    5.6787    1.0000 </r>
       <r>    5.7388    1.0000 </r>
       <r>    5.7388    1.0000 </r>
       <r>    5.7388    1.0000 </r>
       <r>    5.7388    1.0000 </r>
       <r>    5.7388    1.0000 </r>
       <r>    5.7388    1.0000 </r>
       <r>    5.7398    1.0000 </r>
       <r>    5.7398    1.0000 </r>
       <r>    5.7398    1.0000 </r>
       <r>    5.7398    1.0000 </r>
       <r>    5.7398    1.0000 </r>
       <r>    5.7398    1.0000 </r>
       <r>    5.9471    1.0000 </r>
       <r>    5.9471    1.0000 </r>
       <r>    5.9471    1.0000 </r>
       <r>    5.9472    1.0000 </r>
       <r>    5.9472    1.0000 </r>
       <r>    5.9472    1.0000 </r>
       <r>    5.9472    1.0000 </r>
       <r>    5.9472    1.0000 </r>
       <r>    5.9472    1.0000 </r>
       <r>    5.9473    1.0000 </r>
       <r>    5.9473    1.0000 </r>
       <r>    5.9473    1.0000 </r>
       <r>    6.1071    1.0000 </r>
       <r>    6.1071    1.0000 </r>
       <r>    6.1071    1.0000 </r>
       <r>    6.1076    1.0000 </r>
       <r>    6.1076    1.0000 </r>
       <r>    6.1076    1.0000 </r>
       <r>    6.1219    1.0000 </r>
       <r>    6.1219    1.0000 </r>
       <r>    6.1219    1.0000 </r>
       <r>    6.1227    1.0000 </r>
       <r>    6.1227    1.0000 </r>
       <r>    6.1227    1.0000 </r>
       <r>    6.1227    1.0000 </r>
       <r>    6.1227    1.0000 </r>
       <r>    6.1227    1.0000 </r>
       <r>    6.1234    1.0000 </r>
       <r>    6.1234    1.0000 </r>
       <r>    6.1234    1.0000 </r>
       <r>    6.5300    1.0342 </r>
       <r>    6.5300    1.0342 </r>
       <r>    6.5300    1.0342 </r>
       <r>    6.5307    1.0343 </r>
       <r>    6.5307    1.0343 </r>
       <r>    6.5307    1.0343 </r>
       <r>    6.5307    1.0343 </r>
       <r>    6.5307    1.0343 </r>
       <r>    6.5307    1.0343 </r>
       <r>    6.5315    1.0344 </r>
       <r>    6.5315    1.0344 </r>
       <r>    6.5315    1.0344 </r>
       <r>    6.6177    1.0082 </r>
       <r>    6.6177    1.0082 </r>
       <r>    6.6177    1.0082 </r>
       <r>    6.6177    1.0082 </r>
       <r>    6.6177    1.0082 </r>
       <r>    6.6177    1.0082 </r>
       <r>    6.7334    0.7443 </r>
       <r>    6.7334    0.7443 </r>
       <r>    6.7334    0.7443 </r>
       <r>    6.7334    0.7443 </r>
       <r>    6.7334    0.7443 </r>
       <r>    6.7334    0.7443 </r>
       <r>    6.7338    0.7428 </r>
       <r>    6.7338    0.7428 </r>
       <r>    6.7341    0.7419 </r>
       <r>    6.7341    0.7419 </r>
       <r>    6.7341    0.7419 </r>
       <r>    6.7341    0.7419 </r>
       <r>    6.7341    0.7419 </r>
       <r>    6.7341    0.7419 </r>
       <r>    6.7341    0.7418 </r>
       <r>    6.7341    0.7418 </r>
       <r>    6.7341    0.7418 </r>
       <r>    6.7341    0.7418 </r>
       <r>    6.7341    0.7418 </r>
       <r>    6.7341    0.7418 </r>
       <r>    6.7348    0.7394 </r>
       <r>    6.7348    0.7394 </r>
       <r>    6.7348    0.7394 </r>
       <r>    6.7348    0.7394 </r>
       <r>    6.7348    0.7394 </r>
       <r>    6.7348    0.7394 </r>
       <r>    6.9547    0.0092 </r>
       <r>    6.9547    0.0092 </r>
       <r>    6.9547    0.0092 </r>
       <r>    6.9547    0.0092 </r>
       <r>    6.9547    0.0092 </r>
       <r>    6.9547    0.0092 </r>
       <r>    6.9553    0.0084 </r>
       <r>    6.9553    0.0084 </r>
       <r>    6.9553    0.0084 </r>
       <r>    6.9553    0.0084 </r>
       <r>    6.9553    0.0084 </r>
       <r>    6.9553    0.0084 </r>
       <r>    6.9838   -0.0189 </r>
       <r>    6.9838   -0.0189 </r>
       <r>    6.9838   -0.0189 </r>
       <r>    6.9847   -0.0195 </r>
       <r>    6.9847   -0.0195 </r>
       <r>    6.9847   -0.0195 </r>
       <r>    7.1440   -0.0164 </r>
       <r>    7.1440   -0.0164 </r>
       <r>    7.1440   -0.0164 </r>
       <r>    7.1440   -0.0164 </r>
       <r>    7.1440   -0.0164 </r>
       <r>    7.1440   -0.0164 </r>
       <r>    7.1446   -0.0163 </r>
       <r>    7.1446   -0.0163 </r>
       <r>    7.1446   -0.0163 </r>
       <r>    7.1446   -0.0163 </r>
       <r>    7.1446   -0.0163 </r>
       <r>    7.1446   -0.0163 </r>
       <r>    7.1459   -0.0161 </r>
       <r>    7.1459   -0.0161 </r>
       <r>    7.1459   -0.0161 </r>
       <r>    7.1459   -0.0161 </r>
       <r>    7.1459   -0.0161 </r>
       <r>    7.1459   -0.0161 </r>
       <r>    7.1463   -0.0160 </r>
       <r>    7.1463   -0.0160 </r>
       <r>    7.1463   -0.0160 </r>
       <r>    7.1463   -0.0160 </r>
       <r>    7.1463   -0.0160 </r>
       <r>    7.1463   -0.0160 </r>
       <r>    7.1465   -0.0159 </r>
       <r>    7.1465   -0.0159 </r>
       <r>    7.1465   -0.0159 </r>
       <r>    7.1465   -0.0159 </r>
       <r>    7.1465   -0.0159 </r>
       <r>    7.1465   -0.0159 </r>
       <r>    7.1470   -0.0158 </r>
       <r>    7.1470   -0.0158 </r>
       <r>    7.1470   -0.0158 </r>
       <r>    7.1470   -0.0158 </r>
       <r>    7.1470   -0.0158 </r>
       <r>    7.1470   -0.0158 </r>
       <r>    7.2714   -0.0019 </r>
       <r>    7.2714   -0.0019 </r>
       <r>    7.2714   -0.0019 </r>
       <r>    7.2714   -0.0019 </r>
       <r>    7.2714   -0.0019 </r>
       <r>    7.2716   -0.0019 </r>
       <r>    7.2716   -0.0019 </r>
       <r>    7.2717   -0.0019 </r>
       <r>    7.2718   -0.0019 </r>
       <r>    7.2718   -0.0019 </r>
       <r>    7.2718   -0.0019 </r>
       <r>    7.2721   -0.0019 </r>
       <r>    7.2721   -0.0019 </r>
       <r>    7.2721   -0.0019 </r>
       <r>    7.2721   -0.0019 </r>
       <r>    7.2721   -0.0019 </r>
       <r>    7.4076   -0.0001 </r>
       <r>    7.4079   -0.0001 </r>
       <r>    7.4086   -0.0001 </r>
       <r>    7.4098   -0.0001 </r>
       <r>    7.4109   -0.0001 </r>
       <r>    7.4120   -0.0001 </r>
       <r>    7.4194   -0.0000 </r>
       <r>    7.4236   -0.0000 </r>
       <r>    7.4268   -0.0000 </r>
       <r>    7.4436   -0.0000 </r>
       <r>    7.4508   -0.0000 </r>
       <r>    7.4763   -0.0000 </r>
       <r>    7.5123   -0.0000 </r>
       <r>    7.5153   -0.0000 </r>
       <r>    7.5271   -0.0000 </r>
       <r>    7.5464   -0.0000 </r>
       <r>    7.5740   -0.0000 </r>
       <r>    7.5807   -0.0000 </r>
       <r>    7.5908   -0.0000 </r>
       <r>    7.6040   -0.0000 </r>
      </set>
      <set comment="kpoint 2">
       <r>   -1.8249    1.0000 </r>
       <r>   -1.3116    1.0000 </r>
       <r>   -0.3550    1.0000 </r>
       <r>   -0.3550    1.0000 </r>
       <r>   -0.3540    1.0000 </r>
       <r>   -0.3540    1.0000 </r>
       <r>    0.0919    1.0000 </r>
       <r>    0.0919    1.0000 </r>
       <r>    0.0930    1.0000 </r>
       <r>    0.0930    1.0000 </r>
       <r>    0.4728    1.0000 </r>
       <r>    0.8651    1.0000 </r>
       <r>    0.8661    1.0000 </r>
       <r>    0.8661    1.0000 </r>
       <r>    0.8670    1.0000 </r>
       <r>    1.0947    1.0000 </r>
       <r>    1.0955    1.0000 </r>
       <r>    1.0955    1.0000 </r>
       <r>    1.0964    1.0000 </r>
       <r>    1.3887    1.0000 </r>
       <r>    1.6165    1.0000 </r>
       <r>    1.6165    1.0000 </r>
       <r>    1.6175    1.0000 </r>
       <r>    1.6175    1.0000 </r>
       <r>    1.7958    1.0000 </r>
       <r>    1.7963    1.0000 </r>
       <r>    1.7963    1.0000 </r>
       <r>    1.7967    1.0000 </r>
       <r>    1.9052    1.0000 </r>
       <r>    1.9720    1.0000 </r>
       <r>    1.9720    1.0000 </r>
       <r>    1.9772    1.0000 </r>
       <r>    2.0235    1.0000 </r>
       <r>    2.0235    1.0000 </r>
       <r>    2.0241    1.0000 </r>
       <r>    2.0241    1.0000 </r>
       <r>    2.1917    1.0000 </r>
       <r>    2.1919    1.0000 </r>
       <r>    2.1919    1.0000 </r>
       <r>    2.1921    1.0000 </r>
       <r>    2.2697    1.0000 </r>
       <r>    2.2697    1.0000 </r>
       <r>    2.3784    1.0000 </r>
       <r>    2.3784    1.0000 </r>
       <r>    2.3790    1.0000 </r>
       <r>    2.3790    1.0000 </r>
       <r>    2.4141    1.0000 </r>
[...]
       <r>    -1.8149     2.5002     0.3095 </r>
       <r>    -1.7684     3.2218     0.4593 </r>
       <r>    -1.7219     3.8956     0.6405 </r>
       <r>    -1.6753     4.4122     0.8457 </r>
       <r>    -1.6288     4.6653     1.0626 </r>
       <r>    -1.5823     4.6030     1.2767 </r>
       <r>    -1.5358     4.2595     1.4748 </r>
       <r>    -1.4893     3.7466     1.6490 </r>
       <r>    -1.4428     3.2268     1.7991 </r>
       <r>    -1.3963     2.8965     1.9338 </r>
       <r>    -1.3498     2.9709     2.0720 </r>
       <r>    -1.3033     3.6303     2.2408 </r>
       <r>    -1.2568     4.9253     2.4698 </r>
       <r>    -1.2103     6.6994     2.7814 </r>
       <r>    -1.1638     8.6002     3.1814 </r>
       <r>    -1.1173    10.1893     3.6552 </r>
       <r>    -1.0708    11.0749     4.1703 </r>
       <r>    -1.0243    11.0021     4.6819 </r>
       <r>    -0.9778     9.9036     5.1425 </r>
       <r>    -0.9313     7.9545     5.5124 </r>
       <r>    -0.8847     5.6026     5.7730 </r>
       <r>    -0.8382     3.4894     5.9353 </r>
       <r>    -0.7917     2.2378     6.0393 </r>
       <r>    -0.7452     2.2136     6.1423 </r>
       <r>    -0.6987     3.4084     6.3008 </r>
       <r>    -0.6522     5.4884     6.5560 </r>
       <r>    -0.6057     7.9406     6.9253 </r>
       <r>    -0.5592    10.2307     7.4011 </r>
       <r>    -0.5127    11.9466     7.9567 </r>
       <r>    -0.4662    12.9103     8.5571 </r>
       <r>    -0.4197    13.2078     9.1713 </r>
       <r>    -0.3732    13.0894     9.7801 </r>
       <r>    -0.3267    12.7795    10.3744 </r>
       <r>    -0.2802    12.3231    10.9475 </r>
       <r>    -0.2337    11.5850    11.4863 </r>
       <r>    -0.1872    10.4161    11.9707 </r>
       <r>    -0.1407     8.8858    12.3839 </r>
       <r>    -0.0941     7.4168    12.7288 </r>
       <r>    -0.0476     6.6991    13.0404 </r>
       <r>    -0.0011     7.3800    13.3836 </r>
       <r>     0.0454     9.6706    13.8333 </r>
       <r>     0.0919    13.0833    14.4418 </r>
       <r>     0.1384    16.4797    15.2082 </r>
       <r>     0.1849    18.4819    16.0677 </r>
       <r>     0.2314    18.1142    16.9101 </r>
       <r>     0.2779    15.3623    17.6245 </r>
       <r>     0.3244    11.3003    18.1501 </r>
       <r>     0.3709     7.6416    18.5054 </r>
       <r>     0.4174     5.9263    18.7811 </r>
       <r>     0.4639     6.8027    19.0974 </r>
       <r>     0.5104     9.7994    19.5531 </r>
       <r>     0.5569    13.6764    20.1892 </r>
       <r>     0.6034    17.0998    20.9844 </r>
       <r>     0.6499    19.2223    21.8784 </r>
       <r>     0.6965    19.8681    22.8024 </r>
       <r>     0.7430    19.3445    23.7020 </r>
       <r>     0.7895    18.1761    24.5473 </r>
       <r>     0.8360    17.0104    25.3384 </r>
       <r>     0.8825    16.6252    26.1115 </r>
       <r>     0.9290    17.7414    26.9366 </r>
       <r>     0.9755    20.5293    27.8913 </r>
       <r>     1.0220    24.1532    29.0146 </r>
       <r>     1.0685    26.9090    30.2660 </r>
       <r>     1.1150    27.1221    31.5274 </r>
       <r>     1.1615    24.2527    32.6553 </r>
       <r>     1.2080    19.3271    33.5541 </r>
       <r>     1.2545    14.3083    34.2195 </r>
       <r>     1.3010    10.9338    34.7280 </r>
       <r>     1.3475     9.9829    35.1922 </r>
       <r>     1.3940    11.4480    35.7246 </r>
       <r>     1.4405    15.1724    36.4302 </r>
       <r>     1.4870    21.1087    37.4119 </r>
       <r>     1.5336    28.8565    38.7539 </r>
       <r>     1.5801    37.0321    40.4761 </r>
       <r>     1.6266    43.3889    42.4940 </r>
       <r>     1.6731    45.9968    44.6331 </r>
       <r>     1.7196    44.7240    46.7130 </r>
       <r>     1.7661    41.7674    48.6554 </r>
       <r>     1.8126    40.6082    50.5440 </r>
       <r>     1.8591    44.0244    52.5913 </r>
       <r>     1.9056    52.5413    55.0348 </r>
       <r>     1.9521    64.3206    58.0261 </r>
       <r>     1.9986    76.3768    61.5781 </r>
       <r>     2.0451    86.1781    65.5858 </r>
       <r>     2.0916    92.6935    69.8966 </r>
       <r>     2.1381    96.5474    74.3867 </r>
       <r>     2.1846    99.4787    79.0130 </r>
       <r>     2.2311   103.4192    83.8226 </r>
       <r>     2.2776   109.4350    88.9119 </r>
       <r>     2.3242   116.8615    94.3467 </r>
       <r>     2.3707   123.1982   100.0761 </r>
       <r>     2.4172   125.2237   105.8997 </r>
       <r>     2.4637   121.0374   111.5287 </r>
       <r>     2.5102   111.7938   116.7278 </r>
       <r>     2.5567   101.7384   121.4592 </r>
       <r>     2.6032    96.2249   125.9342 </r>
       <r>     2.6497    98.9285   130.5350 </r>
       <r>     2.6962   110.1138   135.6559 </r>
       <r>     2.7427   126.9605   141.5603 </r>
       <r>     2.7892   145.3472   148.3198 </r>
       <r>     2.8357   161.5738   155.8339 </r>
       <r>     2.8822   173.0176   163.8802 </r>
       <r>     2.9287   178.0159   172.1590 </r>
       <r>     2.9752   175.9577   180.3421 </r>
       <r>     3.0217   167.9342   188.1520 </r>
       <r>     3.0682   157.1638   195.4610 </r>
       <r>     3.1148   148.1872   202.3526 </r>
       <r>     3.1613   144.9004   209.0913 </r>
       <r>     3.2078   148.6466   216.0042 </r>
       <r>     3.2543   157.5791   223.3325 </r>
       <r>     3.3008   167.5189   231.1231 </r>
       <r>     3.3473   173.7178   239.2020 </r>
       <r>     3.3938   172.8119   247.2388 </r>
       <r>     3.4403   164.3386   254.8815 </r>
       <r>     3.4868   151.1653   261.9116 </r>
       <r>     3.5333   138.3843   268.3472 </r>
       <r>     3.5798   130.9655   274.4379 </r>
       <r>     3.6263   131.2778   280.5431 </r>
       <r>     3.6728   137.8123   286.9521 </r>
       <r>     3.7193   145.8933   293.7370 </r>
       <r>     3.7658   150.1568   300.7202 </r>
       <r>     3.8123   147.5752   307.5833 </r>
       <r>     3.8588   139.2896   314.0611 </r>
       <r>     3.9054   129.9841   320.1061 </r>
       <r>     3.9519   124.9772   325.9183 </r>
       <r>     3.9984   126.7780   331.8142 </r>
       <r>     4.0449   133.3702   338.0167 </r>
       <r>     4.0914   139.4453   344.5017 </r>
       <r>     4.1379   139.8945   351.0076 </r>
       <r>     4.1844   133.3692   357.2100 </r>
       <r>     4.2309   123.6262   362.9594 </r>
       <r>     4.2774   117.7120   368.4337 </r>
       <r>     4.3239   121.9817   374.1065 </r>
       <r>     4.3704   138.3072   380.5386 </r>
       <r>     4.4169   162.7876   388.1092 </r>
       <r>     4.4634   187.7701   396.8416 </r>
       <r>     4.5099   205.8595   406.4152 </r>
       <r>     4.5564   213.2902   416.3345 </r>
       <r>     4.6029   210.6618   426.1315 </r>
       <r>     4.6494   201.1952   435.4882 </r>
       <r>     4.6960   188.4702   444.2532 </r>
       <r>     4.7425   175.4476   452.4125 </r>
       <r>     4.7890   164.8886   460.0808 </r>
       <r>     4.8355   159.8810   467.5162 </r>
       <r>     4.8820   163.3018   475.1107 </r>
       <r>     4.9285   176.2717   483.3083 </r>
       <r>     4.9750   196.7688   492.4592 </r>
       <r>     5.0215   219.7246   502.6777 </r>
       <r>     5.0680   239.0256   513.7938 </r>
       <r>     5.1145   250.4272   525.4401 </r>
       <r>     5.1610   253.5243   537.2305 </r>
       <r>     5.2075   251.4646   548.9250 </r>
       <r>     5.2540   248.7181   560.4919 </r>
       <r>     5.3005   248.4711   572.0472 </r>
       <r>     5.3470   251.0862   583.7242 </r>
       <r>     5.3935   254.1309   595.5427 </r>
       <r>     5.4400   253.8070   607.3462 </r>
       <r>     5.4865   247.2421   618.8444 </r>
       <r>     5.5331   234.5219   629.7511 </r>
       <r>     5.5796   219.0114   639.9364 </r>
       <r>     5.6261   205.4112   649.4892 </r>
       <r>     5.6726   196.7755   658.6404 </r>
       <r>     5.7191   192.6409   667.5993 </r>
       <r>     5.7656   189.5310   676.4136 </r>
       <r>     5.8121   183.3464   684.9403 </r>
       <r>     5.8586   172.0435   692.9413 </r>
       <r>     5.9051   157.0677   700.2459 </r>
       <r>     5.9516   142.8150   706.8876 </r>
       <r>     5.9981   134.4025   713.1381 </r>
       <r>     6.0446   134.8925   719.4114 </r>
       <r>     6.0911   143.5347   726.0866 </r>
       <r>     6.1376   156.2244   733.3519 </r>
       <r>     6.1841   168.0815   741.1687 </r>
       <r>     6.2306   176.4196   749.3732 </r>
       <r>     6.2771   181.8097   757.8284 </r>
       <r>     6.3237   186.4650   766.5001 </r>
       <r>     6.3702   191.6886   775.4148 </r>
       <r>     6.4167   196.9976   784.5763 </r>
       <r>     6.4632   201.5484   793.9495 </r>
       <r>     6.5097   205.7814   803.5195 </r>
       <r>     6.5562   211.0053   813.3325 </r>
       <r>     6.6027   217.2286   823.4349 </r>
       <r>     6.6492   221.8180   833.7507 </r>
       <r>     6.6957   220.8045   844.0194 </r>
       <r>     6.7422   211.8365   853.8710 </r>
       <r>     6.7887   196.1225   862.9919 </r>
       <r>     6.8352   177.8642   871.2636 </r>
       <r>     6.8817   162.0677   878.8007 </r>
       <r>     6.9282   152.6596   885.9002 </r>
       <r>     6.9747   151.7827   892.9590 </r>
       <r>     7.0212   159.6176   900.3822 </r>
       <r>     7.0677   173.9423   908.4715 </r>
       <r>     7.1143   189.8996   917.3029 </r>
       <r>     7.1608   201.2347   926.6615 </r>
       <r>     7.2073   203.2314   936.1129 </r>
       <r>     7.2538   195.5885   945.2089 </r>
       <r>     7.3003   182.8782   953.7138 </r>
       <r>     7.3468   171.9632   961.7111 </r>
       <r>     7.3933   168.1942   969.5331 </r>
       <r>     7.4398   172.9264   977.5752 </r>
       <r>     7.4863   183.4060   986.1047 </r>
       <r>     7.5328   194.2247   995.1372 </r>
       <r>     7.5793   199.1150  1004.3973 </r>
       <r>     7.6258   192.6875  1013.3583 </r>
       <r>     7.6723   172.2289  1021.3680 </r>
       <r>     7.7188   139.1582  1027.8397 </r>
       <r>     7.7653    99.0803  1032.4475 </r>
       <r>     7.8118    59.8162  1035.2293 </r>
       <r>     7.8583    28.2263  1036.5420 </r>
       <r>     7.9049     7.6725  1036.8988 </r>
       <r>     7.9514    -2.4779  1036.7835 </r>
       <r>     7.9979    -5.4061  1036.5321 </r>
       <r>     8.0444    -4.7395  1036.3117 </r>
       <r>     8.0909    -3.0944  1036.1678 </r>
       <r>     8.1374    -1.7195  1036.0878 </r>
       <r>     8.1839    -0.8900  1036.0464 </r>
       <r>     8.2304    -0.4657  1036.0248 </r>
       <r>     8.2769    -0.2555  1036.0129 </r>
       <r>     8.3234    -0.1419  1036.0063 </r>
       <r>     8.3699    -0.0751  1036.0028 </r>
       <r>     8.4164    -0.0362  1036.0011 </r>
       <r>     8.4629    -0.0155  1036.0004 </r>
       <r>     8.5094    -0.0059  1036.0001 </r>
       <r>     8.5559    -0.0020  1036.0000 </r>
       <r>     8.6024    -0.0006  1036.0000 </r>
       <r>     8.6489    -0.0002  1036.0000 </r>
       <r>     8.6955    -0.0000  1036.0000 </r>
       <r>     8.7420    -0.0000  1036.0000 </r>
       <r>     8.7885    -0.0000  1036.0000 </r>
       <r>     8.8350    -0.0000  1036.0000 </r>
       <r>     8.8815    -0.0000  1036.0000 </r>
       <r>     8.9280    -0.0000  1036.0000 </r>
       <r>     8.9745    -0.0000  1036.0000 </r>
       <r>     9.0210    -0.0000  1036.0000 </r>
       <r>     9.0675    -0.0000  1036.0000 </r>
       <r>     9.1140    -0.0000  1036.0000 </r>
       <r>     9.1605    -0.0000  1036.0000 </r>
       <r>     9.2070    -0.0000  1036.0000 </r>
       <r>     9.2535     0.0000  1036.0000 </r>
       <r>     9.3000     0.0000  1036.0000 </r>
       <r>     9.3465     0.0000  1036.0000 </r>
       <r>     9.3930     0.0000  1036.0000 </r>
       <r>     9.4395     0.0000  1036.0000 </r>
       <r>     9.4860     0.0000  1036.0000 </r>
       <r>     9.5326     0.0000  1036.0000 </r>
       <r>     9.5791     0.0000  1036.0000 </r>
       <r>     9.6256     0.0000  1036.0000 </r>
       <r>     9.6721     0.0000  1036.0000 </r>
       <r>     9.7186     0.0000  1036.0000 </r>
       <r>     9.7651     0.0000  1036.0000 </r>
       <r>     9.8116     0.0000  1036.0000 </r>
       <r>     9.8581     0.0000  1036.0000 </r>
       <r>     9.9046     0.0000  1036.0000 </r>
       <r>     9.9511     0.0000  1036.0000 </r>
      </set>
     </set>
    </array>
   </total>
  </dos>
 </calculation>
 <structure name="finalpos" >
  <crystal>
   <varray name="basis" >
    <v>      10.33484705       0.00000000       0.00000000 </v>
    <v>       0.00000000      10.33484705       0.00000000 </v>
    <v>       0.00000000       0.00000000      10.33484705 </v>
   </varray>
   <i name="volume">   1103.85533447 </i>
   <varray name="rec_basis" >
    <v>       0.09676002       0.00000000       0.00000000 </v>
    <v>       0.00000000       0.09676002       0.00000000 </v>
    <v>       0.00000000       0.00000000       0.09676002 </v>
   </varray>
  </crystal>
  <varray name="positions" >
   <v>       0.00000000       0.00000000       0.00000000 </v>
   <v>       0.00000000       0.16666893       0.16666893 </v>
   <v>       0.16666893       0.00000000       0.16666893 </v>
   <v>       0.16666893       0.16666893       0.00000000 </v>
   <v>       0.33333106       0.00000000       0.00000000 </v>
   <v>       0.33333107       0.16666893       0.16666893 </v>
   <v>       0.50000000       0.00000000       0.16666894 </v>
   <v>       0.50000000       0.16666894       0.00000000 </v>
   <v>       0.66666897       0.00000000       0.00000000 </v>
   <v>       0.66666896       0.16666893       0.16666893 </v>
   <v>       0.83333104       0.00000000       0.16666893 </v>
   <v>       0.83333104       0.16666893       0.00000000 </v>
   <v>       0.00000000       0.33333106       0.00000000 </v>
   <v>       0.00000000       0.50000000       0.16666894 </v>
   <v>       0.16666893       0.33333107       0.16666893 </v>
   <v>       0.16666894       0.50000000       0.00000000 </v>
   <v>       0.33333107       0.33333107       0.00000000 </v>
   <v>       0.33333107       0.50000000       0.16666893 </v>
   <v>       0.50000000       0.33333107       0.16666893 </v>
   <v>       0.50000000       0.50000000       0.00000000 </v>
   <v>       0.66666896       0.33333107       0.00000000 </v>
   <v>       0.66666896       0.50000000       0.16666893 </v>
   <v>       0.83333104       0.33333107       0.16666893 </v>
   <v>       0.83333103       0.50000000       0.00000000 </v>
   <v>       0.00000000       0.66666897       0.00000000 </v>
   <v>       0.00000000       0.83333104       0.16666893 </v>
   <v>       0.16666893       0.66666896       0.16666893 </v>
   <v>       0.16666893       0.83333104       0.00000000 </v>
   <v>       0.33333107       0.66666896       0.00000000 </v>
   <v>       0.33333107       0.83333104       0.16666893 </v>
   <v>       0.50000000       0.66666896       0.16666893 </v>
   <v>       0.50000000       0.83333103       0.00000000 </v>
   <v>       0.66666896       0.66666896       0.00000000 </v>
   <v>       0.66666896       0.83333104       0.16666893 </v>
   <v>       0.83333104       0.66666896       0.16666893 </v>
   <v>       0.83333104       0.83333104       0.00000000 </v>
   <v>       0.00000000       0.00000000       0.33333106 </v>
   <v>       0.00000000       0.16666894       0.50000000 </v>
   <v>       0.16666894       0.00000000       0.50000000 </v>
   <v>       0.16666893       0.16666893       0.33333107 </v>
   <v>       0.33333107       0.00000000       0.33333107 </v>
   <v>       0.33333107       0.16666893       0.50000000 </v>
   <v>       0.50000000       0.00000000       0.50000000 </v>
   <v>       0.50000000       0.16666893       0.33333107 </v>
   <v>       0.66666896       0.00000000       0.33333107 </v>
   <v>       0.66666896       0.16666893       0.50000000 </v>
   <v>       0.83333103       0.00000000       0.50000000 </v>
   <v>       0.83333104       0.16666893       0.33333107 </v>
   <v>       0.00000000       0.33333107       0.33333107 </v>
   <v>       0.00000000       0.50000000       0.50000000 </v>
   <v>       0.16666893       0.33333107       0.50000000 </v>
   <v>       0.16666893       0.50000000       0.33333107 </v>
   <v>       0.33333107       0.33333107       0.33333107 </v>
   <v>       0.33333106       0.50000000       0.50000000 </v>
   <v>       0.50000000       0.33333106       0.50000000 </v>
   <v>       0.50000000       0.50000000       0.33333106 </v>
   <v>       0.66666896       0.33333107       0.33333107 </v>
   <v>       0.66666897       0.50000000       0.50000000 </v>
   <v>       0.83333104       0.33333107       0.50000000 </v>
   <v>       0.83333104       0.50000000       0.33333107 </v>
   <v>       0.00000000       0.66666896       0.33333107 </v>
   <v>       0.00000000       0.83333103       0.50000000 </v>
   <v>       0.16666893       0.66666896       0.50000000 </v>
   <v>       0.16666893       0.83333104       0.33333107 </v>
   <v>       0.33333107       0.66666896       0.33333107 </v>
   <v>       0.33333107       0.83333104       0.50000000 </v>
   <v>       0.50000000       0.66666897       0.50000000 </v>
   <v>       0.50000000       0.83333104       0.33333107 </v>
   <v>       0.66666896       0.66666896       0.33333107 </v>
   <v>       0.66666896       0.83333104       0.50000000 </v>
   <v>       0.83333104       0.66666896       0.50000000 </v>
   <v>       0.83333104       0.83333104       0.33333107 </v>
   <v>       0.00000000       0.00000000       0.66666897 </v>
   <v>       0.00000000       0.16666893       0.83333104 </v>
   <v>       0.16666893       0.00000000       0.83333104 </v>
   <v>       0.16666893       0.16666893       0.66666896 </v>
   <v>       0.33333107       0.00000000       0.66666896 </v>
   <v>       0.33333107       0.16666893       0.83333104 </v>
   <v>       0.50000000       0.00000000       0.83333103 </v>
   <v>       0.50000000       0.16666893       0.66666896 </v>
   <v>       0.66666896       0.00000000       0.66666896 </v>
   <v>       0.66666896       0.16666893       0.83333104 </v>
   <v>       0.83333104       0.00000000       0.83333104 </v>
   <v>       0.83333104       0.16666893       0.66666896 </v>
   <v>       0.00000000       0.33333107       0.66666896 </v>
   <v>       0.00000000       0.50000000       0.83333103 </v>
   <v>       0.16666893       0.33333107       0.83333104 </v>
   <v>       0.16666893       0.50000000       0.66666896 </v>
   <v>       0.33333107       0.33333107       0.66666896 </v>
   <v>       0.33333107       0.50000000       0.83333104 </v>
   <v>       0.50000000       0.33333107       0.83333104 </v>
   <v>       0.50000000       0.50000000       0.66666897 </v>
   <v>       0.66666896       0.33333107       0.66666896 </v>
   <v>       0.66666896       0.50000000       0.83333104 </v>
   <v>       0.83333104       0.33333107       0.83333104 </v>
   <v>       0.83333104       0.50000000       0.66666896 </v>
   <v>       0.00000000       0.66666896       0.66666896 </v>
   <v>       0.00000000       0.83333104       0.83333104 </v>
   <v>       0.16666893       0.66666896       0.83333104 </v>
   <v>       0.16666893       0.83333104       0.66666896 </v>
   <v>       0.33333107       0.66666896       0.66666896 </v>
   <v>       0.33333107       0.83333104       0.83333104 </v>
   <v>       0.50000000       0.66666896       0.83333104 </v>
   <v>       0.50000000       0.83333104       0.66666896 </v>
   <v>       0.66666896       0.66666896       0.66666896 </v>
   <v>       0.66666896       0.83333104       0.83333104 </v>
   <v>       0.83333104       0.66666896       0.83333104 </v>
   <v>       0.83333104       0.83333104       0.66666896 </v>
  </varray>
 </structure>
</modeling>
