 107 107   0   0
  0.1031640E+02  0.1033485E-08  0.1033485E-08  0.1033485E-08  0.5000000E-15
  1.000000000000000E-004
  CAR 
 Opt                                     
      9.82617918     -8.94000234  301      6.93908009      1.00000000
     -8.940  0.0000E+00  0.0000E+00
     -8.877  0.0000E+00  0.0000E+00
     -8.815  0.0000E+00  0.0000E+00
     -8.752  0.0000E+00  0.0000E+00
     -8.690  0.0000E+00  0.0000E+00
     -8.627  0.0000E+00  0.0000E+00
     -8.565 -0.1558E-28 -0.9746E-30
     -8.502 -0.2174E-26 -0.1370E-27
     -8.440 -0.2505E-24 -0.1581E-25
     -8.377 -0.2369E-22 -0.1497E-23
     -8.314 -0.1837E-20 -0.1164E-21
     -8.252 -0.1169E-18 -0.7427E-20
     -8.189 -0.6096E-17 -0.3887E-18
     -8.127 -0.2606E-15 -0.1669E-16
     -8.064 -0.8833E-14 -0.5692E-15
     -8.002 -0.2525E-12 -0.1637E-13
     -7.939 -0.5897E-11 -0.3853E-12
     -7.877 -0.1125E-09 -0.7422E-11
     -7.814 -0.1750E-08 -0.1169E-09
     -7.751 -0.2217E-07 -0.1504E-08
     -7.689 -0.2282E-06 -0.1578E-07
     -7.626 -0.1902E-05 -0.1348E-06
     -7.564 -0.1279E-04 -0.9345E-06
     -7.501 -0.6885E-04 -0.5241E-05
     -7.439 -0.2940E-03 -0.2363E-04
     -7.376 -0.9780E-03 -0.8481E-04
     -7.314 -0.2446E-02 -0.2378E-03
     -7.251 -0.4206E-02 -0.5010E-03
     -7.188 -0.3310E-02 -0.7080E-03
     -7.126  0.6043E-02 -0.3300E-03
     -7.063  0.2820E-01  0.1434E-02
     -7.001  0.5826E-01  0.5079E-02
     -6.938  0.8048E-01  0.1011E-01
     -6.876  0.7993E-01  0.1511E-01
     -6.813  0.5700E-01  0.1868E-01
     -6.751  0.2701E-01  0.2037E-01
     -6.688  0.5391E-02  0.2071E-01
     -6.626 -0.3475E-02  0.2049E-01
     -6.563 -0.4153E-02  0.2023E-01
     -6.500 -0.2368E-02  0.2008E-01
     -6.438 -0.9341E-03  0.2002E-01
     -6.375 -0.2777E-03  0.2000E-01
     -6.313 -0.6436E-04  0.2000E-01
     -6.250 -0.1184E-04  0.2000E-01
     -6.188 -0.1745E-05  0.2000E-01
     -6.125 -0.2074E-06  0.2000E-01
     -6.063 -0.1997E-07  0.2000E-01
     -6.000 -0.1563E-08  0.2000E-01
     -5.937 -0.9957E-10  0.2000E-01
     -5.875 -0.5175E-11  0.2000E-01
     -5.812 -0.2197E-12  0.2000E-01
     -5.750 -0.7632E-14  0.2000E-01
     -5.687 -0.2130E-15  0.2000E-01
     -5.625  0.0000E+00  0.2000E-01
     -5.562  0.0000E+00  0.2000E-01
     -5.500  0.0000E+00  0.2000E-01
     -5.437  0.0000E+00  0.2000E-01
     -5.374  0.0000E+00  0.2000E-01
     -5.312  0.0000E+00  0.2000E-01
     -5.249  0.0000E+00  0.2000E-01
     -5.187  0.0000E+00  0.2000E-01
     -5.124  0.0000E+00  0.2000E-01
     -5.062  0.0000E+00  0.2000E-01
     -4.999  0.0000E+00  0.2000E-01
     -4.937  0.0000E+00  0.2000E-01
     -4.874  0.0000E+00  0.2000E-01
     -4.811  0.0000E+00  0.2000E-01
     -4.749  0.0000E+00  0.2000E-01
     -4.686  0.0000E+00  0.2000E-01
     -4.624  0.0000E+00  0.2000E-01
     -4.561  0.0000E+00  0.2000E-01
     -4.499  0.0000E+00  0.2000E-01
     -4.436  0.0000E+00  0.2000E-01
     -4.374  0.0000E+00  0.2000E-01
     -4.311  0.0000E+00  0.2000E-01
     -4.248  0.0000E+00  0.2000E-01
     -4.186  0.0000E+00  0.2000E-01
     -4.123  0.0000E+00  0.2000E-01
     -4.061  0.0000E+00  0.2000E-01
     -3.998  0.0000E+00  0.2000E-01
     -3.936  0.0000E+00  0.2000E-01
     -3.873  0.0000E+00  0.2000E-01
     -3.811  0.0000E+00  0.2000E-01
     -3.748  0.0000E+00  0.2000E-01
     -3.685  0.0000E+00  0.2000E-01
     -3.623  0.0000E+00  0.2000E-01
     -3.560  0.0000E+00  0.2000E-01
     -3.498  0.0000E+00  0.2000E-01
     -3.435  0.0000E+00  0.2000E-01
     -3.373  0.0000E+00  0.2000E-01
     -3.310 -0.7722E-30  0.2000E-01
     -3.248 -0.1117E-27  0.2000E-01
     -3.185 -0.1335E-25  0.2000E-01
     -3.122 -0.1308E-23  0.2000E-01
     -3.060 -0.1052E-21  0.2000E-01
     -2.997 -0.6942E-20  0.2000E-01
     -2.935 -0.3755E-18  0.2000E-01
     -2.872 -0.1665E-16  0.2000E-01
     -2.810 -0.5856E-15  0.2000E-01
     -2.747 -0.1739E-13  0.2000E-01
     -2.685 -0.4217E-12  0.2000E-01
     -2.622 -0.8357E-11  0.2000E-01
     -2.560 -0.1352E-09  0.2000E-01
     -2.497 -0.1785E-08  0.2000E-01
     -2.434 -0.1917E-07  0.2000E-01
     -2.372 -0.1674E-06  0.2000E-01
     -2.309 -0.1185E-05  0.2000E-01
     -2.247 -0.6782E-05  0.2000E-01
     -2.184 -0.3123E-04  0.2000E-01
     -2.122 -0.1149E-03  0.1999E-01
     -2.059 -0.3341E-03  0.1997E-01
     -1.997 -0.7490E-03  0.1992E-01
     -1.934 -0.1216E-02  0.1985E-01
     -1.871 -0.1100E-02  0.1978E-01
     -1.809  0.8291E-03  0.1983E-01
     -1.746  0.5973E-02  0.2020E-01
     -1.684  0.1492E-01  0.2114E-01
     -1.621  0.2643E-01  0.2279E-01
     -1.559  0.3744E-01  0.2513E-01
     -1.496  0.4471E-01  0.2793E-01
     -1.434  0.4755E-01  0.3090E-01
     -1.371  0.4925E-01  0.3398E-01
     -1.308  0.5481E-01  0.3741E-01
     -1.246  0.6532E-01  0.4150E-01
     -1.183  0.7476E-01  0.4618E-01
     -1.121  0.7532E-01  0.5089E-01
     -1.058  0.6732E-01  0.5510E-01
     -0.996  0.6118E-01  0.5893E-01
     -0.933  0.6746E-01  0.6315E-01
     -0.871  0.8625E-01  0.6854E-01
     -0.808  0.1074E+00  0.7526E-01
     -0.745  0.1204E+00  0.8279E-01
     -0.683  0.1224E+00  0.9045E-01
     -0.620  0.1175E+00  0.9780E-01
     -0.558  0.1095E+00  0.1047E+00
     -0.495  0.1007E+00  0.1110E+00
     -0.433  0.9706E-01  0.1170E+00
     -0.370  0.1063E+00  0.1237E+00
     -0.308  0.1255E+00  0.1315E+00
     -0.245  0.1372E+00  0.1401E+00
     -0.182  0.1267E+00  0.1480E+00
     -0.120  0.1014E+00  0.1544E+00
     -0.057  0.8289E-01  0.1596E+00
      0.005  0.8418E-01  0.1648E+00
      0.068  0.1015E+00  0.1712E+00
      0.130  0.1246E+00  0.1790E+00
      0.193  0.1462E+00  0.1881E+00
      0.255  0.1611E+00  0.1982E+00
      0.318  0.1662E+00  0.2086E+00
      0.381  0.1614E+00  0.2187E+00
      0.443  0.1495E+00  0.2280E+00
      0.506  0.1344E+00  0.2364E+00
      0.568  0.1216E+00  0.2441E+00
      0.631  0.1158E+00  0.2513E+00
      0.693  0.1184E+00  0.2587E+00
      0.756  0.1274E+00  0.2667E+00
      0.818  0.1401E+00  0.2754E+00
      0.881  0.1540E+00  0.2851E+00
      0.944  0.1664E+00  0.2955E+00
      1.006  0.1772E+00  0.3066E+00
      1.069  0.1893E+00  0.3184E+00
      1.131  0.2041E+00  0.3312E+00
      1.194  0.2171E+00  0.3448E+00
      1.256  0.2219E+00  0.3586E+00
      1.319  0.2161E+00  0.3722E+00
      1.381  0.2043E+00  0.3849E+00
      1.444  0.1958E+00  0.3972E+00
      1.507  0.2014E+00  0.4098E+00
      1.569  0.2264E+00  0.4239E+00
      1.632  0.2633E+00  0.4404E+00
      1.694  0.2941E+00  0.4588E+00
      1.757  0.3060E+00  0.4780E+00
      1.819  0.3061E+00  0.4971E+00
      1.882  0.3201E+00  0.5171E+00
      1.944  0.3759E+00  0.5406E+00
      2.007  0.4845E+00  0.5709E+00
      2.069  0.6322E+00  0.6105E+00
      2.132  0.7873E+00  0.6597E+00
      2.195  0.9162E+00  0.7171E+00
      2.257  0.9971E+00  0.7794E+00
      2.320  0.1028E+01  0.8437E+00
      2.382  0.1026E+01  0.9079E+00
      2.445  0.1017E+01  0.9716E+00
      2.507  0.1017E+01  0.1035E+01
      2.570  0.1033E+01  0.1100E+01
      2.632  0.1064E+01  0.1166E+01
      2.695  0.1110E+01  0.1236E+01
      2.758  0.1176E+01  0.1309E+01
      2.820  0.1260E+01  0.1388E+01
      2.883  0.1346E+01  0.1472E+01
      2.945  0.1415E+01  0.1561E+01
      3.008  0.1463E+01  0.1652E+01
      3.070  0.1505E+01  0.1747E+01
      3.133  0.1553E+01  0.1844E+01
      3.195  0.1601E+01  0.1944E+01
      3.258  0.1630E+01  0.2046E+01
      3.321  0.1633E+01  0.2148E+01
      3.383  0.1614E+01  0.2249E+01
      3.446  0.1582E+01  0.2348E+01
      3.508  0.1545E+01  0.2445E+01
      3.571  0.1517E+01  0.2539E+01
      3.633  0.1508E+01  0.2634E+01
      3.696  0.1508E+01  0.2728E+01
      3.758  0.1493E+01  0.2822E+01
      3.821  0.1448E+01  0.2912E+01
      3.884  0.1384E+01  0.2999E+01
      3.946  0.1329E+01  0.3082E+01
      4.009  0.1304E+01  0.3163E+01
      4.071  0.1301E+01  0.3245E+01
      4.134  0.1300E+01  0.3326E+01
      4.196  0.1287E+01  0.3407E+01
      4.259  0.1279E+01  0.3487E+01
      4.321  0.1305E+01  0.3568E+01
      4.384  0.1374E+01  0.3654E+01
      4.447  0.1469E+01  0.3746E+01
      4.509  0.1570E+01  0.3844E+01
      4.572  0.1665E+01  0.3948E+01
      4.634  0.1744E+01  0.4057E+01
      4.697  0.1788E+01  0.4169E+01
      4.759  0.1783E+01  0.4281E+01
      4.822  0.1746E+01  0.4390E+01
      4.884  0.1731E+01  0.4498E+01
      4.947  0.1784E+01  0.4610E+01
      5.010  0.1904E+01  0.4729E+01
      5.072  0.2045E+01  0.4857E+01
      5.135  0.2154E+01  0.4992E+01
      5.197  0.2210E+01  0.5130E+01
      5.260  0.2232E+01  0.5270E+01
      5.322  0.2257E+01  0.5411E+01
      5.385  0.2309E+01  0.5555E+01
      5.447  0.2388E+01  0.5705E+01
      5.510  0.2471E+01  0.5859E+01
      5.573  0.2518E+01  0.6017E+01
      5.635  0.2482E+01  0.6172E+01
      5.698  0.2347E+01  0.6319E+01
      5.760  0.2142E+01  0.6453E+01
      5.823  0.1930E+01  0.6573E+01
      5.885  0.1758E+01  0.6683E+01
      5.948  0.1631E+01  0.6785E+01
      6.010  0.1533E+01  0.6881E+01
      6.073  0.1467E+01  0.6973E+01
      6.135  0.1447E+01  0.7064E+01
      6.198  0.1481E+01  0.7156E+01
      6.261  0.1553E+01  0.7253E+01
      6.323  0.1636E+01  0.7356E+01
      6.386  0.1714E+01  0.7463E+01
      6.448  0.1790E+01  0.7575E+01
      6.511  0.1872E+01  0.7692E+01
      6.573  0.1959E+01  0.7814E+01
      6.636  0.2024E+01  0.7941E+01
      6.698  0.2042E+01  0.8069E+01
      6.761  0.2017E+01  0.8195E+01
      6.824  0.1979E+01  0.8319E+01
      6.886  0.1939E+01  0.8440E+01
      6.949  0.1883E+01  0.8558E+01
      7.011  0.1803E+01  0.8671E+01
      7.074  0.1729E+01  0.8779E+01
      7.136  0.1701E+01  0.8885E+01
      7.199  0.1727E+01  0.8993E+01
      7.261  0.1771E+01  0.9104E+01
      7.324  0.1801E+01  0.9217E+01
      7.387  0.1820E+01  0.9331E+01
      7.449  0.1859E+01  0.9447E+01
      7.512  0.1944E+01  0.9568E+01
      7.574  0.2073E+01  0.9698E+01
      7.637  0.2194E+01  0.9835E+01
      7.699  0.2198E+01  0.9973E+01
      7.762  0.1974E+01  0.1010E+02
      7.824  0.1501E+01  0.1019E+02
      7.887  0.9023E+00  0.1025E+02
      7.950  0.3744E+00  0.1027E+02
      8.012  0.5030E-01  0.1027E+02
      8.075 -0.7053E-01  0.1027E+02
      8.137 -0.7358E-01  0.1026E+02
      8.200 -0.4246E-01  0.1026E+02
      8.262 -0.1760E-01  0.1026E+02
      8.325 -0.5609E-02  0.1026E+02
      8.387 -0.1413E-02  0.1026E+02
      8.450 -0.2853E-03  0.1026E+02
      8.513 -0.4656E-04  0.1026E+02
      8.575 -0.6167E-05  0.1026E+02
      8.638 -0.6656E-06  0.1026E+02
      8.700 -0.5865E-07  0.1026E+02
      8.763 -0.4226E-08  0.1026E+02
      8.825 -0.2493E-09  0.1026E+02
      8.888 -0.1206E-10  0.1026E+02
      8.950 -0.4782E-12  0.1026E+02
      9.013 -0.1559E-13  0.1026E+02
      9.076 -0.3971E-15  0.1026E+02
      9.138  0.0000E+00  0.1026E+02
      9.201  0.0000E+00  0.1026E+02
      9.263  0.0000E+00  0.1026E+02
      9.326  0.0000E+00  0.1026E+02
      9.388  0.0000E+00  0.1026E+02
      9.451  0.0000E+00  0.1026E+02
      9.513  0.0000E+00  0.1026E+02
      9.576  0.0000E+00  0.1026E+02
      9.639  0.0000E+00  0.1026E+02
      9.701  0.0000E+00  0.1026E+02
      9.764  0.0000E+00  0.1026E+02
      9.826  0.0000E+00  0.1026E+02
