  107  107  100    1
  0.1031640E+02  0.1033485E-08  0.1033485E-08  0.1033485E-08  0.5000000E-15
  1.000000000000000E-004
  CAR 
 Opt                                     
    854     32    513
 
  0.1250000E+00  0.1250000E+00  0.1250000E+00  0.3125000E-01
    1       -6.940002   1.000000
    2       -1.673931   1.000000
    3       -0.875931   1.000000
    4       -0.849351   1.000000
    5       -0.692904   1.000000
    6       -0.279974   1.000000
    7       -0.264033   1.000000
    8       -0.250615   1.000000
    9        0.163864   1.000000
   10        0.246286   1.000000
   11        0.413660   1.000000
   12        0.459259   1.000000
   13        0.519332   1.000000
   14        0.792615   1.000000
   15        0.937032   1.000000
   16        0.955244   1.000000
   17        1.008158   1.000000
   18        1.122790   1.000000
   19        1.250609   1.000000
   20        1.290054   1.000000
   21        1.340635   1.000000
   22        1.477946   1.000000
   23        1.497541   1.000000
   24        1.634915   1.000000
   25        1.637452   1.000000
   26        1.672913   1.000000
   27        1.705322   1.000000
   28        1.819777   1.000000
   29        1.823677   1.000000
   30        1.891593   1.000000
   31        2.014074   1.000000
   32        2.038043   1.000000
   33        2.043009   1.000000
   34        2.050699   1.000000
   35        2.058657   1.000000
   36        2.060549   1.000000
   37        2.132267   1.000000
   38        2.221879   1.000000
   39        2.241734   1.000000
   40        2.467726   1.000000
   41        2.492345   1.000000
   42        2.493135   1.000000
   43        2.519604   1.000000
   44        2.583621   1.000000
   45        2.593925   1.000000
   46        2.599501   1.000000
   47        2.600874   1.000000
   48        2.611898   1.000000
   49        2.612266   1.000000
   50        2.619151   1.000000
   51        2.627626   1.000000
   52        2.644349   1.000000
   53        2.651019   1.000000
   54        2.651459   1.000000
   55        2.661764   1.000000
   56        2.662714   1.000000
   57        2.669803   1.000000
   58        2.673479   1.000000
   59        2.713391   1.000000
   60        2.716041   1.000000
   61        2.725662   1.000000
   62        2.731414   1.000000
   63        2.753381   1.000000
   64        2.767071   1.000000
   65        2.771674   1.000000
   66        2.779827   1.000000
   67        2.782309   1.000000
   68        2.798166   1.000000
   69        2.834437   1.000000
   70        2.835846   1.000000
   71        2.849339   1.000000
   72        2.858211   1.000000
   73        2.863782   1.000000
   74        2.868178   1.000000
   75        2.887363   1.000000
   76        2.891028   1.000000
   77        2.904795   1.000000
   78        2.905575   1.000000
   79        2.917839   1.000000
   80        2.927090   1.000000
   81        2.936886   1.000000
   82        2.936938   1.000000
   83        2.949812   1.000000
   84        2.955295   1.000000
   85        2.971148   1.000000
   86        2.989566   1.000000
   87        2.992635   1.000000
   88        3.015330   1.000000
   89        3.021219   1.000000
   90        3.051201   1.000000
   91        3.061371   1.000000
   92        3.092572   1.000000
   93        3.109682   1.000000
   94        3.159957   1.000000
   95        3.169955   1.000000
   96        3.190743   1.000000
   97        3.192958   1.000000
   98        3.202355   1.000000
   99        3.203923   1.000000
  100        3.207745   1.000000
  101        3.231174   1.000000
  102        3.232036   1.000000
  103        3.268132   1.000000
  104        3.268305   1.000000
  105        3.286489   1.000000
  106        3.291992   1.000000
  107        3.294808   1.000000
  108        3.321135   1.000000
  109        3.334917   1.000000
  110        3.337477   1.000000
  111        3.388837   1.000000
  112        3.414849   1.000000
  113        3.433799   1.000000
  114        3.436537   1.000000
  115        3.445813   1.000000
  116        3.448239   1.000000
  117        3.460228   1.000000
  118        3.479384   1.000000
  119        3.495284   1.000000
  120        3.504024   1.000000
  121        3.517716   1.000000
  122        3.520868   1.000000
  123        3.538846   1.000000
  124        3.562816   1.000000
  125        3.570500   1.000000
  126        3.583174   1.000000
  127        3.592188   1.000000
  128        3.593711   1.000000
  129        3.608784   1.000000
  130        3.612430   1.000000
  131        3.614930   1.000000
  132        3.615306   1.000000
  133        3.638741   1.000000
  134        3.639572   1.000000
  135        3.654927   1.000000
  136        3.667799   1.000000
  137        3.669778   1.000000
  138        3.688431   1.000000
  139        3.697578   1.000000
  140        3.703360   1.000000
  141        3.717196   1.000000
  142        3.728582   1.000000
  143        3.739297   1.000000
  144        3.759097   1.000000
  145        3.767023   1.000000
  146        3.777458   1.000000
  147        3.792728   1.000000
  148        3.810710   1.000000
  149        3.824979   1.000000
  150        3.835595   1.000000
  151        3.854431   1.000000
  152        3.854885   1.000000
  153        3.868625   1.000000
  154        3.876653   1.000000
  155        3.892548   1.000000
  156        3.908633   1.000000
  157        3.931900   1.000000
  158        3.948676   1.000000
  159        3.963080   1.000000
  160        3.969496   1.000000
  161        3.979326   1.000000
  162        4.028126   1.000000
  163        4.056492   1.000000
  164        4.061352   1.000000
  165        4.066634   1.000000
  166        4.084133   1.000000
  167        4.134999   1.000000
  168        4.139579   1.000000
  169        4.150308   1.000000
  170        4.162043   1.000000
  171        4.186661   1.000000
  172        4.207700   1.000000
  173        4.240552   1.000000
  174        4.273143   1.000000
  175        4.283007   1.000000
  176        4.326610   1.000000
  177        4.342915   1.000000
  178        4.385708   1.000000
  179        4.398610   1.000000
  180        4.412081   1.000000
  181        4.414345   1.000000
  182        4.417500   1.000000
  183        4.424828   1.000000
  184        4.435079   1.000000
  185        4.438495   1.000000
  186        4.450973   1.000000
  187        4.467764   1.000000
  188        4.470314   1.000000
  189        4.482034   1.000000
  190        4.483318   1.000000
  191        4.496213   1.000000
  192        4.516644   1.000000
  193        4.521949   1.000000
  194        4.539391   1.000000
  195        4.542684   1.000000
  196        4.560248   1.000000
  197        4.570816   1.000000
  198        4.571596   1.000000
  199        4.580739   1.000000
  200        4.582594   1.000000
  201        4.599224   1.000000
  202        4.605713   1.000000
  203        4.605795   1.000000
  204        4.613091   1.000000
  205        4.624783   1.000000
  206        4.634447   1.000000
  207        4.640981   1.000000
  208        4.654100   1.000000
  209        4.677579   1.000000
  210        4.684047   1.000000
  211        4.693423   1.000000
  212        4.704884   1.000000
  213        4.711062   1.000000
  214        4.714793   1.000000
  215        4.733595   1.000000
  216        4.745137   1.000000
  217        4.757520   1.000000
  218        4.777669   1.000000
  219        4.786435   1.000000
  220        4.811046   1.000000
  221        4.813363   1.000000
  222        4.837493   1.000000
  223        4.862166   1.000000
  224        4.868873   1.000000
  225        4.892141   1.000000
  226        4.904604   1.000000
  227        4.920600   1.000000
  228        4.933511   1.000000
  229        4.934501   1.000000
  230        4.942868   1.000000
  231        4.948281   1.000000
  232        4.960197   1.000000
  233        4.976714   1.000000
  234        4.997217   1.000000
  235        4.999627   1.000000
  236        5.020709   1.000000
  237        5.023650   1.000000
  238        5.031932   1.000000
  239        5.061479   1.000000
  240        5.071327   1.000000
  241        5.083485   1.000000
  242        5.095396   1.000000
  243        5.131062   1.000000
  244        5.132104   1.000000
  245        5.140694   1.000000
  246        5.150877   1.000000
  247        5.154354   1.000000
  248        5.170118   1.000000
  249        5.181131   1.000000
  250        5.194513   1.000000
  251        5.196134   1.000000
  252        5.199958   1.000000
  253        5.202240   1.000000
  254        5.208310   1.000000
  255        5.216049   1.000000
  256        5.235480   1.000000
  257        5.238348   1.000000
  258        5.249265   1.000000
  259        5.250495   1.000000
  260        5.257511   1.000000
  261        5.264919   1.000000
  262        5.265853   1.000000
  263        5.273535   1.000000
  264        5.284051   1.000000
  265        5.294535   1.000000
  266        5.304587   1.000000
  267        5.305014   1.000000
  268        5.311341   1.000000
  269        5.318374   1.000000
  270        5.330865   1.000000
  271        5.336576   1.000000
  272        5.340939   1.000000
  273        5.349718   1.000000
  274        5.355319   1.000000
  275        5.355695   1.000000
  276        5.368346   1.000000
  277        5.370775   1.000000
  278        5.375784   1.000000
  279        5.384573   1.000000
  280        5.394788   1.000000
  281        5.398564   1.000000
  282        5.401489   1.000000
  283        5.406929   1.000000
  284        5.411909   1.000000
  285        5.412639   1.000000
  286        5.421945   1.000000
  287        5.432314   1.000000
  288        5.435573   1.000000
  289        5.436693   1.000000
  290        5.455900   1.000000
  291        5.456500   1.000000
  292        5.467720   1.000000
  293        5.481221   1.000000
  294        5.483667   1.000000
  295        5.484855   1.000000
  296        5.491521   1.000000
  297        5.493709   1.000000
  298        5.517106   1.000000
  299        5.519293   1.000000
  300        5.526245   1.000000
  301        5.529622   1.000000
  302        5.539531   1.000000
  303        5.555848   1.000000
  304        5.572634   1.000000
  305        5.574977   1.000000
  306        5.597999   1.000000
  307        5.612416   1.000000
  308        5.622392   1.000000
  309        5.624715   1.000000
  310        5.646731   1.000000
  311        5.650048   1.000000
  312        5.654931   1.000000
  313        5.675129   1.000000
  314        5.690835   1.000000
  315        5.701205   1.000000
  316        5.709025   1.000000
  317        5.717748   1.000000
  318        5.721471   1.000000
  319        5.729965   1.000000
  320        5.747042   1.000000
  321        5.756403   1.000000
  322        5.756501   1.000000
  323        5.774316   1.000000
  324        5.774571   1.000000
  325        5.787134   1.000000
  326        5.788640   1.000000
  327        5.807636   1.000000
  328        5.812944   1.000000
  329        5.834184   1.000000
  330        5.835284   1.000000
  331        5.849353   1.000000
  332        5.853597   1.000000
  333        5.864293   1.000000
  334        5.864497   1.000000
  335        5.872752   1.000000
  336        5.884516   1.000000
  337        5.891231   1.000000
  338        5.901065   1.000000
  339        5.905087   1.000000
  340        5.919645   1.000000
  341        5.921483   1.000000
  342        5.935807   1.000000
  343        5.942864   1.000000
  344        5.964706   1.000000
  345        5.967202   1.000000
  346        5.970120   1.000000
  347        5.973305   1.000000
  348        5.985482   1.000000
  349        5.994615   1.000000
  350        6.011673   1.000000
  351        6.014521   1.000000
  352        6.021565   1.000000
  353        6.037291   1.000000
  354        6.039097   1.000000
  355        6.065128   1.000000
  356        6.083218   1.000000
  357        6.095684   1.000000
  358        6.123559   1.000000
  359        6.125813   1.000000
  360        6.149330   1.000000
  361        6.156495   1.000000
  362        6.195322   1.000001
  363        6.202232   1.000001
  364        6.219155   1.000002
  365        6.227669   1.000003
  366        6.235396   1.000004
  367        6.249009   1.000006
  368        6.261627   1.000009
  369        6.313268   1.000045
  370        6.332681   1.000078
  371        6.338635   1.000092
  372        6.346066   1.000113
  373        6.360406   1.000167
  374        6.372751   1.000232
  375        6.376551   1.000256
  376        6.386563   1.000331
  377        6.389016   1.000352
  378        6.395149   1.000411
  379        6.413377   1.000640
  380        6.430097   1.000945
  381        6.436574   1.001095
  382        6.455583   1.001661
  383        6.470465   1.002268
  384        6.479031   1.002697
  385        6.502505   1.004238
  386        6.506467   1.004558
  387        6.512579   1.005091
  388        6.545181   1.008812
  389        6.573627   1.013405
  390        6.575129   1.013684
  391        6.594052   1.017466
  392        6.601802   1.019144
  393        6.606762   1.020250
  394        6.622644   1.023891
  395        6.644895   1.028927
  396        6.657833   1.031542
  397        6.666467   1.033033
  398        6.677194   1.034475
  399        6.701100   1.035262
  400        6.710379   1.034325
  401        6.719401   1.032556
  402        6.730801   1.028907
  403        6.743571   1.022637
  404        6.747927   1.019907
  405        6.751362   1.017525
  406        6.764451   1.006467
  407        6.775831   0.994088
  408        6.783798   0.983763
  409        6.795929   0.965254
  410        6.800524   0.957327
  411        6.811625   0.936041
  412        6.818677   0.920917
  413        6.824663   0.907093
  414        6.844699   0.854279
  415        6.845866   0.850898
  416        6.862508   0.799178
  417        6.870704   0.771430
  418        6.881500   0.732809
  419        6.885961   0.716217
  420        6.924958   0.559590
  421        6.928225   0.545856
  422        6.935038   0.517099
  423        6.939038   0.500178
  424        6.942623   0.485011
  425        6.972595   0.360373
  426        6.987754   0.300651
  427        6.992470   0.282768
  428        7.003170   0.243634
  429        7.013774   0.207056
  430        7.023128   0.176797
  431        7.030310   0.154928
  432        7.040167   0.126933
  433        7.051942   0.096644
  434        7.062503   0.072453
  435        7.073068   0.051062
  436        7.092658   0.018629
  437        7.096089   0.013878
  438        7.116957  -0.009516
  439        7.127350  -0.017921
  440        7.138838  -0.025001
  441        7.146646  -0.028621
  442        7.160062  -0.032868
  443        7.171949  -0.034848
  444        7.177764  -0.035300
  445        7.185278  -0.035452
  446        7.202829  -0.034263
  447        7.209949  -0.033302
  448        7.211856  -0.033007
  449        7.212354  -0.032928
  450        7.217817  -0.032001
  451        7.226309  -0.030379
  452        7.227001  -0.030239
  453        7.236980  -0.028117
  454        7.238425  -0.027797
  455        7.247312  -0.025785
  456        7.250248  -0.025109
  457        7.254772  -0.024063
  458        7.261095  -0.022601
  459        7.281155  -0.018097
  460        7.285183  -0.017238
  461        7.291886  -0.015852
  462        7.312755  -0.011945
  463        7.320118  -0.010728
  464        7.321280  -0.010544
  465        7.344666  -0.007297
  466        7.345236  -0.007229
  467        7.362994  -0.005331
  468        7.364216  -0.005216
  469        7.377112  -0.004125
  470        7.383280  -0.003673
  471        7.405459  -0.002374
  472        7.412216  -0.002066
  473        7.420598  -0.001732
  474        7.424878  -0.001581
  475        7.435945  -0.001242
  476        7.440779  -0.001115
  477        7.450869  -0.000886
  478        7.452041  -0.000863
  479        7.475523  -0.000494
  480        7.479442  -0.000449
  481        7.490618  -0.000339
  482        7.500002  -0.000267
  483        7.504210  -0.000239
  484        7.522720  -0.000146
  485        7.533420  -0.000109
  486        7.539996  -0.000091
  487        7.550345  -0.000068
  488        7.555428  -0.000059
  489        7.569985  -0.000038
  490        7.573764  -0.000034
  491        7.574898  -0.000033
  492        7.581806  -0.000027
  493        7.588739  -0.000022
  494        7.589620  -0.000021
  495        7.595484  -0.000018
  496        7.608031  -0.000012
  497        7.614138  -0.000010
  498        7.619630  -0.000008
  499        7.639194  -0.000004
  500        7.649453  -0.000003
  501        7.650449  -0.000003
  502        7.659154  -0.000002
  503        7.672775  -0.000001
  504        7.674150  -0.000001
  505        7.687504  -0.000001
  506        7.694457  -0.000001
  507        7.702763  -0.000000
  508        7.707708  -0.000000
  509        7.718138  -0.000000
  510        7.720083  -0.000000
  511        7.733240  -0.000000
  512        7.748834  -0.000000
  513        7.752154  -0.000000
 
  0.3750000E+00  0.1250000E+00  0.1250000E+00  0.3125000E-01
    1       -6.939738   1.000000
    2       -1.538038   1.000000
    3       -1.176438   1.000000
    4       -0.756274   1.000000
    5       -0.616064   1.000000
    6       -0.492538   1.000000
    7       -0.271693   1.000000
    8       -0.049247   1.000000
    9        0.043906   1.000000
   10        0.181522   1.000000
   11        0.364433   1.000000
   12        0.424629   1.000000
   13        0.607528   1.000000
   14        0.695966   1.000000
   15        0.836015   1.000000
   16        0.942494   1.000000
   17        1.101401   1.000000
   18        1.152606   1.000000
   19        1.224439   1.000000
   20        1.336850   1.000000
   21        1.503217   1.000000
   22        1.587311   1.000000
   23        1.640505   1.000000
   24        1.709801   1.000000
   25        1.767627   1.000000
   26        1.859325   1.000000
   27        1.945562   1.000000
   28        2.023180   1.000000
   29        2.035732   1.000000
   30        2.054121   1.000000
   31        2.079085   1.000000
   32        2.098476   1.000000
   33        2.135977   1.000000
   34        2.145993   1.000000
   35        2.159245   1.000000
   36        2.166529   1.000000
   37        2.187626   1.000000
   38        2.238083   1.000000
   39        2.251144   1.000000
   40        2.268055   1.000000
   41        2.276356   1.000000
   42        2.291687   1.000000
   43        2.302886   1.000000
   44        2.349834   1.000000
   45        2.356897   1.000000
   46        2.382079   1.000000
   47        2.400827   1.000000
   48        2.415051   1.000000
   49        2.432633   1.000000
   50        2.454677   1.000000
   51        2.516508   1.000000
   52        2.534454   1.000000
   53        2.557025   1.000000
   54        2.607122   1.000000
   55        2.618696   1.000000
   56        2.636028   1.000000
   57        2.650707   1.000000
   58        2.671216   1.000000
   59        2.682881   1.000000
   60        2.689435   1.000000
   61        2.700646   1.000000
   62        2.726508   1.000000
   63        2.735831   1.000000
   64        2.751117   1.000000
   65        2.764876   1.000000
   66        2.772342   1.000000
   67        2.793083   1.000000
   68        2.809404   1.000000
   69        2.819746   1.000000
   70        2.842728   1.000000
   71        2.849451   1.000000
   72        2.855512   1.000000
   73        2.859178   1.000000
   74        2.881420   1.000000
   75        2.885839   1.000000
   76        2.897599   1.000000
   77        2.906409   1.000000
   78        2.910969   1.000000
   79        2.931585   1.000000
   80        2.945908   1.000000
   81        2.968295   1.000000
   82        2.986688   1.000000
   83        2.991980   1.000000
   84        3.014779   1.000000
   85        3.028656   1.000000
   86        3.034175   1.000000
   87        3.041167   1.000000
   88        3.046145   1.000000
   89        3.062803   1.000000
   90        3.074175   1.000000
   91        3.091882   1.000000
   92        3.098899   1.000000
   93        3.107016   1.000000
   94        3.129919   1.000000
   95        3.141244   1.000000
   96        3.156830   1.000000
   97        3.164602   1.000000
   98        3.171892   1.000000
   99        3.190224   1.000000
  100        3.221800   1.000000
  101        3.240355   1.000000
  102        3.251043   1.000000
  103        3.270554   1.000000
  104        3.279699   1.000000
  105        3.295318   1.000000
  106        3.312016   1.000000
  107        3.327084   1.000000
  108        3.340037   1.000000
  109        3.343815   1.000000
  110        3.357287   1.000000
  111        3.360397   1.000000
  112        3.369084   1.000000
  113        3.383942   1.000000
  114        3.398996   1.000000
  115        3.415600   1.000000
  116        3.421963   1.000000
  117        3.449662   1.000000
  118        3.453550   1.000000
  119        3.471876   1.000000
  120        3.479761   1.000000
  121        3.489330   1.000000
  122        3.503052   1.000000
  123        3.519238   1.000000
  124        3.540465   1.000000
  125        3.560537   1.000000
  126        3.569707   1.000000
  127        3.580438   1.000000
  128        3.606784   1.000000
  129        3.621537   1.000000
  130        3.633319   1.000000
  131        3.642245   1.000000
  132        3.658566   1.000000
  133        3.665998   1.000000
  134        3.675883   1.000000
  135        3.682591   1.000000
  136        3.698418   1.000000
  137        3.705842   1.000000
  138        3.718229   1.000000
  139        3.728468   1.000000
  140        3.731024   1.000000
  141        3.752636   1.000000
  142        3.764132   1.000000
  143        3.769396   1.000000
  144        3.782262   1.000000
  145        3.791038   1.000000
  146        3.800257   1.000000
  147        3.814766   1.000000
  148        3.831693   1.000000
  149        3.839088   1.000000
  150        3.874544   1.000000
  151        3.897048   1.000000
  152        3.900816   1.000000
  153        3.938188   1.000000
  154        3.940164   1.000000
  155        3.963455   1.000000
  156        3.977585   1.000000
  157        3.992649   1.000000
  158        4.011827   1.000000
  159        4.017294   1.000000
  160        4.028348   1.000000
  161        4.041189   1.000000
  162        4.061340   1.000000
  163        4.079065   1.000000
  164        4.093974   1.000000
  165        4.105266   1.000000
  166        4.116147   1.000000
  167        4.124312   1.000000
  168        4.135573   1.000000
  169        4.151063   1.000000
  170        4.156466   1.000000
  171        4.173098   1.000000
  172        4.179456   1.000000
  173        4.199455   1.000000
  174        4.205007   1.000000
  175        4.221208   1.000000
  176        4.244346   1.000000
  177        4.273634   1.000000
  178        4.284851   1.000000
  179        4.297010   1.000000
  180        4.315053   1.000000
  181        4.322560   1.000000
  182        4.335207   1.000000
  183        4.364936   1.000000
  184        4.378591   1.000000
  185        4.383885   1.000000
  186        4.396645   1.000000
  187        4.407449   1.000000
  188        4.419176   1.000000
  189        4.443240   1.000000
  190        4.462192   1.000000
  191        4.466242   1.000000
  192        4.484912   1.000000
  193        4.489945   1.000000
  194        4.501727   1.000000
  195        4.525602   1.000000
  196        4.547409   1.000000
  197        4.564295   1.000000
  198        4.570668   1.000000
  199        4.589484   1.000000
  200        4.605762   1.000000
  201        4.615953   1.000000
  202        4.627901   1.000000
  203        4.644167   1.000000
  204        4.653779   1.000000
  205        4.657640   1.000000
  206        4.671581   1.000000
  207        4.686593   1.000000
  208        4.698435   1.000000
  209        4.702073   1.000000
  210        4.713404   1.000000
  211        4.725570   1.000000
  212        4.739556   1.000000
  213        4.749695   1.000000
  214        4.757724   1.000000
  215        4.771914   1.000000
  216        4.778827   1.000000
  217        4.796882   1.000000
  218        4.806885   1.000000
  219        4.813817   1.000000
  220        4.825698   1.000000
  221        4.833971   1.000000
  222        4.845191   1.000000
  223        4.859878   1.000000
  224        4.870621   1.000000
  225        4.894046   1.000000
  226        4.905479   1.000000
  227        4.927869   1.000000
  228        4.937966   1.000000
  229        4.944714   1.000000
  230        4.965335   1.000000
  231        4.971561   1.000000
  232        4.982921   1.000000
  233        4.990773   1.000000
  234        5.005631   1.000000
  235        5.013011   1.000000
  236        5.023111   1.000000
  237        5.030875   1.000000
  238        5.038221   1.000000
  239        5.047991   1.000000
  240        5.051901   1.000000
  241        5.054059   1.000000
  242        5.067119   1.000000
  243        5.081481   1.000000
  244        5.086061   1.000000
  245        5.093948   1.000000
  246        5.103454   1.000000
  247        5.108953   1.000000
  248        5.118349   1.000000
  249        5.125304   1.000000
  250        5.140239   1.000000
  251        5.146587   1.000000
  252        5.156169   1.000000
  253        5.163517   1.000000
  254        5.167707   1.000000
  255        5.183272   1.000000
  256        5.193382   1.000000
  257        5.198040   1.000000
  258        5.208166   1.000000
  259        5.215922   1.000000
  260        5.227591   1.000000
  261        5.235460   1.000000
  262        5.251712   1.000000
  263        5.262404   1.000000
  264        5.274866   1.000000
  265        5.284508   1.000000
  266        5.291386   1.000000
  267        5.303520   1.000000
  268        5.311087   1.000000
  269        5.325419   1.000000
  270        5.331878   1.000000
  271        5.342463   1.000000
  272        5.348385   1.000000
  273        5.349850   1.000000
  274        5.357185   1.000000
  275        5.372025   1.000000
  276        5.380494   1.000000
  277        5.391180   1.000000
  278        5.398148   1.000000
  279        5.405894   1.000000
  280        5.415012   1.000000
  281        5.419004   1.000000
  282        5.428550   1.000000
  283        5.437563   1.000000
  284        5.448762   1.000000
  285        5.451149   1.000000
  286        5.461731   1.000000
  287        5.469022   1.000000
  288        5.472942   1.000000
  289        5.477125   1.000000
  290        5.490246   1.000000
  291        5.498340   1.000000
  292        5.507647   1.000000
  293        5.513532   1.000000
  294        5.518942   1.000000
  295        5.527925   1.000000
  296        5.537049   1.000000
  297        5.540609   1.000000
  298        5.548487   1.000000
  299        5.559499   1.000000
  300        5.561823   1.000000
  301        5.573698   1.000000
  302        5.576999   1.000000
  303        5.582761   1.000000
  304        5.591705   1.000000
  305        5.604021   1.000000
  306        5.609106   1.000000
  307        5.612044   1.000000
  308        5.623555   1.000000
  309        5.633044   1.000000
  310        5.638231   1.000000
  311        5.643589   1.000000
  312        5.653130   1.000000
  313        5.659480   1.000000
  314        5.665797   1.000000
  315        5.672431   1.000000
  316        5.681972   1.000000
  317        5.690572   1.000000
  318        5.694677   1.000000
  319        5.702906   1.000000
  320        5.706800   1.000000
  321        5.713878   1.000000
  322        5.727050   1.000000
  323        5.741139   1.000000
  324        5.746466   1.000000
  325        5.758797   1.000000
  326        5.766902   1.000000
  327        5.775887   1.000000
  328        5.782105   1.000000
  329        5.791713   1.000000
  330        5.803018   1.000000
  331        5.812937   1.000000
  332        5.823605   1.000000
  333        5.829092   1.000000
  334        5.851107   1.000000
  335        5.874631   1.000000
  336        5.884513   1.000000
  337        5.891709   1.000000
  338        5.894865   1.000000
  339        5.916500   1.000000
  340        5.924338   1.000000
  341        5.931087   1.000000
  342        5.947639   1.000000
  343        5.954495   1.000000
  344        5.966954   1.000000
  345        5.990253   1.000000
  346        6.002063   1.000000
  347        6.012790   1.000000
  348        6.037934   1.000000
  349        6.063189   1.000000
  350        6.083057   1.000000
  351        6.101848   1.000000
  352        6.127140   1.000000
  353        6.132563   1.000000
  354        6.152986   1.000000
  355        6.161265   1.000000
  356        6.185702   1.000001
  357        6.201811   1.000001
  358        6.204411   1.000001
  359        6.229729   1.000003
  360        6.238603   1.000004
  361        6.248242   1.000006
  362        6.256739   1.000008
  363        6.272564   1.000013
  364        6.282968   1.000018
  365        6.291139   1.000023
  366        6.311401   1.000042
  367        6.316552   1.000049
  368        6.330265   1.000073
  369        6.337219   1.000089
  370        6.345314   1.000111
  371        6.360213   1.000167
  372        6.371420   1.000224
  373        6.374481   1.000243
  374        6.388236   1.000345
  375        6.390227   1.000363
  376        6.401635   1.000482
  377        6.407289   1.000553
  378        6.412151   1.000621
  379        6.426342   1.000867
  380        6.432736   1.001004
  381        6.440657   1.001199
  382        6.450451   1.001487
  383        6.457702   1.001738
  384        6.467471   1.002132
  385        6.471040   1.002295
  386        6.478242   1.002655