 running on   12 total cores
 distrk:  each k-point on   12 cores,    1 groups
 distr:  one band on    4 cores,    3 groups
 using from now: INCAR     
 vasp.5.4.1 24Jun15 (build Jun 21 2019 17:19:10) complex                        
  
 POSCAR found type information on POSCAR  Fe Te
 POSCAR found :  2 types and     107 ions
 scaLAPACK will be used
 LDA part: xc-table for Pade appr. of Perdew
 POSCAR found type information on POSCAR  Fe Te
 POSCAR found :  2 types and     107 ions
 POSCAR, INCAR and KPOINTS ok, starting setup
 FFT: planning ...
 WAVECAR not read
 entering main loop
       N       E                     dE             d eps       ncg     rms          rms(c)
DAV:   1     0.750413425094E+04    0.75041E+04   -0.28527E+05 32913   0.182E+03
DAV:   2    -0.133174350936E+02   -0.75175E+04   -0.73486E+04 32832   0.456E+02
DAV:   3    -0.833247783814E+03   -0.81993E+03   -0.70133E+03 33111   0.191E+02
DAV:   4    -0.100647894325E+04   -0.17323E+03   -0.16238E+03 59895   0.571E+01
DAV:   5    -0.102124188535E+04   -0.14763E+02   -0.13945E+02 52785   0.216E+01    0.922E+01
RMM:   6    -0.883085174089E+03    0.13816E+03   -0.14152E+03 32832   0.112E+02    0.491E+01
RMM:   7    -0.117167659137E+04   -0.28859E+03   -0.59997E+02 40853   0.449E+01    0.177E+02
RMM:   8    -0.897160637270E+03    0.27452E+03   -0.26831E+02 32832   0.475E+01    0.714E+01
RMM:   9    -0.861824260320E+03    0.35336E+02   -0.63509E+01 32901   0.186E+01    0.203E+01
RMM:  10    -0.863411166647E+03   -0.15869E+01   -0.35874E+01 45239   0.790E+00    0.167E+01
RMM:  11    -0.863590845994E+03   -0.17968E+00   -0.12378E+01 38905   0.583E+00    0.179E+01
RMM:  12    -0.862034349449E+03    0.15565E+01   -0.37884E+00 36097   0.399E+00    0.815E+00
RMM:  13    -0.862028299878E+03    0.60496E-02   -0.30803E+00 39799   0.303E+00    0.102E+01
RMM:  14    -0.861570522563E+03    0.45778E+00   -0.11172E+00 34802   0.247E+00    0.737E+00
RMM:  15    -0.861540023021E+03    0.30500E-01   -0.80153E-01 45780   0.103E+00    0.718E+00
RMM:  16    -0.861301708260E+03    0.23831E+00   -0.38611E-01 34207   0.157E+00    0.394E+00
RMM:  17    -0.861249773870E+03    0.51934E-01   -0.28934E-01 37161   0.102E+00    0.200E+00
RMM:  18    -0.861284275742E+03   -0.34502E-01   -0.34143E-01 44594   0.850E-01    0.293E+00
RMM:  19    -0.861250258944E+03    0.34017E-01   -0.99934E-02 36184   0.643E-01    0.137E+00
RMM:  20    -0.861253937475E+03   -0.36785E-02   -0.70621E-02 49295   0.241E-01    0.153E+00
RMM:  21    -0.861247076405E+03    0.68611E-02   -0.18761E-02 34491   0.336E-01    0.109E+00
RMM:  22    -0.861245070082E+03    0.20063E-02   -0.10068E-02 38666   0.181E-01    0.853E-01
RMM:  23    -0.861243122036E+03    0.19480E-02   -0.68927E-03 38486   0.154E-01    0.554E-01
RMM:  24    -0.861241819859E+03    0.13022E-02   -0.34464E-03 39054   0.106E-01    0.157E-01
RMM:  25    -0.861241937916E+03   -0.11806E-03   -0.19694E-03 48635   0.441E-02    0.144E-01
RMM:  26    -0.861241858996E+03    0.78919E-04   -0.65985E-04 41100   0.410E-02    0.120E-01
RMM:  27    -0.861241814880E+03    0.44116E-04   -0.15980E-04 42468   0.242E-02    0.849E-02
RMM:  28    -0.861241764616E+03    0.50264E-04   -0.18425E-05 35233   0.214E-02    0.595E-02
RMM:  29    -0.861241737011E+03    0.27605E-04    0.31662E-05 35906   0.126E-02    0.273E-02
RMM:  30    -0.861241729250E+03    0.77613E-05    0.25850E-05 42137   0.895E-03    0.332E-02
RMM:  31    -0.861241709697E+03    0.19553E-04    0.41058E-05 35334   0.761E-03    0.968E-03
RMM:  32    -0.861241704458E+03    0.52393E-05    0.44210E-05 24430   0.295E-03    0.738E-03
RMM:  33    -0.861241700912E+03    0.35464E-05    0.34882E-05 22042   0.342E-03    0.705E-03
RMM:  34    -0.861241697166E+03    0.37453E-05    0.35211E-05 20330   0.255E-03    0.339E-03
RMM:  35    -0.861241694079E+03    0.30868E-05    0.32110E-05 19749   0.175E-03    0.418E-03
RMM:  36    -0.861241691642E+03    0.24376E-05    0.28450E-05 19469   0.170E-03    0.181E-03
RMM:  37    -0.861241689004E+03    0.26381E-05    0.26383E-05 18895   0.977E-04    0.128E-03
RMM:  38    -0.861241687078E+03    0.19258E-05    0.21663E-05 18249   0.105E-03    0.108E-03
RMM:  39    -0.861241684895E+03    0.21834E-05    0.22227E-05 14160   0.617E-04    0.590E-04
RMM:  40    -0.861241682868E+03    0.20261E-05    0.20591E-05 14971   0.660E-04    0.771E-04
RMM:  41    -0.861241681406E+03    0.14629E-05    0.16136E-05 12163   0.499E-04    0.354E-04
RMM:  42    -0.861241679957E+03    0.14486E-05    0.14518E-05  9988   0.465E-04    0.295E-04
RMM:  43    -0.861241678660E+03    0.12969E-05    0.13235E-05  9908   0.430E-04    0.294E-04
RMM:  44    -0.861241677356E+03    0.13039E-05    0.12940E-05  7761   0.389E-04    0.185E-04
RMM:  45    -0.861241676251E+03    0.11056E-05    0.10941E-05  7967   0.372E-04    0.211E-04
RMM:  46    -0.861241675264E+03    0.98671E-06    0.98845E-06  7544   0.350E-04
   1 F= -.86124168E+03 E0= -.86123730E+03  d E =-.861242E+03
 curvature:   0.00 expect dE= 0.000E+00 dE for cont linesearch  0.000E+00
 trial: gam= 0.00000 g(F)=  0.241E+01 g(S)=  0.000E+00 ort = 0.000E+00 (trialstep = 0.100E+01)
 search vector abs. value=  0.241E+01
 bond charge predicted
       N       E                     dE             d eps       ncg     rms          rms(c)
DAV:   1    -0.862271827993E+03   -0.10302E+01   -0.47573E+02 32832   0.314E+01    0.117E+01
RMM:   2    -0.911767207277E+03   -0.49495E+02   -0.23387E+02 38944   0.336E+01    0.641E+01
RMM:   3    -0.865977604610E+03    0.45790E+02   -0.40985E+01 32832   0.196E+01    0.267E+01
RMM:   4    -0.862994875926E+03    0.29827E+01   -0.64944E+00 35253   0.473E+00    0.113E+01
RMM:   5    -0.862913228688E+03    0.81647E-01   -0.33089E+00 46844   0.206E+00    0.744E+00
RMM:   6    -0.862827600983E+03    0.85628E-01   -0.23699E+00 42531   0.221E+00    0.499E+00
RMM:   7    -0.862892732360E+03   -0.65131E-01   -0.80008E-01 47249   0.116E+00    0.620E+00
RMM:   8    -0.862687279507E+03    0.20545E+00   -0.25099E-01 33159   0.117E+00    0.239E+00
RMM:   9    -0.862694359758E+03   -0.70803E-02   -0.25320E-01 36629   0.970E-01    0.251E+00
RMM:  10    -0.862747135252E+03   -0.52775E-01   -0.36328E-01 43483   0.941E-01    0.402E+00
RMM:  11    -0.862694630192E+03    0.52505E-01   -0.92783E-02 33273   0.702E-01    0.251E+00
RMM:  12    -0.862683728075E+03    0.10902E-01   -0.72078E-02 44467   0.391E-01    0.216E+00
RMM:  13    -0.862660499635E+03    0.23228E-01   -0.25994E-02 33825   0.360E-01    0.835E-01
RMM:  14    -0.862660902487E+03   -0.40285E-03   -0.20226E-02 48140   0.147E-01    0.625E-01
RMM:  15    -0.862659571430E+03    0.13311E-02   -0.97459E-03 43449   0.137E-01    0.239E-01
RMM:  16    -0.862659626089E+03   -0.54659E-04   -0.33019E-03 48419   0.654E-02    0.199E-01
RMM:  17    -0.862659769089E+03   -0.14300E-03   -0.85839E-04 41911   0.427E-02    0.266E-01
RMM:  18    -0.862659570800E+03    0.19829E-03   -0.26945E-04 34921   0.383E-02    0.188E-01
RMM:  19    -0.862659552082E+03    0.18718E-04   -0.25892E-04 41822   0.248E-02    0.178E-01
RMM:  20    -0.862659405634E+03    0.14645E-03   -0.22890E-04 36002   0.300E-02    0.699E-02
RMM:  21    -0.862659395603E+03    0.10031E-04   -0.13923E-04 46643   0.150E-02    0.294E-02
RMM:  22    -0.862659397788E+03   -0.21852E-05   -0.36093E-05 43492   0.766E-03    0.310E-02
RMM:  23    -0.862659394654E+03    0.31345E-05   -0.10863E-05 33729   0.590E-03    0.183E-02
RMM:  24    -0.862659394677E+03   -0.23341E-07   -0.38959E-06 29102   0.451E-03
   2 F= -.86265939E+03 E0= -.86265820E+03  d E =-.141772E+01
 trial-energy change:   -1.417719  1 .order   -1.427947   -2.411614   -0.444280
 step:   1.2349(harm=  1.2258)  dis= 0.08503  next Energy=  -862.711437 (dE=-0.147E+01)
 bond charge predicted
       N       E                     dE             d eps       ncg     rms          rms(c)
DAV:   1    -0.862698953708E+03   -0.39559E-01   -0.25435E+01 32922   0.713E+00    0.196E+00
RMM:   2    -0.864490769820E+03   -0.17918E+01   -0.51686E+00 35368   0.517E+00    0.168E+01
RMM:   3    -0.862752782746E+03    0.17380E+01   -0.11932E+00 32832   0.335E+00    0.302E+00
RMM:   4    -0.862713865440E+03    0.38917E-01   -0.27400E-01 44294   0.669E-01    0.964E-01
RMM:   5    -0.862727576244E+03   -0.13711E-01   -0.11618E-01 42900   0.509E-01    0.174E+00
RMM:   6    -0.862713769260E+03    0.13807E-01   -0.43985E-02 36247   0.399E-01    0.689E-01
RMM:   7    -0.862717404061E+03   -0.36348E-02   -0.33434E-02 44990   0.251E-01    0.106E+00
RMM:   8    -0.862713247593E+03    0.41565E-02   -0.10226E-02 33254   0.227E-01    0.671E-01
RMM:   9    -0.862711350536E+03    0.18971E-02   -0.48964E-03 35355   0.145E-01    0.289E-01
RMM:  10    -0.862711785592E+03   -0.43506E-03   -0.42364E-03 42894   0.101E-01    0.409E-01
RMM:  11    -0.862710930597E+03    0.85500E-03   -0.12008E-03 33734   0.854E-02    0.850E-02
RMM:  12    -0.862711009694E+03   -0.79097E-04   -0.97169E-04 45977   0.393E-02    0.114E-01
RMM:  13    -0.862710962962E+03    0.46732E-04   -0.24914E-04 37609   0.284E-02    0.523E-02
RMM:  14    -0.862710965488E+03   -0.25255E-05   -0.13461E-04 46907   0.142E-02    0.481E-02
RMM:  15    -0.862710962367E+03    0.31208E-05   -0.31913E-05 36409   0.116E-02    0.409E-02
RMM:  16    -0.862710955634E+03    0.67330E-05   -0.11463E-05 33668   0.852E-03    0.208E-02
RMM:  17    -0.862710957909E+03   -0.22748E-05   -0.12367E-05 35207   0.575E-03    0.279E-02
RMM:  18    -0.862710954942E+03    0.29670E-05   -0.50202E-06 27410   0.545E-03    0.120E-02
RMM:  19    -0.862710954306E+03    0.63612E-06   -0.17428E-06 19916   0.366E-03
   3 F= -.86271095E+03 E0= -.86270953E+03  d E =-.146928E+01
 curvature:  -0.61 expect dE=-0.617E-01 dE for cont linesearch -0.343E-04
 trial: gam= 0.04663 g(F)=  0.101E+00 g(S)=  0.000E+00 ort =-0.116E-01 (trialstep = 0.105E+01)
 search vector abs. value=  0.105E+00
 bond charge predicted
       N       E                     dE             d eps       ncg     rms          rms(c)
DAV:   1    -0.862784539952E+03   -0.73585E-01   -0.21252E+01 32832   0.662E+00    0.188E+00
RMM:   2    -0.865453340026E+03   -0.26688E+01   -0.55973E+00 37061   0.459E+00    0.222E+01
RMM:   3    -0.862818515303E+03    0.26348E+01   -0.14427E+00 32832   0.341E+00    0.255E+00
RMM:   4    -0.862785157269E+03    0.33358E-01   -0.58342E-01 43861   0.774E-01    0.107E+00
RMM:   5    -0.862800854456E+03   -0.15697E-01   -0.18261E-01 45763   0.437E-01    0.157E+00
RMM:   6    -0.862790364408E+03    0.10490E-01   -0.39996E-02 37115   0.347E-01    0.604E-01
RMM:   7    -0.862794639360E+03   -0.42750E-02   -0.32468E-02 44199   0.260E-01    0.111E+00
RMM:   8    -0.862788246129E+03    0.63932E-02   -0.72101E-03 33155   0.203E-01    0.462E-01
RMM:   9    -0.862787906999E+03    0.33913E-03   -0.59171E-03 36031   0.154E-01    0.369E-01
RMM:  10    -0.862788128269E+03   -0.22127E-03   -0.44797E-03 39484   0.118E-01    0.409E-01
RMM:  11    -0.862787260759E+03    0.86751E-03   -0.12987E-03 33796   0.894E-02    0.927E-02
RMM:  12    -0.862787366238E+03   -0.10548E-03   -0.10674E-03 44593   0.434E-02    0.147E-01
RMM:  13    -0.862787267780E+03    0.98458E-04   -0.22981E-04 35671   0.315E-02    0.506E-02
RMM:  14    -0.862787279210E+03   -0.11430E-04   -0.15888E-04 47537   0.137E-02    0.585E-02
RMM:  15    -0.862787266731E+03    0.12479E-04   -0.30819E-05 35808   0.118E-02    0.277E-02
RMM:  16    -0.862787267195E+03   -0.46335E-06   -0.22223E-05 40698   0.651E-03    0.261E-02
RMM:  17    -0.862787269856E+03   -0.26609E-05   -0.12937E-05 35392   0.708E-03    0.323E-02
RMM:  18    -0.862787265062E+03    0.47938E-05   -0.59407E-06 28905   0.673E-03    0.108E-02
RMM:  19    -0.862787265301E+03   -0.23888E-06   -0.24258E-06 21175   0.350E-03
   4 F= -.86278727E+03 E0= -.86278493E+03  d E =-.763110E-01
 trial-energy change:   -0.076311  1 .order   -0.076366   -0.104990   -0.047742
 step:   1.9201(harm=  1.9201)  dis= 0.02431  next Energy=  -862.807228 (dE=-0.963E-01)
 bond charge predicted
       N       E                     dE             d eps       ncg     rms          rms(c)
DAV:   1    -0.862805383939E+03   -0.18119E-01   -0.14780E+01 32832   0.552E+00    0.156E+00
RMM:   2    -0.864656561921E+03   -0.18512E+01   -0.38943E+00 37041   0.382E+00    0.185E+01
RMM:   3    -0.862829854270E+03    0.18267E+01   -0.99496E-01 32832   0.283E+00    0.212E+00
RMM:   4    -0.862805634642E+03    0.24220E-01   -0.40731E-01 43685   0.648E-01    0.892E-01
RMM:   5    -0.862816760722E+03   -0.11126E-01   -0.12895E-01 46475   0.360E-01    0.132E+00
RMM:   6    -0.862809323634E+03    0.74371E-02   -0.27355E-02 37122   0.285E-01    0.501E-01
RMM:   7    -0.862812436839E+03   -0.31132E-02   -0.22163E-02 44285   0.213E-01    0.941E-01
RMM:   8    -0.862807749435E+03    0.46874E-02   -0.49373E-03 33073   0.168E-01    0.355E-01
RMM:   9    -0.862807716817E+03    0.32618E-04   -0.44800E-03 36263   0.134E-01    0.335E-01
RMM:  10    -0.862807693390E+03    0.23426E-04   -0.27385E-03 38635   0.951E-02    0.316E-01
RMM:  11    -0.862807177133E+03    0.51626E-03   -0.77867E-04 34192   0.675E-02    0.736E-02
RMM:  12    -0.862807244327E+03   -0.67195E-04   -0.67353E-04 44359   0.350E-02    0.119E-01
RMM:  13    -0.862807178387E+03    0.65940E-04   -0.14830E-04 35459   0.258E-02    0.398E-02
RMM:  14    -0.862807186413E+03   -0.80254E-05   -0.10644E-04 47365   0.112E-02    0.472E-02
RMM:  15    -0.862807178631E+03    0.77815E-05   -0.20419E-05 35884   0.943E-03    0.228E-02
RMM:  16    -0.862807178980E+03   -0.34870E-06   -0.13526E-05 36240   0.573E-03    0.222E-02
RMM:  17    -0.862807180674E+03   -0.16937E-05   -0.88300E-06 32779   0.568E-03    0.266E-02
RMM:  18    -0.862807177381E+03    0.32927E-05   -0.36676E-06 22914   0.556E-03    0.894E-03
RMM:  19    -0.862807177555E+03   -0.17443E-06   -0.17472E-06 19186   0.307E-03
   5 F= -.86280718E+03 E0= -.86280420E+03  d E =-.962232E-01
 curvature:  -1.01 expect dE=-0.903E-02 dE for cont linesearch -0.560E-06
 trial: gam= 0.10935 g(F)=  0.899E-02 g(S)=  0.000E+00 ort = 0.242E-03 (trialstep = 0.122E+01)
 search vector abs. value=  0.103E-01
 bond charge predicted
       N       E                     dE             d eps       ncg     rms          rms(c)
DAV:   1    -0.862813653695E+03   -0.64763E-02   -0.28686E+00 33552   0.241E+00    0.619E-01
RMM:   2    -0.863083422823E+03   -0.26977E+00   -0.57607E-01 36775   0.152E+00    0.714E+00
RMM:   3    -0.862820101695E+03    0.26332E+00   -0.14789E-01 32832   0.110E+00    0.924E-01
RMM:   4    -0.862814348495E+03    0.57532E-02   -0.55285E-02 42431   0.268E-01    0.322E-01
RMM:   5    -0.862816794521E+03   -0.24460E-02   -0.20683E-02 46126   0.167E-01    0.660E-01
RMM:   6    -0.862814889313E+03    0.19052E-02   -0.55901E-03 36516   0.136E-01    0.203E-01
RMM:   7    -0.862815488791E+03   -0.59948E-03   -0.45181E-03 44795   0.942E-02    0.396E-01
RMM:   8    -0.862814795166E+03    0.69362E-03   -0.10073E-03 33491   0.724E-02    0.208E-01
RMM:   9    -0.862814622067E+03    0.17310E-03   -0.66577E-04 34325   0.575E-02    0.108E-01
RMM:  10    -0.862814643871E+03   -0.21804E-04   -0.48824E-04 42493   0.347E-02    0.113E-01
RMM:  11    -0.862814580428E+03    0.63443E-04   -0.12476E-04 34888   0.248E-02    0.278E-02
RMM:  12    -0.862814592091E+03   -0.11663E-04   -0.10988E-04 45601   0.139E-02    0.479E-02
RMM:  13    -0.862814581798E+03    0.10293E-04   -0.22771E-05 34917   0.102E-02    0.162E-02
RMM:  14    -0.862814582454E+03   -0.65630E-06   -0.13305E-05 35116   0.498E-03    0.171E-02
RMM:  15    -0.862814581910E+03    0.54405E-06   -0.35769E-06 22843   0.449E-03
   6 F= -.86281458E+03 E0= -.86281195E+03  d E =-.740435E-02
 trial-energy change:   -0.007404  1 .order   -0.007423   -0.011013   -0.003833
 step:   1.8899(harm=  1.8738)  dis= 0.00827  next Energy=  -862.815627 (dE=-0.845E-02)
 bond charge predicted
       N       E                     dE             d eps       ncg     rms          rms(c)
DAV:   1    -0.862815320958E+03   -0.73850E-03   -0.85858E-01 33732   0.132E+00    0.342E-01
RMM:   2    -0.862897539538E+03   -0.82219E-01   -0.17851E-01 36834   0.844E-01    0.393E+00
RMM:   3    -0.862817230328E+03    0.80309E-01   -0.45215E-02 32832   0.608E-01    0.511E-01
RMM:   4    -0.862815508935E+03    0.17214E-02   -0.17049E-02 42391   0.147E-01    0.180E-01
RMM:   5    -0.862816258043E+03   -0.74911E-03   -0.64149E-03 46239   0.920E-02    0.363E-01
RMM:   6    -0.862815683715E+03    0.57433E-03   -0.16873E-03 36607   0.737E-02    0.115E-01
RMM:   7    -0.862815848378E+03   -0.16466E-03   -0.13451E-03 45047   0.510E-02    0.212E-01
RMM:   8    -0.862815652851E+03    0.19553E-03   -0.31095E-04 33616   0.400E-02    0.115E-01
RMM:   9    -0.862815598793E+03    0.54058E-04   -0.19753E-04 34060   0.319E-02    0.589E-02
RMM:  10    -0.862815609492E+03   -0.10699E-04   -0.15351E-04 41800   0.200E-02    0.684E-02
RMM:  11    -0.862815585769E+03    0.23724E-04   -0.40098E-05 34221   0.146E-02    0.155E-02
RMM:  12    -0.862815589112E+03   -0.33434E-05   -0.34968E-05 43805   0.753E-03    0.250E-02
RMM:  13    -0.862815586445E+03    0.26667E-05   -0.66143E-06 28577   0.556E-03    0.928E-03
RMM:  14    -0.862815586406E+03    0.39261E-07   -0.20792E-06 20709   0.299E-03
   7 F= -.86281559E+03 E0= -.86281314E+03  d E =-.840885E-02
 curvature:  -1.07 expect dE=-0.911E-03 dE for cont linesearch -0.110E-05
 trial: gam= 0.10900 g(F)=  0.852E-03 g(S)=  0.000E+00 ort =-0.103E-03 (trialstep = 0.136E+01)
 search vector abs. value=  0.952E-03
 bond charge predicted
       N       E                     dE             d eps       ncg     rms          rms(c)
DAV:   1    -0.862816004641E+03   -0.41820E-03   -0.31212E-01 33624   0.787E-01    0.150E-01
RMM:   2    -0.862826342655E+03   -0.10338E-01   -0.28406E-02 35432   0.386E-01    0.137E+00
RMM:   3    -0.862816603426E+03    0.97392E-02   -0.71574E-03 32832   0.255E-01    0.218E-01
RMM:   4    -0.862816335677E+03    0.26775E-03   -0.18199E-03 45232   0.549E-02    0.820E-02
RMM:   5    -0.862816443459E+03   -0.10778E-03   -0.81167E-04 41819   0.424E-02    0.162E-01
RMM:   6    -0.862816297830E+03    0.14563E-03   -0.29409E-04 35137   0.365E-02    0.472E-02
RMM:   7    -0.862816386940E+03   -0.89110E-04   -0.44142E-04 39402   0.370E-02    0.138E-01
RMM:   8    -0.862816294317E+03    0.92623E-04   -0.11429E-04 33046   0.267E-02    0.538E-02
RMM:   9    -0.862816283330E+03    0.10988E-04   -0.62504E-05 40706   0.125E-02    0.229E-02
RMM:  10    -0.862816287394E+03   -0.40648E-05   -0.31828E-05 40715   0.902E-03    0.345E-02
RMM:  11    -0.862816281238E+03    0.61567E-05   -0.93799E-06 30837   0.712E-03    0.743E-03
RMM:  12    -0.862816281304E+03   -0.65840E-07   -0.37153E-06 24598   0.299E-03
   8 F= -.86281628E+03 E0= -.86281388E+03  d E =-.694897E-03
 trial-energy change:   -0.000695  1 .order   -0.000702   -0.001139   -0.000264
 step:   1.7905(harm=  1.7643)  dis= 0.00253  next Energy=  -862.816323 (dE=-0.737E-03)
 bond charge predicted
       N       E                     dE             d eps       ncg     rms          rms(c)
DAV:   1    -0.862816294189E+03   -0.12952E-04   -0.32200E-02 34326   0.253E-01    0.501E-02
RMM:   2    -0.862817437062E+03   -0.11429E-02   -0.31127E-03 35285   0.128E-01    0.454E-01
RMM:   3    -0.862816358277E+03    0.10788E-02   -0.79368E-04 32834   0.851E-02    0.736E-02
RMM:   4    -0.862816327409E+03    0.30868E-04   -0.19925E-04 45205   0.184E-02    0.268E-02
RMM:   5    -0.862816339037E+03   -0.11628E-04   -0.88382E-05 42598   0.138E-02    0.531E-02
RMM:   6    -0.862816323251E+03    0.15786E-04   -0.31303E-05 35236   0.117E-02    0.155E-02
RMM:   7    -0.862816332066E+03   -0.88147E-05   -0.44999E-05 39970   0.116E-02    0.439E-02
RMM:   8    -0.862816322684E+03    0.93816E-05   -0.11640E-05 31441   0.839E-03    0.180E-02
RMM:   9    -0.862816321216E+03    0.14680E-05   -0.45875E-06 26596   0.425E-03    0.742E-03
RMM:  10    -0.862816321566E+03   -0.35004E-06   -0.25247E-06 20291   0.318E-03
   9 F= -.86281632E+03 E0= -.86281393E+03  d E =-.735160E-03
 curvature:  -0.99 expect dE=-0.213E-03 dE for cont linesearch -0.466E-07
 trial: gam= 0.23850 g(F)=  0.214E-03 g(S)=  0.000E+00 ort =-0.668E-05 (trialstep = 0.144E+01)
 search vector abs. value=  0.265E-03
 bond charge predicted
       N       E                     dE             d eps       ncg     rms          rms(c)
DAV:   1    -0.862816390952E+03   -0.69736E-04   -0.93423E-02 33372   0.434E-01    0.968E-02
RMM:   2    -0.862822303298E+03   -0.59123E-02   -0.13481E-02 36550   0.244E-01    0.103E+00
RMM:   3    -0.862816633592E+03    0.56697E-02   -0.31550E-03 32862   0.163E-01    0.162E-01
RMM:   4    -0.862816469621E+03    0.16397E-03   -0.11324E-03 40069   0.439E-02    0.531E-02
RMM:   5    -0.862816531999E+03   -0.62378E-04   -0.53488E-04 47003   0.276E-02    0.108E-01
RMM:   6    -0.862816479010E+03    0.52989E-04   -0.13621E-04 36370   0.216E-02    0.362E-02
RMM:   7    -0.862816495725E+03   -0.16715E-04   -0.13151E-04 44886   0.168E-02    0.674E-02
RMM:   8    -0.862816477344E+03    0.18381E-04   -0.38674E-05 33416   0.141E-02    0.398E-02
RMM:   9    -0.862816470493E+03    0.68505E-05   -0.18139E-05 33677   0.990E-03    0.182E-02
RMM:  10    -0.862816472067E+03   -0.15734E-05   -0.17118E-05 38256   0.710E-03    0.238E-02
RMM:  11    -0.862816469094E+03    0.29732E-05   -0.46190E-06 25605   0.558E-03    0.422E-03
RMM:  12    -0.862816469229E+03   -0.13552E-06   -0.17825E-06 19225   0.226E-03
  10 F= -.86281647E+03 E0= -.86281405E+03  d E =-.147663E-03
 trial-energy change:   -0.000148  1 .order   -0.000153   -0.000306    0.000001
 step:   1.4392(harm=  1.4395)  dis= 0.00104  next Energy=  -862.816469 (dE=-0.148E-03)
 reached required accuracy - stopping structural energy minimisation
