<?xml version="1.0" encoding="ISO-8859-1"?>
<modeling>
 <generator>
  <i name="program" type="string">vasp </i>
  <i name="version" type="string">5.4.1  </i>
  <i name="subversion" type="string">24Jun15 (build Jun 21 2019 17:19:10) complex                          parallel </i>
  <i name="platform" type="string">IFC91_ompi </i>
  <i name="date" type="string">2019 08 27 </i>
  <i name="time" type="string">08:09:45 </i>
 </generator>
 <incar>
  <i type="string" name="SYSTEM">Opt</i>
  <i type="int" name="ISTART">     0</i>
  <i type="string" name="PREC">normal</i>
  <i type="string" name="ALGO"> Fast</i>
  <i type="int" name="ISPIN">     1</i>
  <i type="int" name="ICHARG">     2</i>
  <i type="int" name="NELM">   400</i>
  <i type="int" name="IBRION">     2</i>
  <i name="EDIFF">      0.00000100</i>
  <i name="EDIFFG">     -0.01000000</i>
  <i type="int" name="NSW">   100</i>
  <i type="int" name="ISIF">     2</i>
  <i type="int" name="ISYM">     0</i>
  <i name="ENCUT">    400.00000000</i>
  <i type="int" name="NGX">    72</i>
  <i type="int" name="NGY">    72</i>
  <i type="int" name="NGZ">    72</i>
  <i name="POTIM">      0.50000000</i>
  <i type="string" name="LREAL">Auto</i>
  <i type="logical" name="LWAVE"> F  </i>
  <i type="logical" name="LCHARG"> F  </i>
  <v type="int" name="KPOINT_BSE">    -1     0     0     0</v>
  <i type="int" name="NELM">   400</i>
 </incar>
 <kpoints>
  <generation param="Monkhorst-Pack">
   <v type="int" name="divisions">       4        4        4 </v>
   <v name="usershift">      0.00000000       0.00000000       0.00000000 </v>
   <v name="genvec1">      0.25000000       0.00000000       0.00000000 </v>
   <v name="genvec2">      0.00000000       0.25000000       0.00000000 </v>
   <v name="genvec3">      0.00000000       0.00000000       0.25000000 </v>
   <v name="shift">      0.50000000       0.50000000       0.50000000 </v>
  </generation>
  <varray name="kpointlist" >
   <v>       0.12500000       0.12500000       0.12500000 </v>
   <v>       0.37500000       0.12500000       0.12500000 </v>
   <v>      -0.37500000       0.12500000       0.12500000 </v>
   <v>      -0.12500000       0.12500000       0.12500000 </v>
   <v>       0.12500000       0.37500000       0.12500000 </v>
   <v>       0.37500000       0.37500000       0.12500000 </v>
   <v>      -0.37500000       0.37500000       0.12500000 </v>
   <v>      -0.12500000       0.37500000       0.12500000 </v>
   <v>       0.12500000      -0.37500000       0.12500000 </v>
   <v>       0.37500000      -0.37500000       0.12500000 </v>
   <v>      -0.37500000      -0.37500000       0.12500000 </v>
   <v>      -0.12500000      -0.37500000       0.12500000 </v>
   <v>       0.12500000      -0.12500000       0.12500000 </v>
   <v>       0.37500000      -0.12500000       0.12500000 </v>
   <v>      -0.37500000      -0.12500000       0.12500000 </v>
   <v>      -0.12500000      -0.12500000       0.12500000 </v>
   <v>       0.12500000       0.12500000       0.37500000 </v>
   <v>       0.37500000       0.12500000       0.37500000 </v>
   <v>      -0.37500000       0.12500000       0.37500000 </v>
   <v>      -0.12500000       0.12500000       0.37500000 </v>
   <v>       0.12500000       0.37500000       0.37500000 </v>
   <v>       0.37500000       0.37500000       0.37500000 </v>
   <v>      -0.37500000       0.37500000       0.37500000 </v>
   <v>      -0.12500000       0.37500000       0.37500000 </v>
   <v>       0.12500000      -0.37500000       0.37500000 </v>
   <v>       0.37500000      -0.37500000       0.37500000 </v>
   <v>      -0.37500000      -0.37500000       0.37500000 </v>
   <v>      -0.12500000      -0.37500000       0.37500000 </v>
   <v>       0.12500000      -0.12500000       0.37500000 </v>
   <v>       0.37500000      -0.12500000       0.37500000 </v>
   <v>      -0.37500000      -0.12500000       0.37500000 </v>
   <v>      -0.12500000      -0.12500000       0.37500000 </v>
  </varray>
  <varray name="weights" >
   <v>       0.03125000 </v>
   <v>       0.03125000 </v>
   <v>       0.03125000 </v>
   <v>       0.03125000 </v>
   <v>       0.03125000 </v>
   <v>       0.03125000 </v>
   <v>       0.03125000 </v>
   <v>       0.03125000 </v>
   <v>       0.03125000 </v>
   <v>       0.03125000 </v>
   <v>       0.03125000 </v>
   <v>       0.03125000 </v>
   <v>       0.03125000 </v>
   <v>       0.03125000 </v>
   <v>       0.03125000 </v>
   <v>       0.03125000 </v>
   <v>       0.03125000 </v>
   <v>       0.03125000 </v>
   <v>       0.03125000 </v>
   <v>       0.03125000 </v>
   <v>       0.03125000 </v>
   <v>       0.03125000 </v>
   <v>       0.03125000 </v>
   <v>       0.03125000 </v>
   <v>       0.03125000 </v>
   <v>       0.03125000 </v>
   <v>       0.03125000 </v>
   <v>       0.03125000 </v>
   <v>       0.03125000 </v>
   <v>       0.03125000 </v>
   <v>       0.03125000 </v>
   <v>       0.03125000 </v>
  </varray>
 </kpoints>
 <parameters>
  <separator name="general" >
   <i type="string" name="SYSTEM">Opt</i>
   <i type="logical" name="LCOMPAT"> F  </i>
  </separator>
  <separator name="electronic" >
   <i type="string" name="PREC">normal</i>
   <i name="ENMAX">    400.00000000</i>
   <i name="ENAUG">    511.36800000</i>
   <i name="EDIFF">      0.00000100</i>
   <i type="int" name="IALGO">    68</i>
   <i type="int" name="IWAVPR">    11</i>
   <i type="int" name="NBANDS">   513</i>
   <i name="NELECT">    854.00000000</i>
   <i type="int" name="TURBO">     0</i>
   <i type="int" name="IRESTART">     0</i>
   <i type="int" name="NREBOOT">     0</i>
   <i type="int" name="NMIN">     0</i>
   <i name="EREF">      0.00000000</i>
   <separator name="electronic smearing" >
    <i type="int" name="ISMEAR">     1</i>
    <i name="SIGMA">      0.20000000</i>
    <i name="KSPACING">      0.50000000</i>
    <i type="logical" name="KGAMMA"> T  </i>
   </separator>
   <separator name="electronic projectors" >
    <i type="logical" name="LREAL"> T  </i>
    <v name="ROPT">     -0.00050000     -0.00050000</v>
    <i type="int" name="LMAXPAW">  -100</i>
    <i type="int" name="LMAXMIX">     2</i>
    <i type="logical" name="NLSPLINE"> F  </i>
   </separator>
   <separator name="electronic startup" >
    <i type="int" name="ISTART">     0</i>
    <i type="int" name="ICHARG">     2</i>
    <i type="int" name="INIWAV">     1</i>
   </separator>
   <separator name="electronic spin" >
    <i type="int" name="ISPIN">     1</i>
    <i type="logical" name="LNONCOLLINEAR"> F  </i>
    <v name="MAGMOM">      1.00000000      1.00000000      1.00000000      1.00000000      1.00000000      1.00000000      1.00000000      1.00000000      1.00000000      1.00000000      1.00000000      1.00000000      1.00000000      1.00000000      1.00000000      1.00000000      1.00000000      1.00000000      1.00000000      1.00000000
      1.00000000      1.00000000      1.00000000      1.00000000      1.00000000      1.00000000      1.00000000      1.00000000      1.00000000      1.00000000      1.00000000      1.00000000      1.00000000      1.00000000      1.00000000      1.00000000      1.00000000      1.00000000      1.00000000      1.00000000
      1.00000000      1.00000000      1.00000000      1.00000000      1.00000000      1.00000000      1.00000000      1.00000000      1.00000000      1.00000000      1.00000000      1.00000000      1.00000000      1.00000000      1.00000000      1.00000000      1.00000000      1.00000000      1.00000000      1.00000000
      1.00000000      1.00000000      1.00000000      1.00000000      1.00000000      1.00000000      1.00000000      1.00000000      1.00000000      1.00000000      1.00000000      1.00000000      1.00000000      1.00000000      1.00000000      1.00000000      1.00000000      1.00000000      1.00000000      1.00000000
      1.00000000      1.00000000      1.00000000      1.00000000      1.00000000      1.00000000      1.00000000      1.00000000      1.00000000      1.00000000      1.00000000      1.00000000      1.00000000      1.00000000      1.00000000      1.00000000      1.00000000      1.00000000      1.00000000      1.00000000
      1.00000000      1.00000000      1.00000000      1.00000000      1.00000000      1.00000000      1.00000000</v>
    <i name="NUPDOWN">     -1.00000000</i>
    <i type="logical" name="LSORBIT"> F  </i>
    <v name="SAXIS">      0.00000000      0.00000000      1.00000000</v>
    <i type="logical" name="LSPIRAL"> F  </i>
    <v name="QSPIRAL">      0.00000000      0.00000000      0.00000000</v>
    <i type="logical" name="LZEROZ"> F  </i>
   </separator>
   <separator name="electronic exchange-correlation" >
    <i type="logical" name="LASPH"> F  </i>
    <i type="logical" name="LMETAGGA"> F  </i>
   </separator>
   <separator name="electronic convergence" >
    <i type="int" name="NELM">   400</i>
    <i type="int" name="NELMDL">    -5</i>
    <i type="int" name="NELMIN">     2</i>
    <i name="ENINI">    400.00000000</i>
    <separator name="electronic convergence detail" >
     <i type="logical" name="LDIAG"> T  </i>
     <i type="logical" name="LSUBROT"> F  </i>
     <i name="WEIMIN">      0.00100000</i>
     <i name="EBREAK">      0.00000000</i>
     <i name="DEPER">      0.30000000</i>
     <i type="int" name="NRMM">     4</i>
     <i name="TIME">      0.40000000</i>
    </separator>
   </separator>
   <separator name="electronic mixer" >
    <i name="AMIX">      0.40000000</i>
    <i name="BMIX">      1.00000000</i>
    <i name="AMIN">      0.10000000</i>
    <i name="AMIX_MAG">      1.60000000</i>
    <i name="BMIX_MAG">      1.00000000</i>
    <separator name="electronic mixer details" >
     <i type="int" name="IMIX">     4</i>
     <i type="logical" name="MIXFIRST"> F  </i>
     <i type="int" name="MAXMIX">   -45</i>
     <i name="WC">    100.00000000</i>
     <i type="int" name="INIMIX">     1</i>
     <i type="int" name="MIXPRE">     1</i>
     <i type="int" name="MREMOVE">     5</i>
    </separator>
   </separator>
   <separator name="electronic dipolcorrection" >
    <i type="logical" name="LDIPOL"> F  </i>
    <i type="logical" name="LMONO"> F  </i>
    <i type="int" name="IDIPOL">     0</i>
    <i name="EPSILON">      1.00000000</i>
    <v name="DIPOL">   -100.00000000   -100.00000000   -100.00000000</v>
    <i name="EFIELD">      0.00000000</i>
   </separator>
  </separator>
  <separator name="grids" >
   <i type="int" name="NGX">    72</i>
   <i type="int" name="NGY">    72</i>
   <i type="int" name="NGZ">    72</i>
   <i type="int" name="NGXF">   144</i>
   <i type="int" name="NGYF">   144</i>
   <i type="int" name="NGZF">   144</i>
   <i type="logical" name="ADDGRID"> F  </i>
  </separator>
  <separator name="ionic" >
   <i type="int" name="NSW">   100</i>
   <i type="int" name="IBRION">     2</i>
   <i type="int" name="ISIF">     2</i>
   <i name="PSTRESS">      0.00000000</i>
   <i name="EDIFFG">     -0.01000000</i>
   <i type="int" name="NFREE">     1</i>
   <i name="POTIM">      0.50000000</i>
   <i name="SMASS">     -3.00000000</i>
   <i name="SCALEE">      1.00000000</i>
  </separator>
  <separator name="ionic md" >
   <i name="TEBEG">      0.00010000</i>
   <i name="TEEND">      0.00010000</i>
   <i type="int" name="NBLOCK">     1</i>
   <i type="int" name="KBLOCK">   100</i>
   <i type="int" name="NPACO">   256</i>
   <i name="APACO">     16.00000000</i>
  </separator>
  <separator name="symmetry" >
   <i type="int" name="ISYM">     0</i>
   <i name="SYMPREC">      0.00001000</i>
  </separator>
  <separator name="dos" >
   <i type="logical" name="LORBIT"> F  </i>
   <v name="RWIGS">     -1.00000000     -1.00000000</v>
   <i type="int" name="NEDOS">   301</i>
   <i name="EMIN">     10.00000000</i>
   <i name="EMAX">    -10.00000000</i>
   <i name="EFERMI">      0.00000000</i>
  </separator>
  <separator name="writing" >
   <i type="int" name="NWRITE">     2</i>
   <i type="logical" name="LWAVE"> F  </i>
   <i type="logical" name="LCHARG"> F  </i>
   <i type="logical" name="LPARD"> F  </i>
   <i type="logical" name="LVTOT"> F  </i>
   <i type="logical" name="LVHAR"> F  </i>
   <i type="logical" name="LELF"> F  </i>
   <i type="logical" name="LOPTICS"> F  </i>
   <v name="STM">      0.00000000      0.00000000      0.00000000      0.00000000      0.00000000      0.00000000      0.00000000</v>
  </separator>
  <separator name="performance" >
   <i type="int" name="NPAR">     3</i>
   <i type="int" name="NSIM">     4</i>
   <i type="int" name="NBLK">    -1</i>
   <i type="logical" name="LPLANE"> T  </i>
   <i type="logical" name="LSCALAPACK"> T  </i>
   <i type="logical" name="LSCAAWARE"> F  </i>
   <i type="logical" name="LSCALU"> F  </i>
   <i type="logical" name="LASYNC"> F  </i>
   <i type="logical" name="LORBITALREAL"> F  </i>
  </separator>
  <separator name="miscellaneous" >
   <i type="int" name="IDIOT">     3</i>
   <i type="logical" name="LMUSIC"> F  </i>
   <v name="POMASS">     55.84700000    127.60000000</v>
   <v name="DARWINR">      0.00000000      0.00000000</v>
   <v name="DARWINV">      1.00000000      1.00000000</v>
   <i type="logical" name="LCORR"> T  </i>
  </separator>
  <i type="logical" name="GGA_COMPAT"> T  </i>
  <i type="logical" name="LBERRY"> F  </i>
  <i type="int" name="ICORELEVEL">     0</i>
  <i type="logical" name="LDAU"> F  </i>
  <i type="int" name="I_CONSTRAINED_M">     0</i>
  <separator name="electronic exchange-correlation" >
   <i type="string" name="GGA">--</i>
   <i type="int" name="VOSKOWN">     0</i>
   <i type="logical" name="LHFCALC"> F  </i>
   <i type="string" name="PRECFOCK"></i>
   <i type="logical" name="LSYMGRAD"> F  </i>
   <i type="logical" name="LHFONE"> F  </i>
   <i type="logical" name="LRHFCALC"> F  </i>
   <i type="logical" name="LTHOMAS"> F  </i>
   <i type="logical" name="LMODELHF"> F  </i>
   <i name="ENCUT4O">     -1.00000000</i>
   <i type="int" name="EXXOEP">     0</i>
   <i type="int" name="FOURORBIT">     0</i>
   <i name="AEXX">      0.00000000</i>
   <i name="HFALPHA">      0.00000000</i>
   <i name="MCALPHA">      0.00000000</i>
   <i name="ALDAX">      1.00000000</i>
   <i name="AGGAX">      1.00000000</i>
   <i name="ALDAC">      1.00000000</i>
   <i name="AGGAC">      1.00000000</i>
   <i type="int" name="NKREDX">     1</i>
   <i type="int" name="NKREDY">     1</i>
   <i type="int" name="NKREDZ">     1</i>
   <i type="logical" name="SHIFTRED"> F  </i>
   <i type="logical" name="ODDONLY"> F  </i>
   <i type="logical" name="EVENONLY"> F  </i>
   <i type="int" name="LMAXFOCK">     0</i>
   <i type="int" name="NMAXFOCKAE">     0</i>
   <i type="logical" name="LFOCKAEDFT"> F  </i>
   <i name="HFSCREEN">      0.00000000</i>
   <i name="HFSCREENC">      0.00000000</i>
   <i type="int" name="NBANDSGWLOW">     0</i>
  </separator>
  <separator name="vdW DFT" >
   <i type="logical" name="LUSE_VDW"> F  </i>
   <i name="Zab_VDW">     -0.84910000</i>
   <i name="PARAM1">      0.12340000</i>
   <i name="PARAM2">      1.00000000</i>
   <i name="PARAM3">      0.00000000</i>
  </separator>
  <separator name="model GW" >
   <i type="int" name="MODEL_GW">     0</i>
   <i name="MODEL_EPS0">      6.18984300</i>
   <i name="MODEL_ALPHA">      1.00000000</i>
  </separator>
  <separator name="linear response parameters" >
   <i type="logical" name="LEPSILON"> F  </i>
   <i type="logical" name="LRPA"> F  </i>
   <i type="logical" name="LNABLA"> F  </i>
   <i type="logical" name="LVEL"> F  </i>
   <i type="int" name="KINTER">     0</i>
   <i name="CSHIFT">      0.10000000</i>
   <i name="OMEGAMAX">     -1.00000000</i>
   <i name="DEG_THRESHOLD">      0.00200000</i>
  </separator>
  <separator name="orbital magnetization" >
   <i type="logical" name="NUCIND"> F  </i>
   <v name="MAGPOS">      0.00000000      0.00000000      0.00000000</v>
   <i type="logical" name="LNICSALL"> T  </i>
   <i type="logical" name="ORBITALMAG"> F  </i>
   <i type="logical" name="LMAGBLOCH"> F  </i>
   <i type="logical" name="LCHIMAG"> F  </i>
   <i type="logical" name="LGAUGE"> T  </i>
   <i type="int" name="MAGATOM">     0</i>
   <v name="MAGDIPOL">      0.00000000      0.00000000      0.00000000</v>
   <v name="AVECCONST">      0.00000000      0.00000000      0.00000000</v>
  </separator>
  <separator name="response functions" >
   <i type="logical" name="LADDER"> F  </i>
   <i type="logical" name="LFXC"> F  </i>
   <i type="logical" name="LHARTREE"> T  </i>
   <i type="int" name="IBSE">     0</i>
   <v type="int" name="KPOINT">    -1     0     0     0</v>
   <i type="logical" name="LTCTE"> F  </i>
   <i type="logical" name="LTETE"> F  </i>
   <i type="logical" name="LTRIPLET"> F  </i>
   <i type="logical" name="LFXCEPS"> F  </i>
   <i type="logical" name="LFXHEG"> F  </i>
   <i type="int" name="NATURALO">     0</i>
   <i type="logical" name="L2ORDER"> F  </i>
   <i type="logical" name="LUSEW"> F  </i>
   <i name="ENCUTGW">     -2.00000000</i>
   <i name="ENCUTGWSOFT">     -2.00000000</i>
   <i name="ENCUTLF">     -1.00000000</i>
   <i type="int" name="LMAXMP2">    -1</i>
   <i name="SCISSOR">      0.00000000</i>
   <i type="int" name="NOMEGA">     0</i>
   <i type="int" name="NOMEGAR">     0</i>
   <i type="int" name="NBANDSGW">    -1</i>
   <i type="int" name="NBANDSO">    -1</i>
   <i type="int" name="NBANDSV">    -1</i>
   <i type="int" name="NELM">   400</i>
   <i type="int" name="NELMHF">     1</i>
   <i type="int" name="DIM">     3</i>
   <i type="int" name="ANTIRES">     0</i>
   <i name="OMEGAMAX">    -30.00000000</i>
   <i name="OMEGAMIN">    -30.00000000</i>
   <i name="OMEGATL">   -200.00000000</i>
   <i type="int" name="OMEGAGRID">     0</i>
   <i name="CSHIFT">     -0.10000000</i>
   <i type="logical" name="SELFENERGY"> F  </i>
   <i type="logical" name="LSPECTRAL"> F  </i>
   <i type="logical" name="LSPECTRALGW"> F  </i>
   <i type="logical" name="LSINGLES"> F  </i>
   <i type="logical" name="LFERMIGW"> F  </i>
   <i type="logical" name="ODDONLYGW"> F  </i>
   <i type="logical" name="EVENONLYGW"> F  </i>
   <i type="int" name="NKREDLFX">     1</i>
   <i type="int" name="NKREDLFY">     1</i>
   <i type="int" name="NKREDLFZ">     1</i>
   <i type="int" name="MAXMEM">  1800</i>
   <i type="int" name="TELESCOPE">     0</i>
   <i type="int" name="TAUPAR">     1</i>
   <i type="int" name="OMEGAPAR">    -1</i>
   <i name="LAMBDA">      1.00000000</i>
  </separator>
  <separator name="External order field" >
   <i name="OFIELD_KAPPA">      0.00000000</i>
   <v name="OFIELD_K">      0.00000000      0.00000000      0.00000000</v>
   <i name="OFIELD_Q6_NEAR">      0.00000000</i>
   <i name="OFIELD_Q6_FAR">      0.00000000</i>
   <i name="OFIELD_A">      0.00000000</i>
  </separator>
 </parameters>
 <atominfo>
  <atoms>     107 </atoms>
  <types>       2 </types>
  <array name="atoms" >
   <dimension dim="1">ion</dimension>
   <field type="string">element</field>
   <field type="int">atomtype</field>
   <set>
    <rc><c>Fe</c><c>   1</c></rc>
    <rc><c>Fe</c><c>   1</c></rc>
    <rc><c>Fe</c><c>   1</c></rc>
    <rc><c>Fe</c><c>   1</c></rc>
    <rc><c>Fe</c><c>   1</c></rc>
    <rc><c>Fe</c><c>   1</c></rc>
    <rc><c>Fe</c><c>   1</c></rc>
    <rc><c>Fe</c><c>   1</c></rc>
    <rc><c>Fe</c><c>   1</c></rc>
    <rc><c>Fe</c><c>   1</c></rc>
    <rc><c>Fe</c><c>   1</c></rc>
    <rc><c>Fe</c><c>   1</c></rc>
    <rc><c>Fe</c><c>   1</c></rc>
    <rc><c>Fe</c><c>   1</c></rc>
    <rc><c>Fe</c><c>   1</c></rc>
    <rc><c>Fe</c><c>   1</c></rc>
    <rc><c>Fe</c><c>   1</c></rc>
    <rc><c>Fe</c><c>   1</c></rc>
    <rc><c>Fe</c><c>   1</c></rc>
    <rc><c>Fe</c><c>   1</c></rc>
    <rc><c>Fe</c><c>   1</c></rc>
    <rc><c>Fe</c><c>   1</c></rc>
    <rc><c>Fe</c><c>   1</c></rc>
    <rc><c>Fe</c><c>   1</c></rc>
    <rc><c>Fe</c><c>   1</c></rc>
    <rc><c>Fe</c><c>   1</c></rc>
    <rc><c>Fe</c><c>   1</c></rc>
    <rc><c>Fe</c><c>   1</c></rc>
    <rc><c>Fe</c><c>   1</c></rc>
    <rc><c>Fe</c><c>   1</c></rc>
    <rc><c>Fe</c><c>   1</c></rc>
    <rc><c>Fe</c><c>   1</c></rc>
    <rc><c>Fe</c><c>   1</c></rc>
    <rc><c>Fe</c><c>   1</c></rc>
    <rc><c>Fe</c><c>   1</c></rc>
    <rc><c>Fe</c><c>   1</c></rc>
    <rc><c>Fe</c><c>   1</c></rc>
    <rc><c>Fe</c><c>   1</c></rc>
    <rc><c>Fe</c><c>   1</c></rc>
    <rc><c>Fe</c><c>   1</c></rc>
    <rc><c>Fe</c><c>   1</c></rc>
    <rc><c>Fe</c><c>   1</c></rc>
    <rc><c>Fe</c><c>   1</c></rc>
    <rc><c>Fe</c><c>   1</c></rc>
    <rc><c>Fe</c><c>   1</c></rc>
    <rc><c>Fe</c><c>   1</c></rc>
    <rc><c>Fe</c><c>   1</c></rc>
    <rc><c>Fe</c><c>   1</c></rc>
    <rc><c>Fe</c><c>   1</c></rc>
    <rc><c>Fe</c><c>   1</c></rc>
    <rc><c>Fe</c><c>   1</c></rc>
    <rc><c>Fe</c><c>   1</c></rc>
    <rc><c>Fe</c><c>   1</c></rc>
    <rc><c>Fe</c><c>   1</c></rc>
    <rc><c>Fe</c><c>   1</c></rc>
    <rc><c>Fe</c><c>   1</c></rc>
    <rc><c>Fe</c><c>   1</c></rc>
    <rc><c>Fe</c><c>   1</c></rc>
    <rc><c>Fe</c><c>   1</c></rc>
    <rc><c>Fe</c><c>   1</c></rc>
    <rc><c>Fe</c><c>   1</c></rc>
    <rc><c>Fe</c><c>   1</c></rc>
    <rc><c>Fe</c><c>   1</c></rc>
    <rc><c>Fe</c><c>   1</c></rc>
    <rc><c>Fe</c><c>   1</c></rc>
    <rc><c>Fe</c><c>   1</c></rc>
    <rc><c>Fe</c><c>   1</c></rc>
    <rc><c>Fe</c><c>   1</c></rc>
    <rc><c>Fe</c><c>   1</c></rc>
    <rc><c>Fe</c><c>   1</c></rc>
    <rc><c>Fe</c><c>   1</c></rc>
    <rc><c>Fe</c><c>   1</c></rc>
    <rc><c>Fe</c><c>   1</c></rc>
    <rc><c>Fe</c><c>   1</c></rc>
    <rc><c>Fe</c><c>   1</c></rc>
    <rc><c>Fe</c><c>   1</c></rc>
    <rc><c>Fe</c><c>   1</c></rc>
    <rc><c>Fe</c><c>   1</c></rc>
    <rc><c>Fe</c><c>   1</c></rc>
    <rc><c>Fe</c><c>   1</c></rc>
    <rc><c>Fe</c><c>   1</c></rc>
    <rc><c>Fe</c><c>   1</c></rc>
    <rc><c>Fe</c><c>   1</c></rc>
    <rc><c>Fe</c><c>   1</c></rc>
    <rc><c>Fe</c><c>   1</c></rc>
    <rc><c>Fe</c><c>   1</c></rc>
    <rc><c>Fe</c><c>   1</c></rc>
    <rc><c>Fe</c><c>   1</c></rc>
    <rc><c>Fe</c><c>   1</c></rc>
    <rc><c>Fe</c><c>   1</c></rc>
    <rc><c>Fe</c><c>   1</c></rc>
    <rc><c>Fe</c><c>   1</c></rc>
    <rc><c>Fe</c><c>   1</c></rc>
    <rc><c>Fe</c><c>   1</c></rc>
    <rc><c>Fe</c><c>   1</c></rc>
    <rc><c>Fe</c><c>   1</c></rc>
    <rc><c>Fe</c><c>   1</c></rc>
    <rc><c>Fe</c><c>   1</c></rc>
    <rc><c>Fe</c><c>   1</c></rc>
    <rc><c>Fe</c><c>   1</c></rc>
    <rc><c>Fe</c><c>   1</c></rc>
    <rc><c>Fe</c><c>   1</c></rc>
    <rc><c>Fe</c><c>   1</c></rc>
    <rc><c>Fe</c><c>   1</c></rc>
    <rc><c>Fe</c><c>   1</c></rc>
    <rc><c>Fe</c><c>   1</c></rc>
    <rc><c>Te</c><c>   2</c></rc>
   </set>
  </array>
  <array name="atomtypes" >
   <dimension dim="1">type</dimension>
   <field type="int">atomspertype</field>
   <field type="string">element</field>
   <field>mass</field>
   <field>valence</field>
   <field type="string">pseudopotential</field>
   <set>
    <rc><c> 106</c><c>Fe</c><c>     55.84700000</c><c>      8.00000000</c><c> PAW_PBE Fe 06Sep2000                   </c></rc>
    <rc><c>   1</c><c>Te</c><c>    127.60000000</c><c>      6.00000000</c><c> PAW_PBE Te 08Apr2002                   </c></rc>
   </set>
  </array>
 </atominfo>
 <structure name="initialpos" >
  <crystal>
   <varray name="basis" >
    <v>      10.33484705       0.00000000       0.00000000 </v>
    <v>       0.00000000      10.33484705       0.00000000 </v>
    <v>       0.00000000       0.00000000      10.33484705 </v>
   </varray>
   <i name="volume">   1103.85533447 </i>
   <varray name="rec_basis" >
    <v>       0.09676002       0.00000000       0.00000000 </v>
    <v>       0.00000000       0.09676002       0.00000000 </v>
    <v>       0.00000000       0.00000000       0.09676002 </v>
   </varray>
  </crystal>
  <varray name="positions" >
   <v>       0.00000000       0.00000000       0.00000000 </v>
   <v>       0.00000000       0.16666893       0.16666893 </v>
   <v>       0.00000000       0.33333106       0.00000000 </v>
   <v>       0.00000000       0.50000000       0.16666894 </v>
   <v>       0.00000000       0.66666897       0.00000000 </v>
   <v>       0.00000000       0.83333104       0.16666893 </v>
   <v>       0.00000000       0.00000000       0.33333106 </v>
   <v>       0.00000000       0.16666894       0.50000000 </v>
   <v>       0.00000000       0.33333107       0.33333107 </v>
   <v>       0.00000000       0.50000000       0.50000000 </v>
   <v>       0.00000000       0.66666896       0.33333107 </v>
   <v>       0.00000000       0.83333103       0.50000000 </v>
   <v>       0.00000000       0.00000000       0.66666897 </v>
   <v>       0.00000000       0.16666893       0.83333104 </v>
   <v>       0.00000000       0.33333107       0.66666896 </v>
   <v>       0.00000000       0.50000000       0.83333103 </v>
   <v>       0.00000000       0.66666896       0.66666896 </v>
   <v>       0.00000000       0.83333104       0.83333104 </v>
   <v>       0.16666893       0.00000000       0.16666893 </v>
   <v>       0.16666893       0.16666893       0.00000000 </v>
   <v>       0.16666893       0.83333104       0.00000000 </v>
   <v>       0.16666893       0.33333107       0.50000000 </v>
   <v>       0.16666893       0.50000000       0.33333107 </v>
   <v>       0.16666893       0.66666896       0.50000000 </v>
   <v>       0.16666893       0.00000000       0.83333104 </v>
   <v>       0.16666893       0.50000000       0.66666896 </v>
   <v>       0.16666893       0.33333107       0.16666893 </v>
   <v>       0.16666893       0.66666896       0.16666893 </v>
   <v>       0.16666893       0.16666893       0.33333107 </v>
   <v>       0.16666893       0.83333104       0.33333107 </v>
   <v>       0.16666893       0.16666893       0.66666896 </v>
   <v>       0.16666893       0.33333107       0.83333104 </v>
   <v>       0.16666893       0.66666896       0.83333104 </v>
   <v>       0.16666893       0.83333104       0.66666896 </v>
   <v>       0.16666894       0.50000000       0.00000000 </v>
   <v>       0.16666894       0.00000000       0.50000000 </v>
   <v>       0.33333106       0.00000000       0.00000000 </v>
   <v>       0.33333107       0.16666893       0.16666893 </v>
   <v>       0.33333107       0.83333104       0.16666893 </v>
   <v>       0.33333107       0.33333107       0.33333107 </v>
   <v>       0.33333107       0.66666896       0.33333107 </v>
   <v>       0.33333107       0.16666893       0.83333104 </v>
   <v>       0.33333107       0.33333107       0.66666896 </v>
   <v>       0.33333107       0.66666896       0.66666896 </v>
   <v>       0.33333107       0.83333104       0.83333104 </v>
   <v>       0.33333107       0.33333107       0.00000000 </v>
   <v>       0.33333107       0.50000000       0.16666893 </v>
   <v>       0.33333107       0.66666896       0.00000000 </v>
   <v>       0.33333107       0.00000000       0.33333107 </v>
   <v>       0.33333107       0.16666893       0.50000000 </v>
   <v>       0.33333107       0.83333104       0.50000000 </v>
   <v>       0.33333107       0.00000000       0.66666896 </v>
   <v>       0.33333107       0.50000000       0.83333104 </v>
   <v>       0.50000000       0.00000000       0.16666894 </v>
   <v>       0.50000000       0.16666894       0.00000000 </v>
   <v>       0.50000000       0.33333107       0.16666893 </v>
   <v>       0.50000000       0.50000000       0.00000000 </v>
   <v>       0.50000000       0.66666896       0.16666893 </v>
   <v>       0.50000000       0.83333103       0.00000000 </v>
   <v>       0.50000000       0.00000000       0.50000000 </v>
   <v>       0.50000000       0.16666893       0.33333107 </v>
   <v>       0.50000000       0.33333106       0.50000000 </v>
   <v>       0.50000000       0.50000000       0.33333106 </v>
   <v>       0.50000000       0.66666897       0.50000000 </v>
   <v>       0.50000000       0.83333104       0.33333107 </v>
   <v>       0.50000000       0.00000000       0.83333103 </v>
   <v>       0.50000000       0.16666893       0.66666896 </v>
   <v>       0.50000000       0.33333107       0.83333104 </v>
   <v>       0.50000000       0.66666896       0.83333104 </v>
   <v>       0.50000000       0.83333104       0.66666896 </v>
   <v>       0.66666896       0.33333107       0.00000000 </v>
   <v>       0.66666896       0.50000000       0.16666893 </v>
   <v>       0.66666896       0.66666896       0.00000000 </v>
   <v>       0.66666896       0.00000000       0.33333107 </v>
   <v>       0.66666896       0.16666893       0.50000000 </v>
   <v>       0.66666896       0.83333104       0.50000000 </v>
   <v>       0.66666896       0.00000000       0.66666896 </v>
   <v>       0.66666896       0.50000000       0.83333104 </v>
   <v>       0.66666896       0.16666893       0.16666893 </v>
   <v>       0.50000000       0.50000000       0.66666667 </v>
   <v>       0.66666896       0.33333107       0.33333107 </v>
   <v>       0.66666896       0.66666896       0.33333107 </v>
   <v>       0.66666896       0.16666893       0.83333104 </v>
   <v>       0.66666896       0.33333107       0.66666896 </v>
   <v>       0.66666896       0.66666896       0.66666896 </v>
   <v>       0.66666896       0.83333104       0.83333104 </v>
   <v>       0.66666897       0.00000000       0.00000000 </v>
   <v>       0.66666897       0.50000000       0.50000000 </v>
   <v>       0.83333103       0.50000000       0.00000000 </v>
   <v>       0.83333103       0.00000000       0.50000000 </v>
   <v>       0.83333104       0.33333107       0.16666893 </v>
   <v>       0.83333104       0.66666896       0.16666893 </v>
   <v>       0.83333104       0.16666893       0.33333107 </v>
   <v>       0.83333104       0.83333104       0.33333107 </v>
   <v>       0.83333104       0.16666893       0.66666896 </v>
   <v>       0.83333104       0.33333107       0.83333104 </v>
   <v>       0.83333104       0.66666896       0.83333104 </v>
   <v>       0.83333104       0.83333104       0.66666896 </v>
   <v>       0.83333104       0.00000000       0.16666893 </v>
   <v>       0.83333104       0.16666893       0.00000000 </v>
   <v>       0.83333104       0.83333104       0.00000000 </v>
   <v>       0.83333104       0.33333107       0.50000000 </v>
   <v>       0.83333104       0.50000000       0.33333107 </v>
   <v>       0.83333104       0.66666896       0.50000000 </v>
   <v>       0.83333104       0.00000000       0.83333104 </v>
   <v>       0.83333104       0.50000000       0.66666896 </v>
   <v>       0.33333106       0.50000000       0.50000000 </v>
  </varray>
 </structure>
 <calculation>
  <scstep>
   <time name="dav">  179.83  179.85</time>
   <time name="total">  180.09  180.10</time>
   <energy>
    <i name="alphaZ">   7085.54738553 </i>
    <i name="ewald"> -64847.33026871 </i>
    <i name="hartreedc"> -11365.85697094 </i>
    <i name="XCdc">    411.95226338 </i>
    <i name="pawpsdc">  50869.49801454 </i>
    <i name="pawaedc"> -51640.13888436 </i>
    <i name="eentropy">      0.00508512 </i>
    <i name="bandstr">  13754.43558818 </i>
    <i name="atom">  63236.02203821 </i>
    <i name="e_fr_energy">   7504.13425094 </i>
    <i name="e_wo_entrp">   7504.12916582 </i>
    <i name="e_0_energy">   7504.13255590 </i>
   </energy>
  </scstep>
  <scstep>
   <time name="dav">  179.29  179.31</time>
   <time name="total">  179.32  179.34</time>
   <energy>
    <i name="e_fr_energy">    -13.31743509 </i>
    <i name="e_wo_entrp">    -13.30995422 </i>
    <i name="e_0_energy">    -13.31494147 </i>
   </energy>
  </scstep>
  <scstep>
   <time name="dav">  180.28  180.30</time>
   <time name="total">  180.32  180.33</time>
   <energy>
    <i name="e_fr_energy">   -833.24778381 </i>
    <i name="e_wo_entrp">   -833.26352618 </i>
    <i name="e_0_energy">   -833.25303127 </i>
   </energy>
  </scstep>
  <scstep>
   <time name="dav">  292.76  292.78</time>
   <time name="total">  292.79  292.82</time>
   <energy>
    <i name="e_fr_energy">  -1006.47894325 </i>
    <i name="e_wo_entrp">  -1006.47264919 </i>
    <i name="e_0_energy">  -1006.47684523 </i>
   </energy>
  </scstep>
  <scstep>
   <time name="dav">  262.68  262.70</time>
   <time name="total">  271.13  271.16</time>
   <energy>
    <i name="e_fr_energy">  -1021.24188535 </i>
    <i name="e_wo_entrp">  -1021.21958191 </i>
    <i name="e_0_energy">  -1021.23445087 </i>
   </energy>
  </scstep>
  <scstep>
   <time name="diag">   23.51   23.51</time>
   <time name="diis">  102.40  102.41</time>
   <time name="orth">    5.17    5.17</time>
   <time name="total">  139.73  139.74</time>
   <energy>
    <i name="e_fr_energy">   -883.08517409 </i>
    <i name="e_wo_entrp">   -883.06103367 </i>
    <i name="e_0_energy">   -883.07712728 </i>
   </energy>
  </scstep>
  <scstep>
   <time name="diag">   23.49   23.49</time>
   <time name="diis">  125.94  125.95</time>
   <time name="orth">    5.17    5.17</time>
   <time name="total">  163.25  163.26</time>
   <energy>
    <i name="e_fr_energy">  -1171.67659137 </i>
    <i name="e_wo_entrp">  -1171.69536389 </i>
    <i name="e_0_energy">  -1171.68284888 </i>
   </energy>
  </scstep>
  <scstep>
   <time name="diag">   23.50   23.51</time>
   <time name="diis">  102.40  102.41</time>
   <time name="orth">    5.17    5.17</time>
   <time name="total">  139.71  139.72</time>
   <energy>
    <i name="e_fr_energy">   -897.16063727 </i>
    <i name="e_wo_entrp">   -897.13447923 </i>
    <i name="e_0_energy">   -897.15191792 </i>
   </energy>
  </scstep>
  <scstep>
   <time name="diag">   23.46   23.47</time>
   <time name="diis">  102.55  102.56</time>
   <time name="orth">    5.17    5.17</time>
   <time name="total">  139.81  139.83</time>
   <energy>
    <i name="e_fr_energy">   -861.82426032 </i>
    <i name="e_wo_entrp">   -861.77655444 </i>
    <i name="e_0_energy">   -861.80835836 </i>
   </energy>
  </scstep>
  <scstep>
   <time name="diag">   23.53   23.53</time>
   <time name="diis">  138.91  138.92</time>
   <time name="orth">    5.17    5.17</time>
   <time name="total">  176.28  176.30</time>
   <energy>
    <i name="e_fr_energy">   -863.41116665 </i>
    <i name="e_wo_entrp">   -863.41223750 </i>
    <i name="e_0_energy">   -863.41152360 </i>
   </energy>
  </scstep>
  <scstep>
   <time name="diag">   23.50   23.50</time>
   <time name="diis">  120.24  120.25</time>
   <time name="orth">    5.17    5.17</time>
   <time name="total">  157.54  157.55</time>
   <energy>
    <i name="e_fr_energy">   -863.59084599 </i>
    <i name="e_wo_entrp">   -863.57235045 </i>
    <i name="e_0_energy">   -863.58468081 </i>
   </energy>
  </scstep>
  <scstep>
   <time name="diag">   23.50   23.50</time>
   <time name="diis">  112.02  112.03</time>
   <time name="orth">    5.17    5.17</time>
   <time name="total">  149.32  149.33</time>
   <energy>
    <i name="e_fr_energy">   -862.03434945 </i>
    <i name="e_wo_entrp">   -862.02904935 </i>
    <i name="e_0_energy">   -862.03258275 </i>
   </energy>
  </scstep>
  <scstep>
   <time name="diag">   23.49   23.50</time>
   <time name="diis">  122.40  122.41</time>
   <time name="orth">    5.17    5.17</time>
   <time name="total">  159.72  159.73</time>
   <energy>
    <i name="e_fr_energy">   -862.02829988 </i>
    <i name="e_wo_entrp">   -862.01722558 </i>
    <i name="e_0_energy">   -862.02460845 </i>
   </energy>
  </scstep>
  <scstep>
   <time name="diag">   23.51   23.51</time>
   <time name="diis">  108.22  108.23</time>
   <time name="orth">    5.17    5.17</time>
   <time name="total">  145.51  145.53</time>
   <energy>
    <i name="e_fr_energy">   -861.57052256 </i>
    <i name="e_wo_entrp">   -861.54971608 </i>
    <i name="e_0_energy">   -861.56358707 </i>
   </energy>
  </scstep>
  <scstep>
   <time name="diag">   23.50   23.50</time>
   <time name="diis">  140.18  140.19</time>
   <time name="orth">    5.17    5.17</time>
   <time name="total">  177.46  177.47</time>
   <energy>
    <i name="e_fr_energy">   -861.54002302 </i>
    <i name="e_wo_entrp">   -861.51887497 </i>
    <i name="e_0_energy">   -861.53297367 </i>
   </energy>
  </scstep>
  <scstep>
   <time name="diag">   23.49   23.49</time>
   <time name="diis">  106.14  106.16</time>
   <time name="orth">    5.17    5.17</time>
   <time name="total">  143.45  143.46</time>
   <energy>
    <i name="e_fr_energy">   -861.30170826 </i>
    <i name="e_wo_entrp">   -861.28353664 </i>
    <i name="e_0_energy">   -861.29565105 </i>
   </energy>
  </scstep>
  <scstep>
   <time name="diag">   23.48   23.48</time>
   <time name="diis">  114.73  114.74</time>
   <time name="orth">    5.17    5.17</time>
   <time name="total">  152.02  152.03</time>
   <energy>
    <i name="e_fr_energy">   -861.24977387 </i>
    <i name="e_wo_entrp">   -861.23287903 </i>
    <i name="e_0_energy">   -861.24414226 </i>
   </energy>
  </scstep>
  <scstep>
   <time name="diag">   23.47   23.48</time>
   <time name="diis">  136.20  136.21</time>
   <time name="orth">    5.17    5.17</time>
   <time name="total">  173.48  173.49</time>
   <energy>
    <i name="e_fr_energy">   -861.28427574 </i>
    <i name="e_wo_entrp">   -861.26819902 </i>
    <i name="e_0_energy">   -861.27891684 </i>
   </energy>
  </scstep>
  <scstep>
   <time name="diag">   23.47   23.47</time>
   <time name="diis">  111.86  111.87</time>
   <time name="orth">    5.17    5.17</time>
   <time name="total">  149.13  149.14</time>
   <energy>
    <i name="e_fr_energy">   -861.25025894 </i>
    <i name="e_wo_entrp">   -861.23619146 </i>
    <i name="e_0_energy">   -861.24556978 </i>
   </energy>
  </scstep>
  <scstep>
   <time name="diag">   23.44   23.44</time>
   <time name="diis">  150.30  150.31</time>
   <time name="orth">    5.17    5.17</time>
   <time name="total">  187.53  187.54</time>
   <energy>
    <i name="e_fr_energy">   -861.25393747 </i>
    <i name="e_wo_entrp">   -861.24017162 </i>
    <i name="e_0_energy">   -861.24934886 </i>
   </energy>
  </scstep>
  <scstep>
   <time name="diag">   23.46   23.46</time>
   <time name="diis">  107.08  107.09</time>
   <time name="orth">    5.17    5.17</time>
   <time name="total">  144.30  144.31</time>
   <energy>
    <i name="e_fr_energy">   -861.24707641 </i>
    <i name="e_wo_entrp">   -861.23293699 </i>
    <i name="e_0_energy">   -861.24236327 </i>
   </energy>
  </scstep>
  <scstep>
   <time name="diag">   23.44   23.44</time>
   <time name="diis">  119.26  119.27</time>
   <time name="orth">    5.17    5.17</time>
   <time name="total">  156.47  156.48</time>
   <energy>
    <i name="e_fr_energy">   -861.24507008 </i>
    <i name="e_wo_entrp">   -861.23123680 </i>
    <i name="e_0_energy">   -861.24045899 </i>
   </energy>
  </scstep>
  <scstep>
   <time name="diag">   23.44   23.44</time>
   <time name="diis">  118.79  118.79</time>
   <time name="orth">    5.16    5.16</time>
   <time name="total">  155.97  155.99</time>
   <energy>
    <i name="e_fr_energy">   -861.24312204 </i>
    <i name="e_wo_entrp">   -861.22902379 </i>
    <i name="e_0_energy">   -861.23842262 </i>
   </energy>
  </scstep>
  <scstep>
   <time name="diag">   23.44   23.44</time>
   <time name="diis">  120.38  120.39</time>
   <time name="orth">    5.17    5.17</time>
   <time name="total">  157.58  157.60</time>
   <energy>
    <i name="e_fr_energy">   -861.24181986 </i>
    <i name="e_wo_entrp">   -861.22759384 </i>
    <i name="e_0_energy">   -861.23707785 </i>
   </energy>
  </scstep>
  <scstep>
   <time name="diag">   23.40   23.40</time>
   <time name="diis">  148.52  148.53</time>
   <time name="orth">    5.17    5.17</time>
   <time name="total">  185.63  185.64</time>
   <energy>
    <i name="e_fr_energy">   -861.24193792 </i>
    <i name="e_wo_entrp">   -861.22778684 </i>
    <i name="e_0_energy">   -861.23722089 </i>
   </energy>
  </scstep>
  <scstep>
   <time name="diag">   23.38   23.38</time>
   <time name="diis">  126.72  126.73</time>
   <time name="orth">    5.16    5.16</time>
   <time name="total">  163.83  163.84</time>
   <energy>
    <i name="e_fr_energy">   -861.24185900 </i>
    <i name="e_wo_entrp">   -861.22770217 </i>
    <i name="e_0_energy">   -861.23714006 </i>
   </energy>
  </scstep>
  <scstep>
   <time name="diag">   23.39   23.39</time>
   <time name="diis">  130.21  130.22</time>
   <time name="orth">    5.17    5.17</time>
   <time name="total">  167.34  167.35</time>
   <energy>
    <i name="e_fr_energy">   -861.24181488 </i>
    <i name="e_wo_entrp">   -861.22775524 </i>
    <i name="e_0_energy">   -861.23712833 </i>
   </energy>
  </scstep>
  <scstep>
   <time name="diag">   23.38   23.38</time>
   <time name="diis">  109.02  109.03</time>
   <time name="orth">    5.17    5.17</time>
   <time name="total">  146.13  146.14</time>
   <energy>
    <i name="e_fr_energy">   -861.24176462 </i>
    <i name="e_wo_entrp">   -861.22786457 </i>
    <i name="e_0_energy">   -861.23713127 </i>
   </energy>
  </scstep>
  <scstep>
   <time name="diag">   23.39   23.39</time>
   <time name="diis">  111.38  111.38</time>
   <time name="orth">    5.17    5.17</time>
   <time name="total">  148.50  148.52</time>
   <energy>
    <i name="e_fr_energy">   -861.24173701 </i>
    <i name="e_wo_entrp">   -861.22794558 </i>
    <i name="e_0_energy">   -861.23713987 </i>
   </energy>
  </scstep>
  <scstep>
   <time name="diag">   23.39   23.39</time>
   <time name="diis">  129.32  129.33</time>
   <time name="orth">    5.17    5.17</time>
   <time name="total">  166.44  166.46</time>
   <energy>
    <i name="e_fr_energy">   -861.24172925 </i>
    <i name="e_wo_entrp">   -861.22801065 </i>
    <i name="e_0_energy">   -861.23715638 </i>
   </energy>
  </scstep>
  <scstep>
   <time name="diag">   23.40   23.40</time>
   <time name="diis">  109.53  109.54</time>
   <time name="orth">    5.17    5.17</time>
   <time name="total">  146.67  146.69</time>
   <energy>
    <i name="e_fr_energy">   -861.24170970 </i>
    <i name="e_wo_entrp">   -861.22808279 </i>
    <i name="e_0_energy">   -861.23716740 </i>
   </energy>
  </scstep>
  <scstep>
   <time name="diag">   23.41   23.41</time>
   <time name="diis">   78.79   78.79</time>
   <time name="orth">    5.17    5.17</time>
   <time name="total">  115.94  115.95</time>
   <energy>
    <i name="e_fr_energy">   -861.24170446 </i>
    <i name="e_wo_entrp">   -861.22814455 </i>
    <i name="e_0_energy">   -861.23718449 </i>
   </energy>
  </scstep>
  <scstep>
   <time name="diag">   23.34   23.34</time>
   <time name="diis">   71.87   71.88</time>
   <time name="orth">    5.17    5.17</time>
   <time name="total">  108.97  108.98</time>
   <energy>
    <i name="e_fr_energy">   -861.24170091 </i>
    <i name="e_wo_entrp">   -861.22819650 </i>
    <i name="e_0_energy">   -861.23719944 </i>
   </energy>
  </scstep>
  <scstep>
   <time name="diag">   23.34   23.34</time>
   <time name="diis">   66.88   66.88</time>
   <time name="orth">    5.17    5.17</time>
   <time name="total">  103.95  103.96</time>
   <energy>
    <i name="e_fr_energy">   -861.24169717 </i>
    <i name="e_wo_entrp">   -861.22824797 </i>
    <i name="e_0_energy">   -861.23721410 </i>
   </energy>
  </scstep>
  <scstep>
   <time name="diag">   23.35   23.35</time>
   <time name="diis">   65.09   65.10</time>
   <time name="orth">    5.17    5.17</time>
   <time name="total">  102.18  102.20</time>
   <energy>
    <i name="e_fr_energy">   -861.24169408 </i>
    <i name="e_wo_entrp">   -861.22829203 </i>
    <i name="e_0_energy">   -861.23722673 </i>
   </energy>
  </scstep>
  <scstep>
   <time name="diag">   23.31   23.32</time>
   <time name="diis">   64.31   64.32</time>
   <time name="orth">    5.16    5.16</time>
   <time name="total">  101.36  101.37</time>
   <energy>
    <i name="e_fr_energy">   -861.24169164 </i>
    <i name="e_wo_entrp">   -861.22832896 </i>
    <i name="e_0_energy">   -861.23723741 </i>
   </energy>
  </scstep>
  <scstep>
   <time name="diag">   23.31   23.31</time>
   <time name="diis">   63.51   63.51</time>
   <time name="orth">    5.16    5.16</time>
   <time name="total">  100.56  100.57</time>
   <energy>
    <i name="e_fr_energy">   -861.24168900 </i>
    <i name="e_wo_entrp">   -861.22836498 </i>
    <i name="e_0_energy">   -861.23724766 </i>
   </energy>
  </scstep>
  <scstep>
   <time name="diag">   23.32   23.32</time>
   <time name="diis">   62.42   62.43</time>
   <time name="orth">    5.16    5.16</time>
   <time name="total">   99.48   99.49</time>
   <energy>
    <i name="e_fr_energy">   -861.24168708 </i>
    <i name="e_wo_entrp">   -861.22839371 </i>
    <i name="e_0_energy">   -861.23725596 </i>
   </energy>
  </scstep>
  <scstep>
   <time name="diag">   23.29   23.29</time>
   <time name="diis">   58.37   58.38</time>
   <time name="orth">    5.16    5.16</time>
   <time name="total">   95.41   95.42</time>
   <energy>
    <i name="e_fr_energy">   -861.24168489 </i>
    <i name="e_wo_entrp">   -861.22842341 </i>
    <i name="e_0_energy">   -861.23726440 </i>
   </energy>
  </scstep>
  <scstep>
   <time name="diag">   23.33   23.33</time>
   <time name="diis">   58.79   58.79</time>
   <time name="orth">    5.16    5.16</time>
   <time name="total">   95.86   95.87</time>
   <energy>
    <i name="e_fr_energy">   -861.24168287 </i>
    <i name="e_wo_entrp">   -861.22845101 </i>
    <i name="e_0_energy">   -861.23727225 </i>
   </energy>
  </scstep>
  <scstep>
   <time name="diag">   23.34   23.34</time>
   <time name="diis">   56.03   56.03</time>
   <time name="orth">    5.16    5.16</time>
   <time name="total">   93.10   93.11</time>
   <energy>
    <i name="e_fr_energy">   -861.24168141 </i>
    <i name="e_wo_entrp">   -861.22847269 </i>
    <i name="e_0_energy">   -861.23727850 </i>
   </energy>
  </scstep>
  <scstep>
   <time name="diag">   23.34   23.35</time>
   <time name="diis">   53.82   53.83</time>
   <time name="orth">    5.16    5.16</time>
   <time name="total">   90.89   90.90</time>
   <energy>
    <i name="e_fr_energy">   -861.24167996 </i>
    <i name="e_wo_entrp">   -861.22849262 </i>
    <i name="e_0_energy">   -861.23728418 </i>
   </energy>
  </scstep>
  <scstep>
   <time name="diag">   23.35   23.35</time>
   <time name="diis">   53.70   53.70</time>
   <time name="orth">    5.16    5.16</time>
   <time name="total">   90.82   90.83</time>
   <energy>
    <i name="e_fr_energy">   -861.24167866 </i>
    <i name="e_wo_entrp">   -861.22851092 </i>
    <i name="e_0_energy">   -861.23728941 </i>
   </energy>
  </scstep>
  <scstep>
   <time name="diag">   23.35   23.36</time>
   <time name="diis">   51.55   51.56</time>
   <time name="orth">    5.16    5.16</time>
   <time name="total">   88.66   88.67</time>
   <energy>
    <i name="e_fr_energy">   -861.24167736 </i>
    <i name="e_wo_entrp">   -861.22852833 </i>
    <i name="e_0_energy">   -861.23729435 </i>
   </energy>
  </scstep>
  <scstep>
   <time name="diag">   23.36   23.36</time>
   <time name="diis">   51.46   51.47</time>
   <time name="orth">    5.16    5.16</time>
   <time name="total">   88.58   88.58</time>
   <energy>
    <i name="e_fr_energy">   -861.24167625 </i>
    <i name="e_wo_entrp">   -861.22854344 </i>
    <i name="e_0_energy">   -861.23729865 </i>
   </energy>
  </scstep>
  <scstep>
   <time name="diag">   23.32   23.32</time>
   <time name="diis">   50.81   50.82</time>
   <time name="orth">    5.16    5.16</time>
   <time name="total">   79.53   79.54</time>
   <energy>
    <i name="alphaZ">   7085.54738553 </i>
    <i name="ewald"> -64847.33026871 </i>
    <i name="hartreedc">  -9581.55517082 </i>
    <i name="XCdc">    328.89926405 </i>
    <i name="pawpsdc">  57141.71665479 </i>
    <i name="pawaedc"> -58022.19837605 </i>
    <i name="eentropy">     -0.01311815 </i>
    <i name="bandstr">   3797.66991589 </i>
    <i name="atom">  63236.02203821 </i>
    <i name="e_fr_energy">   -861.24167526 </i>
    <i name="e_wo_entrp">   -861.22855711 </i>
    <i name="e_0_energy">   -861.23730255 </i>
   </energy>
  </scstep>
  <structure>
   <crystal>
    <varray name="basis" >
     <v>      10.33484705       0.00000000       0.00000000 </v>
     <v>       0.00000000      10.33484705       0.00000000 </v>
     <v>       0.00000000       0.00000000      10.33484705 </v>
    </varray>
    <i name="volume">   1103.85533447 </i>
    <varray name="rec_basis" >
     <v>       0.09676002       0.00000000       0.00000000 </v>
     <v>       0.00000000       0.09676002       0.00000000 </v>
     <v>       0.00000000       0.00000000       0.09676002 </v>
    </varray>
   </crystal>
   <varray name="positions" >
    <v>       0.00000000       0.00000000       0.00000000 </v>
    <v>       0.00000000       0.16666893       0.16666893 </v>
    <v>       0.00000000       0.33333106       0.00000000 </v>
    <v>       0.00000000       0.50000000       0.16666894 </v>
    <v>       0.00000000       0.66666897       0.00000000 </v>
    <v>       0.00000000       0.83333104       0.16666893 </v>
    <v>       0.00000000       0.00000000       0.33333106 </v>
    <v>       0.00000000       0.16666894       0.50000000 </v>
    <v>       0.00000000       0.33333107       0.33333107 </v>
    <v>       0.00000000       0.50000000       0.50000000 </v>
    <v>       0.00000000       0.66666896       0.33333107 </v>
    <v>       0.00000000       0.83333103       0.50000000 </v>
    <v>       0.00000000       0.00000000       0.66666897 </v>
    <v>       0.00000000       0.16666893       0.83333104 </v>
    <v>       0.00000000       0.33333107       0.66666896 </v>
    <v>       0.00000000       0.50000000       0.83333103 </v>
    <v>       0.00000000       0.66666896       0.66666896 </v>
    <v>       0.00000000       0.83333104       0.83333104 </v>
    <v>       0.16666893       0.00000000       0.16666893 </v>
    <v>       0.16666893       0.16666893       0.00000000 </v>
    <v>       0.16666893       0.83333104       0.00000000 </v>
    <v>       0.16666893       0.33333107       0.50000000 </v>
    <v>       0.16666893       0.50000000       0.33333107 </v>
    <v>       0.16666893       0.66666896       0.50000000 </v>
    <v>       0.16666893       0.00000000       0.83333104 </v>
    <v>       0.16666893       0.50000000       0.66666896 </v>
    <v>       0.16666893       0.33333107       0.16666893 </v>
    <v>       0.16666893       0.66666896       0.16666893 </v>
    <v>       0.16666893       0.16666893       0.33333107 </v>
    <v>       0.16666893       0.83333104       0.33333107 </v>
    <v>       0.16666893       0.16666893       0.66666896 </v>
    <v>       0.16666893       0.33333107       0.83333104 </v>
    <v>       0.16666893       0.66666896       0.83333104 </v>
    <v>       0.16666893       0.83333104       0.66666896 </v>
    <v>       0.16666894       0.50000000       0.00000000 </v>
    <v>       0.16666894       0.00000000       0.50000000 </v>
    <v>       0.33333106       0.00000000       0.00000000 </v>
    <v>       0.33333107       0.16666893       0.16666893 </v>
    <v>       0.33333107       0.83333104       0.16666893 </v>
    <v>       0.33333107       0.33333107       0.33333107 </v>
    <v>       0.33333107       0.66666896       0.33333107 </v>
    <v>       0.33333107       0.16666893       0.83333104 </v>
    <v>       0.33333107       0.33333107       0.66666896 </v>
    <v>       0.33333107       0.66666896       0.66666896 </v>
    <v>       0.33333107       0.83333104       0.83333104 </v>
    <v>       0.33333107       0.33333107       0.00000000 </v>
    <v>       0.33333107       0.50000000       0.16666893 </v>
    <v>       0.33333107       0.66666896       0.00000000 </v>
    <v>       0.33333107       0.00000000       0.33333107 </v>
    <v>       0.33333107       0.16666893       0.50000000 </v>
    <v>       0.33333107       0.83333104       0.50000000 </v>
    <v>       0.33333107       0.00000000       0.66666896 </v>
    <v>       0.33333107       0.50000000       0.83333104 </v>
    <v>       0.50000000       0.00000000       0.16666894 </v>
    <v>       0.50000000       0.16666894       0.00000000 </v>
    <v>       0.50000000       0.33333107       0.16666893 </v>
    <v>       0.50000000       0.50000000       0.00000000 </v>
    <v>       0.50000000       0.66666896       0.16666893 </v>
    <v>       0.50000000       0.83333103       0.00000000 </v>
    <v>       0.50000000       0.00000000       0.50000000 </v>
    <v>       0.50000000       0.16666893       0.33333107 </v>
    <v>       0.50000000       0.33333106       0.50000000 </v>
    <v>       0.50000000       0.50000000       0.33333106 </v>
    <v>       0.50000000       0.66666897       0.50000000 </v>
    <v>       0.50000000       0.83333104       0.33333107 </v>
    <v>       0.50000000       0.00000000       0.83333103 </v>
    <v>       0.50000000       0.16666893       0.66666896 </v>
    <v>       0.50000000       0.33333107       0.83333104 </v>
    <v>       0.50000000       0.66666896       0.83333104 </v>
    <v>       0.50000000       0.83333104       0.66666896 </v>
    <v>       0.66666896       0.33333107       0.00000000 </v>
    <v>       0.66666896       0.50000000       0.16666893 </v>
    <v>       0.66666896       0.66666896       0.00000000 </v>
    <v>       0.66666896       0.00000000       0.33333107 </v>
    <v>       0.66666896       0.16666893       0.50000000 </v>
    <v>       0.66666896       0.83333104       0.50000000 </v>
    <v>       0.66666896       0.00000000       0.66666896 </v>
    <v>       0.66666896       0.50000000       0.83333104 </v>
    <v>       0.66666896       0.16666893       0.16666893 </v>
    <v>       0.50000000       0.50000000       0.66666667 </v>
    <v>       0.66666896       0.33333107       0.33333107 </v>
    <v>       0.66666896       0.66666896       0.33333107 </v>
    <v>       0.66666896       0.16666893       0.83333104 </v>
    <v>       0.66666896       0.33333107       0.66666896 </v>
    <v>       0.66666896       0.66666896       0.66666896 </v>
    <v>       0.66666896       0.83333104       0.83333104 </v>
    <v>       0.66666897       0.00000000       0.00000000 </v>
    <v>       0.66666897       0.50000000       0.50000000 </v>
    <v>       0.83333103       0.50000000       0.00000000 </v>
    <v>       0.83333103       0.00000000       0.50000000 </v>
    <v>       0.83333104       0.33333107       0.16666893 </v>
    <v>       0.83333104       0.66666896       0.16666893 </v>
    <v>       0.83333104       0.16666893       0.33333107 </v>
    <v>       0.83333104       0.83333104       0.33333107 </v>
    <v>       0.83333104       0.16666893       0.66666896 </v>
    <v>       0.83333104       0.33333107       0.83333104 </v>
    <v>       0.83333104       0.66666896       0.83333104 </v>
    <v>       0.83333104       0.83333104       0.66666896 </v>
    <v>       0.83333104       0.00000000       0.16666893 </v>
    <v>       0.83333104       0.16666893       0.00000000 </v>
    <v>       0.83333104       0.83333104       0.00000000 </v>
    <v>       0.83333104       0.33333107       0.50000000 </v>
    <v>       0.83333104       0.50000000       0.33333107 </v>
    <v>       0.83333104       0.66666896       0.50000000 </v>
    <v>       0.83333104       0.00000000       0.83333104 </v>
    <v>       0.83333104       0.50000000       0.66666896 </v>
    <v>       0.33333106       0.50000000       0.50000000 </v>
   </varray>
  </structure>
  <varray name="forces" >
   <v>      -0.06374501       0.01512082      -0.01512325 </v>
   <v>      -0.19361964      -0.19400828       0.00333759 </v>
   <v>      -0.02146899       0.01283286       0.00598663 </v>
   <v>      -0.03099794       0.20802186       0.17537886 </v>
   <v>      -0.01900925      -0.02139586      -0.00735242 </v>
   <v>      -0.18414225      -0.01080850       0.01081175 </v>
   <v>      -0.01900342       0.00734929       0.02139992 </v>
   <v>       0.19639734       0.19597054       0.02957686 </v>
   <v>       0.01098401      -0.02928471      -0.03431679 </v>
   <v>      -0.05517131      -0.02457376       0.02457084 </v>
   <v>       0.01463649       0.02297648      -0.02297423 </v>
   <v>      -0.03099654      -0.17536572      -0.20802188 </v>
   <v>      -0.02146872      -0.00598863      -0.01283561 </v>
   <v>       0.03015517       0.02975268      -0.02975853 </v>
   <v>       0.06890717      -0.03195433       0.03194809 </v>
   <v>       0.19639458      -0.02957718      -0.19597646 </v>
   <v>       0.01098270       0.03431988       0.02928033 </v>
   <v>      -0.19362503      -0.00333310       0.19400553 </v>
   <v>       0.01124335      -0.02494969      -0.01088843 </v>
   <v>       0.01203316      -0.02185919       0.00598292 </v>
   <v>       0.01124310       0.01089474       0.02494967 </v>
   <v>      -1.42275418      -1.42192747       0.03410947 </v>
   <v>      -1.42601895       0.00036340      -1.42704463 </v>
   <v>      -1.42601198       1.42704159      -0.00036280 </v>
   <v>       0.01203136      -0.00598244       0.02185167 </v>
   <v>      -1.42275470      -0.03410645       1.42192122 </v>
   <v>      -0.03164605      -0.03085205       0.01810175 </v>
   <v>      -0.03755556       0.04891557       0.02198190 </v>
   <v>      -0.03010652       0.01058490      -0.03431975 </v>
   <v>      -0.03755607      -0.02197483      -0.04891279 </v>
   <v>      -0.03278638       0.06848440       0.03195579 </v>
   <v>      -0.03278686      -0.03196049      -0.06849099 </v>
   <v>      -0.03010501       0.03432252      -0.01058984 </v>
   <v>      -0.03164614      -0.01809463       0.03084788 </v>
   <v>      -0.00844384       0.01338471       0.00387558 </v>
   <v>      -0.00845069      -0.00388498      -0.01338388 </v>
   <v>       0.00737998       0.01360845      -0.01361349 </v>
   <v>       0.20838414      -0.03136327       0.17538707 </v>
   <v>       0.19054724      -0.16851780       0.16852168 </v>
   <v>       0.00082769      -1.42506002      -1.42689904 </v>
   <v>       0.02376365       1.39489184      -1.39488820 </v>
   <v>      -0.02916368       0.19597782      -0.19598249 </v>
   <v>      -0.03362363      -1.42179862       1.42178719 </v>
   <v>       0.00082467       1.42691148       1.42505642 </v>
   <v>       0.20838923      -0.17538185       0.03135866 </v>
   <v>       0.01377245      -0.00762636       0.00387695 </v>
   <v>       0.20400999       0.20362020      -0.08289405 </v>
   <v>       0.00842067       0.00278737      -0.00958526 </v>
   <v>       0.00841519       0.00957890      -0.00278451 </v>
   <v>      -0.02416069      -0.05561309       0.02456525 </v>
   <v>       0.20400716       0.08290881      -0.20361920 </v>
   <v>       0.01377185      -0.00388365       0.00762232 </v>
   <v>      -0.02414019      -0.02456408       0.05559648 </v>
   <v>       0.03783158      -0.03920769      -0.00867503 </v>
   <v>      -0.02099281      -0.01938468      -0.00737666 </v>
   <v>       0.04929129      -0.03676351       0.02199328 </v>
   <v>       0.00324956       0.00806765      -0.00958116 </v>
   <v>       0.08819571       0.08780603       0.02589004 </v>
   <v>       0.03783193       0.00867339       0.03919087 </v>
   <v>       0.00324484       0.00956834      -0.00806213 </v>
   <v>       0.02337285       0.01425364      -0.02297861 </v>
   <v>       1.42723273      -1.42498890      -0.00037513 </v>
   <v>       1.39523403       0.02332925      -1.39481304 </v>
   <v>       1.39523975       1.39482777      -0.02334459 </v>
   <v>       0.08819226      -0.02587633      -0.08781251 </v>
   <v>      -0.02099197       0.00736087       0.01939002 </v>
   <v>       0.03471965       0.01060355       0.02929570 </v>
   <v>       0.03472155      -0.02928117      -0.01061858 </v>
   <v>       0.02337865       0.02295606      -0.01426969 </v>
   <v>       0.04928881      -0.02198225       0.03676174 </v>
   <v>       0.01009555       0.01202360       0.02494280 </v>
   <v>      -0.16931445       0.19019121       0.16850118 </v>
   <v>       0.00791493       0.03751173       0.03926952 </v>
   <v>       0.00791590      -0.03928002      -0.03751265 </v>
   <v>      -0.17618388      -0.03140341      -0.20800631 </v>
   <v>      -0.16931867      -0.16849151      -0.19018830 </v>
   <v>       0.01009823      -0.02494996      -0.01202269 </v>
   <v>      -0.17619693       0.20800894       0.03138770 </v>
   <v>      -0.01161750      -0.18448898       0.01080782 </v>
   <v>       1.42727436       0.00035740       1.42525295 </v>
   <v>      -0.02276636      -0.03675783      -0.04891932 </v>
   <v>      -0.02664791       0.08787476      -0.08787997 </v>
   <v>      -0.00414041      -0.19399793       0.19399428 </v>
   <v>      -0.01890671      -0.03084927       0.03084086 </v>
   <v>      -0.02276777       0.04891697       0.03675382 </v>
   <v>      -0.01161792      -0.01080462       0.18449082 </v>
   <v>       0.02945135      -0.04996107       0.04995197 </v>
   <v>       0.08206952       0.20362858      -0.20363972 </v>
   <v>       0.01400209       0.00699713      -0.01360569 </v>
   <v>       0.01401668       0.01359485      -0.00699097 </v>
   <v>      -0.02456486       0.01203482      -0.01089448 </v>
   <v>      -0.03894704       0.03757505      -0.00868084 </v>
   <v>       0.00777938      -0.01936129       0.02141476 </v>
   <v>      -0.03894378       0.00868425      -0.03757172 </v>
   <v>      -0.00557616      -0.02187734      -0.01284050 </v>
   <v>      -0.00557781       0.01283601       0.02187317 </v>
   <v>       0.00777386      -0.02140793       0.01936247 </v>
   <v>      -0.02456236       0.01090163      -0.01203566 </v>
   <v>      -0.04962711      -0.05003564      -0.03023191 </v>
   <v>       0.01555330      -0.06410251      -0.01513604 </v>
   <v>      -0.04962760       0.03023287       0.05002977 </v>
   <v>      -0.00348564      -0.00763059      -0.01339630 </v>
   <v>       0.00998880       0.00803702      -0.00282004 </v>
   <v>       0.00998069       0.00280762      -0.00803459 </v>
   <v>       0.01555202       0.01513058       0.06409813 </v>
   <v>      -0.00348975       0.01339726       0.00762819 </v>
   <v>      -0.00918954      -0.01023446       0.01016521 </v>
  </varray>
  <varray name="stress" >
   <v>      18.13579085      -0.01207801       0.01213361 </v>
   <v>      -0.01207808      18.13592702       0.01210472 </v>
   <v>       0.01213349       0.01210466      18.13595409 </v>
  </varray>
  <energy>
   <i name="e_fr_energy">   -861.24167526 </i>
   <i name="e_wo_entrp">   -861.23730255 </i>
   <i name="e_0_energy">     -0.01311815 </i>
  </energy>
  <time name="totalsc"> 6895.82 6896.50</time>
 </calculation>
 <calculation>
  <scstep>
   <time name="dav">  178.71  178.72</time>
   <time name="total">  187.32  187.34</time>
   <energy>
    <i name="alphaZ">   7085.54738553 </i>
    <i name="ewald"> -64780.29469129 </i>
    <i name="hartreedc">  -9652.89535400 </i>
    <i name="XCdc">    329.20091111 </i>
    <i name="pawpsdc">  57141.71671265 </i>
    <i name="pawaedc"> -58022.19844540 </i>
    <i name="eentropy">      0.01692488 </i>
    <i name="bandstr">   3800.61269032 </i>
    <i name="atom">  63236.02203821 </i>
    <i name="e_fr_energy">   -862.27182799 </i>
    <i name="e_wo_entrp">   -862.28875287 </i>
    <i name="e_0_energy">   -862.27746962 </i>
   </energy>
  </scstep>
  <scstep>
   <time name="diag">   23.33   23.33</time>
   <time name="diis">  120.06  120.07</time>
   <time name="orth">    5.17    5.17</time>
   <time name="total">  157.14  157.16</time>
   <energy>
    <i name="e_fr_energy">   -911.76720728 </i>
    <i name="e_wo_entrp">   -911.74384243 </i>
    <i name="e_0_energy">   -911.75941900 </i>
   </energy>
  </scstep>
  <scstep>
   <time name="diag">   23.35   23.35</time>
   <time name="diis">  102.03  102.03</time>
   <time name="orth">    5.17    5.17</time>
   <time name="total">  139.13  139.14</time>
   <energy>
    <i name="e_fr_energy">   -865.97760461 </i>
    <i name="e_wo_entrp">   -865.96938449 </i>
    <i name="e_0_energy">   -865.97486457 </i>
   </energy>
  </scstep>
  <scstep>
   <time name="diag">   23.34   23.35</time>
   <time name="diis">  109.09  109.10</time>
   <time name="orth">    5.17    5.17</time>
   <time name="total">  146.19  146.21</time>
   <energy>
    <i name="e_fr_energy">   -862.99487593 </i>
    <i name="e_wo_entrp">   -862.98084299 </i>
    <i name="e_0_energy">   -862.99019828 </i>
   </energy>
  </scstep>
  <scstep>
   <time name="diag">   23.32   23.33</time>
   <time name="diis">  142.99  143.00</time>
   <time name="orth">    5.17    5.17</time>
   <time name="total">  180.06  180.08</time>
   <energy>
    <i name="e_fr_energy">   -862.91322869 </i>
    <i name="e_wo_entrp">   -862.90432148 </i>
    <i name="e_0_energy">   -862.91025962 </i>
   </energy>
  </scstep>
  <scstep>
   <time name="diag">   23.33   23.33</time>
   <time name="diis">  130.33  130.34</time>
   <time name="orth">    5.17    5.17</time>
   <time name="total">  167.42  167.44</time>
   <energy>
    <i name="e_fr_energy">   -862.82760098 </i>
    <i name="e_wo_entrp">   -862.83185089 </i>
    <i name="e_0_energy">   -862.82901762 </i>
   </energy>
  </scstep>
  <scstep>
   <time name="diag">   23.35   23.35</time>
   <time name="diis">  144.55  144.56</time>
   <time name="orth">    5.17    5.17</time>
   <time name="total">  181.65  181.67</time>
   <energy>
    <i name="e_fr_energy">   -862.89273236 </i>
    <i name="e_wo_entrp">   -862.89943053 </i>
    <i name="e_0_energy">   -862.89496508 </i>
   </energy>
  </scstep>
  <scstep>
   <time name="diag">   23.33   23.33</time>
   <time name="diis">  103.26  103.27</time>
   <time name="orth">    5.17    5.17</time>
   <time name="total">  140.34  140.35</time>
   <energy>
    <i name="e_fr_energy">   -862.68727951 </i>
    <i name="e_wo_entrp">   -862.68405790 </i>
    <i name="e_0_energy">   -862.68620564 </i>
   </energy>
  </scstep>
  <scstep>
   <time name="diag">   23.33   23.33</time>
   <time name="diis">  112.77  112.78</time>
   <time name="orth">    5.17    5.17</time>
   <time name="total">  149.85  149.86</time>
   <energy>
    <i name="e_fr_energy">   -862.69435976 </i>
    <i name="e_wo_entrp">   -862.69142267 </i>
    <i name="e_0_energy">   -862.69338073 </i>
   </energy>
  </scstep>
  <scstep>
   <time name="diag">   23.34   23.34</time>
   <time name="diis">  133.14  133.15</time>
   <time name="orth">    5.17    5.17</time>
   <time name="total">  170.24  170.26</time>
   <energy>
    <i name="e_fr_energy">   -862.74713525 </i>
    <i name="e_wo_entrp">   -862.73957405 </i>
    <i name="e_0_energy">   -862.74461485 </i>
   </energy>
  </scstep>
  <scstep>
   <time name="diag">   23.38   23.38</time>
   <time name="diis">  103.31  103.32</time>
   <time name="orth">    5.17    5.17</time>
   <time name="total">  140.47  140.48</time>
   <energy>
    <i name="e_fr_energy">   -862.69463019 </i>
    <i name="e_wo_entrp">   -862.68699712 </i>
    <i name="e_0_energy">   -862.69208584 </i>
   </energy>
  </scstep>
  <scstep>
   <time name="diag">   23.38   23.38</time>
   <time name="diis">  136.24  136.25</time>
   <time name="orth">    5.16    5.16</time>
   <time name="total">  173.35  173.36</time>
   <energy>
    <i name="e_fr_energy">   -862.68372808 </i>
    <i name="e_wo_entrp">   -862.67779696 </i>
    <i name="e_0_energy">   -862.68175104 </i>
   </energy>
  </scstep>
  <scstep>
   <time name="diag">   23.37   23.38</time>
   <time name="diis">  105.06  105.06</time>
   <time name="orth">    5.16    5.16</time>
   <time name="total">  142.16  142.17</time>
   <energy>
    <i name="e_fr_energy">   -862.66049964 </i>
    <i name="e_wo_entrp">   -862.65607611 </i>
    <i name="e_0_energy">   -862.65902513 </i>
   </energy>
  </scstep>
  <scstep>
   <time name="diag">   23.31   23.31</time>
   <time name="diis">  147.02  147.04</time>
   <time name="orth">    5.16    5.16</time>
   <time name="total">  184.08  184.10</time>
   <energy>
    <i name="e_fr_energy">   -862.66090249 </i>
    <i name="e_wo_entrp">   -862.65682291 </i>
    <i name="e_0_energy">   -862.65954263 </i>
   </energy>
  </scstep>
  <scstep>
   <time name="diag">   23.34   23.34</time>
   <time name="diis">  133.04  133.05</time>
   <time name="orth">    5.16    5.16</time>
   <time name="total">  170.09  170.11</time>
   <energy>
    <i name="e_fr_energy">   -862.65957143 </i>
    <i name="e_wo_entrp">   -862.65606786 </i>
    <i name="e_0_energy">   -862.65840357 </i>
   </energy>
  </scstep>
  <scstep>
   <time name="diag">   23.31   23.31</time>
   <time name="diis">  147.92  147.93</time>
   <time name="orth">    5.17    5.17</time>
   <time name="total">  184.95  184.97</time>
   <energy>
    <i name="e_fr_energy">   -862.65962609 </i>
    <i name="e_wo_entrp">   -862.65630053 </i>
    <i name="e_0_energy">   -862.65851757 </i>
   </energy>
  </scstep>
  <scstep>
   <time name="diag">   23.34   23.34</time>
   <time name="diis">  128.64  128.65</time>
   <time name="orth">    5.16    5.17</time>
   <time name="total">  165.72  165.73</time>
   <energy>
    <i name="e_fr_energy">   -862.65976909 </i>
    <i name="e_wo_entrp">   -862.65655303 </i>
    <i name="e_0_energy">   -862.65869707 </i>
   </energy>
  </scstep>
  <scstep>
   <time name="diag">   23.34   23.34</time>
   <time name="diis">  108.06  108.07</time>
   <time name="orth">    5.16    5.16</time>
   <time name="total">  145.12  145.14</time>
   <energy>
    <i name="e_fr_energy">   -862.65957080 </i>
    <i name="e_wo_entrp">   -862.65626641 </i>
    <i name="e_0_energy">   -862.65846934 </i>
   </energy>
  </scstep>
  <scstep>
   <time name="diag">   23.34   23.34</time>
   <time name="diis">  128.42  128.43</time>
   <time name="orth">    5.17    5.17</time>
   <time name="total">  165.49  165.51</time>
   <energy>
    <i name="e_fr_energy">   -862.65955208 </i>
    <i name="e_wo_entrp">   -862.65619069 </i>
    <i name="e_0_energy">   -862.65843162 </i>
   </energy>
  </scstep>
  <scstep>
   <time name="diag">   23.34   23.35</time>
   <time name="diis">  111.43  111.44</time>
   <time name="orth">    5.16    5.17</time>
   <time name="total">  148.52  148.54</time>
   <energy>
    <i name="e_fr_energy">   -862.65940563 </i>
    <i name="e_wo_entrp">   -862.65588399 </i>
    <i name="e_0_energy">   -862.65823175 </i>
   </energy>
  </scstep>
  <scstep>
   <time name="diag">   23.34   23.35</time>
   <time name="diis">  142.52  142.53</time>
   <time name="orth">    5.16    5.17</time>
   <time name="total">  179.61  179.62</time>
   <energy>
    <i name="e_fr_energy">   -862.65939560 </i>
    <i name="e_wo_entrp">   -862.65583018 </i>
    <i name="e_0_energy">   -862.65820713 </i>
   </energy>
  </scstep>
  <scstep>
   <time name="diag">   23.36   23.37</time>
   <time name="diis">  132.69  132.70</time>
   <time name="orth">    5.17    5.17</time>
   <time name="total">  169.84  169.86</time>
   <energy>
    <i name="e_fr_energy">   -862.65939779 </i>
    <i name="e_wo_entrp">   -862.65582132 </i>
    <i name="e_0_energy">   -862.65820563 </i>
   </energy>
  </scstep>
  <scstep>
   <time name="diag">   23.37   23.37</time>
   <time name="diis">  105.11  105.11</time>
   <time name="orth">    5.17    5.17</time>
   <time name="total">  142.23  142.25</time>
   <energy>
    <i name="e_fr_energy">   -862.65939465 </i>
    <i name="e_wo_entrp">   -862.65581589 </i>
    <i name="e_0_energy">   -862.65820173 </i>
   </energy>
  </scstep>
  <scstep>
   <time name="diag">   23.38   23.38</time>
   <time name="diis">   91.92   91.93</time>
   <time name="orth">    5.16    5.17</time>
   <time name="total">  120.70  120.71</time>
   <energy>
    <i name="alphaZ">   7085.54738553 </i>
    <i name="ewald"> -64780.29469129 </i>
    <i name="hartreedc">  -9652.03633082 </i>
    <i name="XCdc">    328.87640133 </i>
    <i name="pawpsdc">  57165.88642085 </i>
    <i name="pawaedc"> -58046.88842878 </i>
    <i name="eentropy">     -0.00357793 </i>
    <i name="bandstr">   3800.23138821 </i>
    <i name="atom">  63236.02203821 </i>
    <i name="e_fr_energy">   -862.65939468 </i>
    <i name="e_wo_entrp">   -862.65581674 </i>
    <i name="e_0_energy">   -862.65820203 </i>
   </energy>
  </scstep>
  <structure>
   <crystal>
    <varray name="basis" >
     <v>      10.33484705       0.00000000       0.00000000 </v>
     <v>       0.00000000      10.33484705       0.00000000 </v>
     <v>       0.00000000       0.00000000      10.33484705 </v>
    </varray>
    <i name="volume">   1103.85533447 </i>
    <varray name="rec_basis" >
     <v>       0.09676002       0.00000000       0.00000000 </v>
     <v>       0.00000000       0.09676002       0.00000000 </v>
     <v>       0.00000000       0.00000000       0.09676002 </v>
    </varray>
   </crystal>
   <varray name="positions" >
    <v>      -0.00029756       0.00007058      -0.00007059 </v>
    <v>      -0.00090381       0.16576331       0.16668451 </v>
    <v>      -0.00010022       0.33339097       0.00002795 </v>
    <v>      -0.00014470       0.50097104       0.16748760 </v>
    <v>      -0.00008873       0.66656909      -0.00003432 </v>
    <v>      -0.00085957       0.83328058       0.16671940 </v>
    <v>      -0.00008871       0.00003431       0.33343096 </v>
    <v>       0.00091677       0.16758372       0.50013806 </v>
    <v>       0.00005127       0.33319437       0.33317088 </v>
    <v>      -0.00025754       0.49988529       0.50011470 </v>
    <v>       0.00006832       0.66677622       0.33322382 </v>
    <v>      -0.00014469       0.83251243       0.49902896 </v>
    <v>      -0.00010022      -0.00002795       0.66660905 </v>
    <v>       0.00014076       0.16680782       0.83319213 </v>
    <v>       0.00032166       0.33318191       0.66681809 </v>
    <v>       0.00091676       0.49986193       0.83241622 </v>
    <v>       0.00005127       0.66682917       0.66680564 </v>
    <v>      -0.00090383       0.83331548       0.83423665 </v>
    <v>       0.16672142      -0.00011646       0.16661811 </v>
    <v>       0.16672510       0.16656690       0.00002793 </v>
    <v>       0.16672142       0.83338189       0.00011646 </v>
    <v>       0.16002757       0.32669357       0.50015922 </v>
    <v>       0.16001233       0.50000170       0.32666968 </v>
    <v>       0.16001237       0.67333034       0.49999831 </v>
    <v>       0.16672509      -0.00002793       0.83343304 </v>
    <v>       0.16002757       0.49984079       0.67330643 </v>
    <v>       0.16652121       0.33318705       0.16675343 </v>
    <v>       0.16649363       0.66689730       0.16677154 </v>
    <v>       0.16652840       0.16671834       0.33317086 </v>
    <v>       0.16649362       0.83322846       0.33310274 </v>
    <v>       0.16651589       0.16698862       0.66681813 </v>
    <v>       0.16651589       0.33318188       0.83301132 </v>
    <v>       0.16652841       0.66682918       0.83328160 </v>
    <v>       0.16652121       0.83324657       0.66681296 </v>
    <v>       0.16662952       0.50006248       0.00001809 </v>
    <v>       0.16662949      -0.00001813       0.49993752 </v>
    <v>       0.33336551       0.00006352      -0.00006355 </v>
    <v>       0.33430379       0.16652253       0.16748763 </v>
    <v>       0.33422053       0.83254440       0.16745559 </v>
    <v>       0.33333493       0.32667894       0.32667036 </v>
    <v>       0.33344199       0.67318026       0.32681978 </v>
    <v>       0.33319493       0.16758375       0.83241620 </v>
    <v>       0.33317411       0.32669417       0.67330581 </v>
    <v>       0.33333492       0.67332973       0.67332107 </v>
    <v>       0.33430382       0.83251236       0.83347742 </v>
    <v>       0.33339536       0.33329547       0.00001810 </v>
    <v>       0.33428338       0.50095049       0.16628199 </v>
    <v>       0.33337037       0.66668197      -0.00004474 </v>
    <v>       0.33337035       0.00004471       0.33331807 </v>
    <v>       0.33321829       0.16640933       0.50011467 </v>
    <v>       0.33428336       0.83371805       0.49904951 </v>
    <v>       0.33339535      -0.00001813       0.66670454 </v>
    <v>       0.33321838       0.49988534       0.83359056 </v>
    <v>       0.50017660      -0.00018302       0.16662844 </v>
    <v>       0.49990201       0.16657845      -0.00003443 </v>
    <v>       0.50023009       0.33315946       0.16677160 </v>
    <v>       0.50001517       0.50003766      -0.00004472 </v>
    <v>       0.50041169       0.66707884       0.16678979 </v>
    <v>       0.50017660       0.83337152       0.00018294 </v>
    <v>       0.50001515       0.00004466       0.49996237 </v>
    <v>       0.50010910       0.16673547       0.33322380 </v>
    <v>       0.50666227       0.32667927       0.49999825 </v>
    <v>       0.50651290       0.50010890       0.32682013 </v>
    <v>       0.50651292       0.67317997       0.49989103 </v>
    <v>       0.50041168       0.83321025       0.33292116 </v>
    <v>       0.49990201       0.00003436       0.83342154 </v>
    <v>       0.50016207       0.16671843       0.66680571 </v>
    <v>       0.50016208       0.33319438       0.83328147 </v>
    <v>       0.50010913       0.66677612       0.83326443 </v>
    <v>       0.50023008       0.83322843       0.66684056 </v>
    <v>       0.66671609       0.33338719       0.00011643 </v>
    <v>       0.66587861       0.50088781       0.16745549 </v>
    <v>       0.66670591       0.66684407       0.00018331 </v>
    <v>       0.66670591      -0.00018336       0.33315596 </v>
    <v>       0.66584654       0.16652234       0.49902903 </v>
    <v>       0.66587859       0.83254453       0.49911221 </v>
    <v>       0.66671610      -0.00011647       0.66661284 </v>
    <v>       0.66584648       0.50097098       0.83347755 </v>
    <v>       0.66661473       0.16580775       0.16671938 </v>
    <v>       0.50666246       0.50000167       0.67331969 </v>
    <v>       0.66656269       0.33315948       0.33310271 </v>
    <v>       0.66654457       0.66707916       0.33292085 </v>
    <v>       0.66664964       0.16576336       0.83423659 </v>
    <v>       0.66658071       0.33318706       0.66681293 </v>
    <v>       0.66656268       0.66689731       0.66684053 </v>
    <v>       0.66661473       0.83328060       0.83419223 </v>
    <v>       0.66680644      -0.00023322       0.00023317 </v>
    <v>       0.66705206       0.50095053       0.49904942 </v>
    <v>       0.83339639       0.50003266      -0.00006351 </v>
    <v>       0.83339646       0.00006346       0.49996737 </v>
    <v>       0.83321637       0.33338724       0.16661808 </v>
    <v>       0.83314923       0.66684436       0.16662841 </v>
    <v>       0.83336735       0.16657856       0.33343103 </v>
    <v>       0.83314925       0.83337157       0.33315568 </v>
    <v>       0.83330501       0.16656681       0.66660902 </v>
    <v>       0.83330500       0.33339098       0.83343314 </v>
    <v>       0.83336733       0.66656903       0.83342142 </v>
    <v>       0.83321638       0.83338193       0.66661278 </v>
    <v>       0.83309938      -0.00023356       0.16652781 </v>
    <v>       0.83340364       0.16636971      -0.00007065 </v>
    <v>       0.83309938       0.83347216       0.00023354 </v>
    <v>       0.83331477       0.33329545       0.49993747 </v>
    <v>       0.83337767       0.50003752       0.33331790 </v>
    <v>       0.83337763       0.66668207       0.49996249 </v>
    <v>       0.83340363       0.00007063       0.83363025 </v>
    <v>       0.83331475       0.50006254       0.66670457 </v>
    <v>       0.33328817       0.49995223       0.50004745 </v>
   </varray>
  </structure>
  <varray name="forces" >
   <v>       0.00843381       0.01256047      -0.01271651 </v>
   <v>      -0.11218600      -0.11235254      -0.01407806 </v>
   <v>      -0.11511602      -0.00675945       0.01423061 </v>
   <v>      -0.19980067       0.10268406      -0.09389414 </v>
   <v>      -0.10272827      -0.00382787      -0.00504436 </v>
[...]
       <r>    -6.1251    -0.0000     2.0000 </r>
       <r>    -6.0625    -0.0000     2.0000 </r>
       <r>    -6.0000    -0.0000     2.0000 </r>
       <r>    -5.9374    -0.0000     2.0000 </r>
       <r>    -5.8749    -0.0000     2.0000 </r>
       <r>    -5.8123    -0.0000     2.0000 </r>
       <r>    -5.7498    -0.0000     2.0000 </r>
       <r>    -5.6872    -0.0000     2.0000 </r>
       <r>    -5.6246     0.0000     2.0000 </r>
       <r>    -5.5621     0.0000     2.0000 </r>
       <r>    -5.4995     0.0000     2.0000 </r>
       <r>    -5.4370     0.0000     2.0000 </r>
       <r>    -5.3744     0.0000     2.0000 </r>
       <r>    -5.3119     0.0000     2.0000 </r>
       <r>    -5.2493     0.0000     2.0000 </r>
       <r>    -5.1868     0.0000     2.0000 </r>
       <r>    -5.1242     0.0000     2.0000 </r>
       <r>    -5.0617     0.0000     2.0000 </r>
       <r>    -4.9991     0.0000     2.0000 </r>
       <r>    -4.9366     0.0000     2.0000 </r>
       <r>    -4.8740     0.0000     2.0000 </r>
       <r>    -4.8114     0.0000     2.0000 </r>
       <r>    -4.7489     0.0000     2.0000 </r>
       <r>    -4.6863     0.0000     2.0000 </r>
       <r>    -4.6238     0.0000     2.0000 </r>
       <r>    -4.5612     0.0000     2.0000 </r>
       <r>    -4.4987     0.0000     2.0000 </r>
       <r>    -4.4361     0.0000     2.0000 </r>
       <r>    -4.3736     0.0000     2.0000 </r>
       <r>    -4.3110     0.0000     2.0000 </r>
       <r>    -4.2485     0.0000     2.0000 </r>
       <r>    -4.1859     0.0000     2.0000 </r>
       <r>    -4.1233     0.0000     2.0000 </r>
       <r>    -4.0608     0.0000     2.0000 </r>
       <r>    -3.9982     0.0000     2.0000 </r>
       <r>    -3.9357     0.0000     2.0000 </r>
       <r>    -3.8731     0.0000     2.0000 </r>
       <r>    -3.8106     0.0000     2.0000 </r>
       <r>    -3.7480     0.0000     2.0000 </r>
       <r>    -3.6855     0.0000     2.0000 </r>
       <r>    -3.6229     0.0000     2.0000 </r>
       <r>    -3.5604     0.0000     2.0000 </r>
       <r>    -3.4978     0.0000     2.0000 </r>
       <r>    -3.4353     0.0000     2.0000 </r>
       <r>    -3.3727     0.0000     2.0000 </r>
       <r>    -3.3101    -0.0000     2.0000 </r>
       <r>    -3.2476    -0.0000     2.0000 </r>
       <r>    -3.1850    -0.0000     2.0000 </r>
       <r>    -3.1225    -0.0000     2.0000 </r>
       <r>    -3.0599    -0.0000     2.0000 </r>
       <r>    -2.9974    -0.0000     2.0000 </r>
       <r>    -2.9348    -0.0000     2.0000 </r>
       <r>    -2.8723    -0.0000     2.0000 </r>
       <r>    -2.8097    -0.0000     2.0000 </r>
       <r>    -2.7472    -0.0000     2.0000 </r>
       <r>    -2.6846    -0.0000     2.0000 </r>
       <r>    -2.6221    -0.0000     2.0000 </r>
       <r>    -2.5595    -0.0000     2.0000 </r>
       <r>    -2.4969    -0.0000     2.0000 </r>
       <r>    -2.4344    -0.0000     2.0000 </r>
       <r>    -2.3718    -0.0000     2.0000 </r>
       <r>    -2.3093    -0.0001     2.0000 </r>
       <r>    -2.2467    -0.0007     1.9999 </r>
       <r>    -2.1842    -0.0031     1.9998 </r>
       <r>    -2.1216    -0.0115     1.9990 </r>
       <r>    -2.0591    -0.0334     1.9969 </r>
       <r>    -1.9965    -0.0749     1.9923 </r>
       <r>    -1.9340    -0.1216     1.9847 </r>
       <r>    -1.8714    -0.1100     1.9778 </r>
       <r>    -1.8089     0.0829     1.9830 </r>
       <r>    -1.7463     0.5973     2.0203 </r>
       <r>    -1.6837     1.4917     2.1136 </r>
       <r>    -1.6212     2.6432     2.2790 </r>
       <r>    -1.5586     3.7442     2.5132 </r>
       <r>    -1.4961     4.4712     2.7929 </r>
       <r>    -1.4335     4.7552     3.0903 </r>
       <r>    -1.3710     4.9254     3.3984 </r>
       <r>    -1.3084     5.4809     3.7413 </r>
       <r>    -1.2459     6.5322     4.1499 </r>
       <r>    -1.1833     7.4764     4.6176 </r>
       <r>    -1.1208     7.5319     5.0887 </r>
       <r>    -1.0582     6.7321     5.5099 </r>
       <r>    -0.9957     6.1184     5.8926 </r>
       <r>    -0.9331     6.7458     6.3146 </r>
       <r>    -0.8705     8.6250     6.8541 </r>
       <r>    -0.8080    10.7442     7.5262 </r>
       <r>    -0.7454    12.0409     8.2794 </r>
       <r>    -0.6829    12.2429     9.0452 </r>
       <r>    -0.6203    11.7513     9.7803 </r>
       <r>    -0.5578    10.9507    10.4653 </r>
       <r>    -0.4952    10.0719    11.0954 </r>
       <r>    -0.4327     9.7059    11.7025 </r>
       <r>    -0.3701    10.6303    12.3675 </r>
       <r>    -0.3076    12.5538    13.1528 </r>
       <r>    -0.2450    13.7166    14.0108 </r>
       <r>    -0.1825    12.6713    14.8034 </r>
       <r>    -0.1199    10.1420    15.4379 </r>
       <r>    -0.0573     8.2894    15.9564 </r>
       <r>     0.0052     8.4177    16.4830 </r>
       <r>     0.0678    10.1480    17.1178 </r>
       <r>     0.1303    12.4626    17.8973 </r>
       <r>     0.1929    14.6159    18.8116 </r>
       <r>     0.2554    16.1114    19.8195 </r>
       <r>     0.3180    16.6199    20.8591 </r>
       <r>     0.3805    16.1392    21.8687 </r>
       <r>     0.4431    14.9455    22.8036 </r>
       <r>     0.5056    13.4432    23.6445 </r>
       <r>     0.5682    12.1582    24.4050 </r>
       <r>     0.6308    11.5799    25.1294 </r>
       <r>     0.6933    11.8429    25.8702 </r>
       <r>     0.7559    12.7418    26.6673 </r>
       <r>     0.8184    14.0128    27.5438 </r>
       <r>     0.8810    15.4004    28.5072 </r>
       <r>     0.9435    16.6447    29.5484 </r>
       <r>     1.0061    17.7241    30.6571 </r>
       <r>     1.0686    18.9336    31.8415 </r>
       <r>     1.1312    20.4057    33.1179 </r>
       <r>     1.1937    21.7074    34.4758 </r>
       <r>     1.2563    22.1851    35.8636 </r>
       <r>     1.3188    21.6132    37.2156 </r>
       <r>     1.3814    20.4291    38.4935 </r>
       <r>     1.4440    19.5753    39.7180 </r>
       <r>     1.5065    20.1372    40.9777 </r>
       <r>     1.5691    22.6426    42.3940 </r>
       <r>     1.6316    26.3312    44.0412 </r>
       <r>     1.6942    29.4115    45.8810 </r>
       <r>     1.7567    30.6032    47.7953 </r>
       <r>     1.8193    30.6125    49.7102 </r>
       <r>     1.8818    32.0129    51.7128 </r>
       <r>     1.9444    37.5894    54.0641 </r>
       <r>     2.0069    48.4514    57.0950 </r>
       <r>     2.0695    63.2174    61.0495 </r>
       <r>     2.1320    78.7307    65.9744 </r>
       <r>     2.1946    91.6224    71.7057 </r>
       <r>     2.2572    99.7105    77.9430 </r>
       <r>     2.3197   102.8083    84.3741 </r>
       <r>     2.3823   102.6462    90.7950 </r>
       <r>     2.4448   101.7012    97.1568 </r>
       <r>     2.5074   101.7476   103.5215 </r>
       <r>     2.5699   103.3431   109.9860 </r>
       <r>     2.6325   106.3956   116.6415 </r>
       <r>     2.6950   110.9998   123.5850 </r>
       <r>     2.7576   117.5816   130.9402 </r>
       <r>     2.8201   125.9774   138.8205 </r>
       <r>     2.8827   134.6111   147.2410 </r>
       <r>     2.9452   141.4870   156.0916 </r>
       <r>     3.0078   146.2599   165.2407 </r>
       <r>     3.0704   150.4721   174.6533 </r>
       <r>     3.1329   155.3345   184.3701 </r>
       <r>     3.1955   160.0732   194.3833 </r>
       <r>     3.2580   162.9695   204.5777 </r>
       <r>     3.3206   163.2707   214.7909 </r>
       <r>     3.3831   161.4336   224.8892 </r>
       <r>     3.4457   158.2186   234.7864 </r>
       <r>     3.5082   154.5364   244.4533 </r>
       <r>     3.5708   151.7459   253.9456 </r>
       <r>     3.6333   150.7956   263.3785 </r>
       <r>     3.6959   150.7864   272.8107 </r>
       <r>     3.7584   149.3070   282.1505 </r>
       <r>     3.8210   144.8086   291.2088 </r>
       <r>     3.8836   138.3903   299.8657 </r>
       <r>     3.9461   132.9124   308.1799 </r>
       <r>     4.0087   130.3607   316.3345 </r>
       <r>     4.0712   130.1283   324.4745 </r>
       <r>     4.1338   129.9549   332.6037 </r>
       <r>     4.1963   128.6843   340.6534 </r>
       <r>     4.2589   127.9104   348.6547 </r>
       <r>     4.3214   130.4600   356.8155 </r>
       <r>     4.3840   137.3538   365.4075 </r>
       <r>     4.4465   146.9453   374.5995 </r>
       <r>     4.5091   157.0113   384.4212 </r>
       <r>     4.5716   166.4721   394.8347 </r>
       <r>     4.6342   174.4193   405.7453 </r>
       <r>     4.6968   178.8489   416.9330 </r>
       <r>     4.7593   178.2660   428.0842 </r>
       <r>     4.8219   174.6048   439.0064 </r>
       <r>     4.8844   173.1150   449.8355 </r>
       <r>     4.9470   178.3761   460.9936 </r>
       <r>     5.0095   190.3623   472.9015 </r>
       <r>     5.0721   204.4823   485.6927 </r>
       <r>     5.1346   215.4016   499.1669 </r>
       <r>     5.1972   221.0096   512.9919 </r>
       <r>     5.2597   223.2350   526.9561 </r>
       <r>     5.3223   225.6994   541.0745 </r>
       <r>     5.3848   230.8655   555.5161 </r>
       <r>     5.4474   238.7755   570.4524 </r>
       <r>     5.5100   247.1240   585.9110 </r>
       <r>     5.5725   251.7717   601.6603 </r>
       <r>     5.6351   248.2403   617.1887 </r>
       <r>     5.6976   234.6962   631.8699 </r>
       <r>     5.7602   214.1979   645.2688 </r>
       <r>     5.8227   192.9951   657.3414 </r>
       <r>     5.8853   175.7790   668.3371 </r>
       <r>     5.9478   163.0527   678.5367 </r>
       <r>     6.0104   153.3394   688.1286 </r>
       <r>     6.0729   146.6606   697.3028 </r>
       <r>     6.1355   144.6774   706.3530 </r>
       <r>     6.1981   148.0990   715.6172 </r>
       <r>     6.2606   155.3014   725.3319 </r>
       <r>     6.3232   163.6257   735.5673 </r>
       <r>     6.3857   171.4400   746.2915 </r>
       <r>     6.4483   178.9564   757.4860 </r>
       <r>     6.5108   187.2006   769.1961 </r>
       <r>     6.5734   195.8533   781.4475 </r>
       <r>     6.6359   202.3550   794.1056 </r>
       <r>     6.6985   204.1620   806.8767 </r>
       <r>     6.7610   201.7480   819.4969 </r>
       <r>     6.8236   197.8967   831.8761 </r>
       <r>     6.8861   193.8853   844.0044 </r>
       <r>     6.9487   188.2640   855.7810 </r>
       <r>     7.0113   180.3060   867.0599 </r>
       <r>     7.0738   172.8969   877.8753 </r>
       <r>     7.1364   170.1385   888.5181 </r>
       <r>     7.1989   172.6719   899.3194 </r>
       <r>     7.2615   177.0904   910.3971 </r>
       <r>     7.3240   180.1085   921.6636 </r>
       <r>     7.3866   182.0262   933.0501 </r>
       <r>     7.4491   185.8961   944.6786 </r>
       <r>     7.5117   194.4242   956.8406 </r>
       <r>     7.5742   207.3490   969.8111 </r>
       <r>     7.6368   219.3793   983.5341 </r>
       <r>     7.6993   219.8025   997.2836 </r>
       <r>     7.7619   197.4090  1009.6324 </r>
       <r>     7.8245   150.1144  1019.0226 </r>
       <r>     7.8870    90.2263  1024.6666 </r>
       <r>     7.9496    37.4387  1027.0086 </r>
       <r>     8.0121     5.0298  1027.3232 </r>
       <r>     8.0747    -7.0528  1026.8820 </r>
       <r>     8.1372    -7.3581  1026.4217 </r>
       <r>     8.1998    -4.2458  1026.1561 </r>
       <r>     8.2623    -1.7599  1026.0460 </r>
       <r>     8.3249    -0.5609  1026.0110 </r>
       <r>     8.3874    -0.1413  1026.0021 </r>
       <r>     8.4500    -0.0285  1026.0003 </r>
       <r>     8.5125    -0.0047  1026.0000 </r>
       <r>     8.5751    -0.0006  1026.0000 </r>
       <r>     8.6377    -0.0001  1026.0000 </r>
       <r>     8.7002    -0.0000  1026.0000 </r>
       <r>     8.7628    -0.0000  1026.0000 </r>
       <r>     8.8253    -0.0000  1026.0000 </r>
       <r>     8.8879    -0.0000  1026.0000 </r>
       <r>     8.9504    -0.0000  1026.0000 </r>
       <r>     9.0130    -0.0000  1026.0000 </r>
       <r>     9.0755    -0.0000  1026.0000 </r>
       <r>     9.1381     0.0000  1026.0000 </r>
       <r>     9.2006     0.0000  1026.0000 </r>
       <r>     9.2632     0.0000  1026.0000 </r>
       <r>     9.3257     0.0000  1026.0000 </r>
       <r>     9.3883     0.0000  1026.0000 </r>
       <r>     9.4509     0.0000  1026.0000 </r>
       <r>     9.5134     0.0000  1026.0000 </r>
       <r>     9.5760     0.0000  1026.0000 </r>
       <r>     9.6385     0.0000  1026.0000 </r>
       <r>     9.7011     0.0000  1026.0000 </r>
       <r>     9.7636     0.0000  1026.0000 </r>
       <r>     9.8262     0.0000  1026.0000 </r>
      </set>
     </set>
    </array>
   </total>
  </dos>
 </calculation>
 <structure name="finalpos" >
  <crystal>
   <varray name="basis" >
    <v>      10.33484705       0.00000000       0.00000000 </v>
    <v>       0.00000000      10.33484705       0.00000000 </v>
    <v>       0.00000000       0.00000000      10.33484705 </v>
   </varray>
   <i name="volume">   1103.85533447 </i>
   <varray name="rec_basis" >
    <v>       0.09676002       0.00000000       0.00000000 </v>
    <v>       0.00000000       0.09676002       0.00000000 </v>
    <v>       0.00000000       0.00000000       0.09676002 </v>
   </varray>
  </crystal>
  <varray name="positions" >
   <v>      -0.00034108       0.00019912      -0.00019855 </v>
   <v>      -0.00230427       0.16436303       0.16643783 </v>
   <v>      -0.00159364       0.33290369       0.00034419 </v>
   <v>      -0.00255626       0.50218988       0.16634448 </v>
   <v>      -0.00114859       0.66693674      -0.00013493 </v>
   <v>      -0.00183075       0.83354148       0.16645869 </v>
   <v>      -0.00114890       0.00013554       0.33306232 </v>
   <v>      -0.00038826       0.16627885       0.50040797 </v>
   <v>      -0.00091534       0.33263573       0.33219890 </v>
   <v>       0.00051305       0.49976683       0.50023256 </v>
   <v>      -0.00057119       0.66724711       0.33275230 </v>
   <v>      -0.00255622       0.83365573       0.49780918 </v>
   <v>      -0.00159361      -0.00034364       0.66709616 </v>
   <v>      -0.00006692       0.16660032       0.83340025 </v>
   <v>      -0.00071739       0.33265669       0.66734304 </v>
   <v>      -0.00038805       0.49959114       0.83372145 </v>
   <v>      -0.00091525       0.66780045       0.66736412 </v>
   <v>      -0.00230399       0.83356208       0.83563730 </v>
   <v>       0.16626540      -0.00059046       0.16542198 </v>
   <v>       0.16623744       0.16507360       0.00034415 </v>
   <v>       0.16626548       0.83457809       0.00059112 </v>
   <v>       0.15791897       0.32458554       0.49988162 </v>
   <v>       0.15791642       0.50008357       0.32404374 </v>
   <v>       0.15791625       0.67595592       0.49991585 </v>
   <v>       0.16623752      -0.00034365       0.83492683 </v>
   <v>       0.15791908       0.50011779       0.67541450 </v>
   <v>       0.16591732       0.33258358       0.16572472 </v>
   <v>       0.16597104       0.66789651       0.16589536 </v>
   <v>       0.16596943       0.16575186       0.33219891 </v>
   <v>       0.16597100       0.83410484       0.33210292 </v>
   <v>       0.16599033       0.16594971       0.66734309 </v>
   <v>       0.16599044       0.33265677       0.83405069 </v>
   <v>       0.16596950       0.66780042       0.83424868 </v>
   <v>       0.16591742       0.83427535       0.66741624 </v>
   <v>       0.16641535       0.50027694       0.00034532 </v>
   <v>       0.16641536      -0.00034464       0.49972217 </v>
   <v>       0.33317769       0.00023540      -0.00023474 </v>
   <v>       0.33552428       0.16411090       0.16634444 </v>
   <v>       0.33516585       0.83387576       0.16612462 </v>
   <v>       0.33341773       0.32458327       0.32404408 </v>
   <v>       0.33383865       0.67550179       0.32449773 </v>
   <v>       0.33292547       0.16627891       0.83372156 </v>
   <v>       0.33345194       0.32458607       0.67541407 </v>
   <v>       0.33341775       0.67595544       0.67541698 </v>
   <v>       0.33552428       0.83365565       0.83588963 </v>
   <v>       0.33361124       0.33308166       0.00034533 </v>
   <v>       0.33524102       0.50190680       0.16674273 </v>
   <v>       0.33316442       0.66665783      -0.00008809 </v>
   <v>       0.33316451       0.00008881       0.33334167 </v>
   <v>       0.33310074       0.16718196       0.50023282 </v>
   <v>       0.33524099       0.83325758       0.49809261 </v>
   <v>       0.33361124      -0.00034466       0.66691812 </v>
   <v>       0.33310099       0.49976683       0.83282020 </v>
   <v>       0.50178513      -0.00146410       0.16540926 </v>
   <v>       0.50027067       0.16551847      -0.00013492 </v>
   <v>       0.50123030       0.33263734       0.16589531 </v>
   <v>       0.49999170       0.49983013      -0.00008810 </v>
   <v>       0.50142536       0.66809148       0.16515412 </v>
   <v>       0.50178516       0.83459106       0.00146507 </v>
   <v>       0.49999166       0.00008885       0.50016900 </v>
   <v>       0.50058098       0.16609586       0.33275232 </v>
   <v>       0.50928891       0.32458354       0.49991586 </v>
   <v>       0.50883509       0.50050446       0.32449829 </v>
   <v>       0.50883537       0.67550154       0.49949501 </v>
   <v>       0.50142545       0.83484627       0.33190806 </v>
   <v>       0.50027053       0.00013552       0.83448191 </v>
   <v>       0.50113431       0.16575190       0.66736407 </v>
   <v>       0.50113427       0.33263582       0.83424870 </v>
   <v>       0.50058096       0.66724714       0.83390471 </v>
   <v>       0.50123030       0.83410483       0.66736254 </v>
   <v>       0.66791098       0.33293169       0.00059107 </v>
   <v>       0.66720860       0.50183137       0.16612448 </v>
   <v>       0.66792391       0.66845124       0.00146500 </v>
   <v>       0.66792402      -0.00146415       0.33154812 </v>
   <v>       0.66698865       0.16411082       0.49780915 </v>
   <v>       0.66720851       0.83387584       0.49816770 </v>
   <v>       0.66791097      -0.00059044       0.66706822 </v>
   <v>       0.66698851       0.50218986       0.83588975 </v>
   <v>       0.66687436       0.16483644       0.16645864 </v>
   <v>       0.50928875       0.50008356       0.67541651 </v>
   <v>       0.66743773       0.33263726       0.33210292 </v>
   <v>       0.66817912       0.66809150       0.33190812 </v>
   <v>       0.66689498       0.16436319       0.83563738 </v>
   <v>       0.66760816       0.33258362       0.66741624 </v>
   <v>       0.66743764       0.66789654       0.66736257 </v>
   <v>       0.66687429       0.83354149       0.83516418 </v>
   <v>       0.66691264      -0.00140819       0.00140880 </v>
   <v>       0.66659033       0.50190677       0.49809257 </v>
   <v>       0.83356792       0.49984319      -0.00023475 </v>
   <v>       0.83356783       0.00023541       0.50015583 </v>
   <v>       0.83274212       0.33293161       0.16542195 </v>
   <v>       0.83186844       0.66845116       0.16540921 </v>
   <v>       0.83346802       0.16551819       0.33306230 </v>
   <v>       0.83186833       0.83459120       0.33154817 </v>
   <v>       0.83298889       0.16507357       0.66709619 </v>
   <v>       0.83298886       0.33290370       0.83492688 </v>
   <v>       0.83346806       0.66693666       0.83448191 </v>
   <v>       0.83274206       0.83457816       0.66706825 </v>
   <v>       0.83192342      -0.00140895       0.16641841 </v>
   <v>       0.83353153       0.16632610      -0.00019854 </v>
   <v>       0.83192416       0.83357976       0.00140881 </v>
   <v>       0.83298780       0.33308150       0.49972213 </v>
   <v>       0.83342127       0.49983014       0.33334151 </v>
   <v>       0.83342127       0.66665792       0.50016903 </v>
   <v>       0.83353152       0.00019911       0.83367463 </v>
   <v>       0.83298782       0.50027693       0.66691827 </v>
   <v>       0.33331755       0.49998263       0.50001701 </v>
  </varray>
 </structure>
</modeling>
