Opt                                     
           1
    10.334847    0.000000    0.000000
     0.000000   10.334847    0.000000
     0.000000    0.000000   10.334847
   Fe   Te
 106   1
Direct configuration=     1
   0.00000000  0.00000000  0.00000000
   0.00000000  0.16666893  0.16666893
   0.00000000  0.33333106  0.00000000
   0.00000000  0.50000000  0.16666894
   0.00000000  0.66666897  0.00000000
   0.00000000  0.83333104  0.16666893
   0.00000000  0.00000000  0.33333106
   0.00000000  0.16666894  0.50000000
   0.00000000  0.33333107  0.33333107
   0.00000000  0.50000000  0.50000000
   0.00000000  0.66666896  0.33333107
   0.00000000  0.83333103  0.50000000
   0.00000000  0.00000000  0.66666897
   0.00000000  0.16666893  0.83333104
   0.00000000  0.33333107  0.66666896
   0.00000000  0.50000000  0.83333103
   0.00000000  0.66666896  0.66666896
   0.00000000  0.83333104  0.83333104
   0.16666893  0.00000000  0.16666893
   0.16666893  0.16666893  0.00000000
   0.16666893  0.83333104  0.00000000
   0.16666893  0.33333107  0.50000000
   0.16666893  0.50000000  0.33333107
   0.16666893  0.66666896  0.50000000
   0.16666893  0.00000000  0.83333104
   0.16666893  0.50000000  0.66666896
   0.16666893  0.33333107  0.16666893
   0.16666893  0.66666896  0.16666893
   0.16666893  0.16666893  0.33333107
   0.16666893  0.83333104  0.33333107
   0.16666893  0.16666893  0.66666896
   0.16666893  0.33333107  0.83333104
   0.16666893  0.66666896  0.83333104
   0.16666893  0.83333104  0.66666896
   0.16666894  0.50000000  0.00000000
   0.16666894  0.00000000  0.50000000
   0.33333106  0.00000000  0.00000000
   0.33333107  0.16666893  0.16666893
   0.33333107  0.83333104  0.16666893
   0.33333107  0.33333107  0.33333107
   0.33333107  0.66666896  0.33333107
   0.33333107  0.16666893  0.83333104
   0.33333107  0.33333107  0.66666896
   0.33333107  0.66666896  0.66666896
   0.33333107  0.83333104  0.83333104
   0.33333107  0.33333107  0.00000000
   0.33333107  0.50000000  0.16666893
   0.33333107  0.66666896  0.00000000
   0.33333107  0.00000000  0.33333107
   0.33333107  0.16666893  0.50000000
   0.33333107  0.83333104  0.50000000
   0.33333107  0.00000000  0.66666896
   0.33333107  0.50000000  0.83333104
   0.50000000  0.00000000  0.16666894
   0.50000000  0.16666894  0.00000000
   0.50000000  0.33333107  0.16666893
   0.50000000  0.50000000  0.00000000
   0.50000000  0.66666896  0.16666893
   0.50000000  0.83333103  0.00000000
   0.50000000  0.00000000  0.50000000
   0.50000000  0.16666893  0.33333107
   0.50000000  0.33333106  0.50000000
   0.50000000  0.50000000  0.33333106
   0.50000000  0.66666897  0.50000000
   0.50000000  0.83333104  0.33333107
   0.50000000  0.00000000  0.83333103
   0.50000000  0.16666893  0.66666896
   0.50000000  0.33333107  0.83333104
   0.50000000  0.66666896  0.83333104
   0.50000000  0.83333104  0.66666896
   0.66666896  0.33333107  0.00000000
   0.66666896  0.50000000  0.16666893
   0.66666896  0.66666896  0.00000000
   0.66666896  0.00000000  0.33333107
   0.66666896  0.16666893  0.50000000
   0.66666896  0.83333104  0.50000000
   0.66666896  0.00000000  0.66666896
   0.66666896  0.50000000  0.83333104
   0.66666896  0.16666893  0.16666893
   0.50000000  0.50000000  0.66666667
   0.66666896  0.33333107  0.33333107
   0.66666896  0.66666896  0.33333107
   0.66666896  0.16666893  0.83333104
   0.66666896  0.33333107  0.66666896
   0.66666896  0.66666896  0.66666896
   0.66666896  0.83333104  0.83333104
   0.66666897  0.00000000  0.00000000
   0.66666897  0.50000000  0.50000000
   0.83333103  0.50000000  0.00000000
   0.83333103  0.00000000  0.50000000
   0.83333104  0.33333107  0.16666893
   0.83333104  0.66666896  0.16666893
   0.83333104  0.16666893  0.33333107
   0.83333104  0.83333104  0.33333107
   0.83333104  0.16666893  0.66666896
   0.83333104  0.33333107  0.83333104
   0.83333104  0.66666896  0.83333104
   0.83333104  0.83333104  0.66666896
   0.83333104  0.00000000  0.16666893
   0.83333104  0.16666893  0.00000000
   0.83333104  0.83333104  0.00000000
   0.83333104  0.33333107  0.50000000
   0.83333104  0.50000000  0.33333107
   0.83333104  0.66666896  0.50000000
   0.83333104  0.00000000  0.83333104
   0.83333104  0.50000000  0.66666896
   0.33333106  0.50000000  0.50000000
Direct configuration=     2
  -0.00029756  0.00007058 -0.00007059
  -0.00090381  0.16576331  0.16668451
  -0.00010022  0.33339097  0.00002795
  -0.00014470  0.50097104  0.16748760
  -0.00008873  0.66656909 -0.00003432
  -0.00085957  0.83328058  0.16671940
  -0.00008871  0.00003431  0.33343096
   0.00091677  0.16758372  0.50013806
   0.00005127  0.33319437  0.33317088
  -0.00025754  0.49988529  0.50011470
   0.00006832  0.66677622  0.33322382
  -0.00014469  0.83251243  0.49902896
  -0.00010022 -0.00002795  0.66660905
   0.00014076  0.16680782  0.83319213
   0.00032166  0.33318191  0.66681809
   0.00091676  0.49986193  0.83241622
   0.00005127  0.66682917  0.66680564
  -0.00090383  0.83331548  0.83423665
   0.16672142 -0.00011646  0.16661811
   0.16672510  0.16656690  0.00002793
   0.16672142  0.83338189  0.00011646
   0.16002757  0.32669357  0.50015922
   0.16001233  0.50000170  0.32666968
   0.16001237  0.67333034  0.49999831
   0.16672509 -0.00002793  0.83343304
   0.16002757  0.49984079  0.67330643
   0.16652121  0.33318705  0.16675343
   0.16649363  0.66689730  0.16677154
   0.16652840  0.16671834  0.33317086
   0.16649362  0.83322846  0.33310274
   0.16651589  0.16698862  0.66681813
   0.16651589  0.33318188  0.83301132
   0.16652841  0.66682918  0.83328160
   0.16652121  0.83324657  0.66681296
   0.16662952  0.50006248  0.00001809
   0.16662949 -0.00001813  0.49993752
   0.33336551  0.00006352 -0.00006355
   0.33430379  0.16652253  0.16748763
   0.33422053  0.83254440  0.16745559
   0.33333493  0.32667894  0.32667036
   0.33344199  0.67318026  0.32681978
   0.33319493  0.16758375  0.83241620
   0.33317411  0.32669417  0.67330581
   0.33333492  0.67332973  0.67332107
   0.33430382  0.83251236  0.83347742
   0.33339536  0.33329547  0.00001810
   0.33428338  0.50095049  0.16628199
   0.33337037  0.66668197 -0.00004474
   0.33337035  0.00004471  0.33331807
   0.33321829  0.16640933  0.50011467
   0.33428336  0.83371805  0.49904951
   0.33339535 -0.00001813  0.66670454
   0.33321838  0.49988534  0.83359056
   0.50017660 -0.00018302  0.16662844
   0.49990201  0.16657845 -0.00003443
   0.50023009  0.33315946  0.16677160
   0.50001517  0.50003766 -0.00004472
   0.50041169  0.66707884  0.16678979
   0.50017660  0.83337152  0.00018294
   0.50001515  0.00004466  0.49996237
   0.50010910  0.16673547  0.33322380
   0.50666227  0.32667927  0.49999825
   0.50651290  0.50010890  0.32682013
   0.50651292  0.67317997  0.49989103
   0.50041168  0.83321025  0.33292116
   0.49990201  0.00003436  0.83342154
   0.50016207  0.16671843  0.66680571
   0.50016208  0.33319438  0.83328147
   0.50010913  0.66677612  0.83326443
   0.50023008  0.83322843  0.66684056
   0.66671609  0.33338719  0.00011643
   0.66587861  0.50088781  0.16745549
   0.66670591  0.66684407  0.00018331
   0.66670591 -0.00018336  0.33315596
   0.66584654  0.16652234  0.49902903
   0.66587859  0.83254453  0.49911221
   0.66671610 -0.00011647  0.66661284
   0.66584648  0.50097098  0.83347755
   0.66661473  0.16580775  0.16671938
   0.50666246  0.50000167  0.67331969
   0.66656269  0.33315948  0.33310271
   0.66654457  0.66707916  0.33292085
   0.66664964  0.16576336  0.83423659
   0.66658071  0.33318706  0.66681293
   0.66656268  0.66689731  0.66684053
   0.66661473  0.83328060  0.83419223
   0.66680644 -0.00023322  0.00023317
   0.66705206  0.50095053  0.49904942
   0.83339639  0.50003266 -0.00006351
   0.83339646  0.00006346  0.49996737
   0.83321637  0.33338724  0.16661808
   0.83314923  0.66684436  0.16662841
   0.83336735  0.16657856  0.33343103
   0.83314925  0.83337157  0.33315568
   0.83330501  0.16656681  0.66660902
   0.83330500  0.33339098  0.83343314
   0.83336733  0.66656903  0.83342142
   0.83321638  0.83338193  0.66661278
   0.83309938 -0.00023356  0.16652781
   0.83340364  0.16636971 -0.00007065
   0.83309938  0.83347216  0.00023354
   0.83331477  0.33329545  0.49993747
   0.83337767  0.50003752  0.33331790
   0.83337763  0.66668207  0.49996249
   0.83340363  0.00007063  0.83363025
   0.83331475  0.50006254  0.66670457
   0.33328817  0.49995223  0.50004745
Direct configuration=     3
  -0.00036745  0.00008716 -0.00008718
  -0.00111609  0.16555060  0.16668817
  -0.00012375  0.33340504  0.00003451
  -0.00017868  0.50119911  0.16767988
  -0.00010958  0.66654563 -0.00004238
  -0.00106146  0.83326873  0.16673126
  -0.00010954  0.00004236  0.33345442
   0.00113210  0.16779858  0.50017049
   0.00006332  0.33316226  0.33313325
  -0.00031803  0.49985835  0.50014163
   0.00008437  0.66680141  0.33319864
  -0.00017867  0.83232016  0.49880089
  -0.00012375 -0.00003452  0.66659498
   0.00017382  0.16684044  0.83315950
   0.00039720  0.33314687  0.66685312
   0.00113209  0.49982951  0.83220136
   0.00006331  0.66686679  0.66683774
  -0.00111612  0.83331182  0.83444935
   0.16673374 -0.00014382  0.16660617
   0.16673830  0.16654293  0.00003449
   0.16673374  0.83339384  0.00014382
   0.15846768  0.32513458  0.50019662
   0.15844886  0.50000209  0.32510508
   0.15844890  0.67489493  0.49999791
   0.16673829 -0.00003448  0.83345700
   0.15846768  0.49980340  0.67486541
   0.16648652  0.33315322  0.16677328
   0.16645245  0.66695093  0.16679565
   0.16649539  0.16672995  0.33313324
   0.16645245  0.83320437  0.33304912
   0.16647994  0.16706370  0.66685317
   0.16647994  0.33314683  0.83293623
   0.16649540  0.66686681  0.83326999
   0.16648651  0.83322673  0.66684678
   0.16662026  0.50007715  0.00002234
   0.16662023 -0.00002239  0.49992285
   0.33337360  0.00007844 -0.00007847
   0.33453226  0.16648815  0.16767993
   0.33442945  0.83235964  0.16764035
   0.33333584  0.32511652  0.32510592
   0.33346805  0.67470961  0.32529044
   0.33316296  0.16779862  0.83220133
   0.33313725  0.32513532  0.67486464
   0.33333582  0.67489418  0.67488348
   0.33453229  0.83232007  0.83351180
   0.33341046  0.33328711  0.00002235
   0.33450705  0.50117374  0.16619110
   0.33337961  0.66668503 -0.00005525
   0.33337958  0.00005522  0.33331502
   0.33319180  0.16634836  0.50014160
   0.33450704  0.83380895  0.49882627
   0.33341045 -0.00002239  0.66671290
   0.33319191  0.49985840  0.83365152
   0.50021807 -0.00022601  0.16661893
   0.49987899  0.16655720 -0.00004252
   0.50028413  0.33311915  0.16679571
   0.50001873  0.50004650 -0.00005523
   0.50050839  0.66717511  0.16681817
   0.50021808  0.83338103  0.00022591
   0.50001870  0.00005516  0.49995353
   0.50013473  0.16675110  0.33319861
   0.50822707  0.32511693  0.49999784
   0.50804262  0.50013448  0.32529087
   0.50804265  0.67470924  0.49986543
   0.50050837  0.83318188  0.33282489
   0.49987899  0.00004243  0.83344280
   0.50020014  0.16673006  0.66683783
   0.50020015  0.33316228  0.83326983
   0.50013476  0.66680129  0.83324878
   0.50028412  0.83320432  0.66688087
   0.66672716  0.33340038  0.00014378
   0.66569297  0.50109633  0.16764023
   0.66671459  0.66688519  0.00022636
   0.66671459 -0.00022642  0.33311483
   0.66565338  0.16648791  0.49880098
   0.66569295  0.83235979  0.49890369
   0.66672717 -0.00014382  0.66659966
   0.66565330  0.50119904  0.83351197
   0.66660200  0.16560548  0.16673123
   0.50822731  0.50000206  0.67488232
   0.66653773  0.33311918  0.33304908
   0.66651536  0.66717550  0.33282450
   0.66664510  0.16555066  0.83444929
   0.66655998  0.33315324  0.66684674
   0.66653772  0.66695094  0.66688082
   0.66660199  0.83326876  0.83439451
   0.66683873 -0.00028799  0.00028794
   0.66714204  0.50117379  0.49882615
   0.83341175  0.50004033 -0.00007843
   0.83341183  0.00007837  0.49995970
   0.83318944  0.33340044  0.16660613
   0.83310653  0.66688556  0.16661889
   0.83337588  0.16655733  0.33345451
   0.83310655  0.83338110  0.33311449
   0.83329889  0.16654283  0.66659495
   0.83329888  0.33340506  0.83345712
   0.83337585  0.66654556  0.83344265
   0.83318945  0.83339388  0.66659959
   0.83304497 -0.00028842  0.16649467
   0.83342069  0.16629942 -0.00008725
   0.83304497  0.83350531  0.00028839
   0.83331095  0.33328708  0.49992278
   0.83338862  0.50004633  0.33331481
   0.83338857  0.66668515  0.49995369
   0.83342069  0.00008722  0.83370052
   0.83331092  0.50007723  0.66671293
   0.33327809  0.49994100  0.50005860
Direct configuration=     4
  -0.00025343  0.00014825 -0.00014838
  -0.00162714  0.16503944  0.16660230
  -0.00079681  0.33334763  0.00011430
  -0.00146075  0.50163743  0.16685921
  -0.00070826  0.66654559 -0.00006573
  -0.00148180  0.83334383  0.16665585
  -0.00070821  0.00006563  0.33345427
   0.00021943  0.16688592  0.50025156
  -0.00041516  0.33296856  0.33279102
   0.00001110  0.49980308  0.50019700
  -0.00028642  0.66697273  0.33302712
  -0.00146072  0.83314055  0.49836268
  -0.00079679 -0.00011441  0.66665262
   0.00011259  0.16677913  0.83322101
  -0.00013495  0.33290811  0.66709213
   0.00021946  0.49974855  0.83311417
  -0.00041515  0.66720883  0.66703166
  -0.00162719  0.83339739  0.83496072
   0.16670311 -0.00029811  0.16597502
   0.16668078  0.16586971  0.00011429
   0.16670313  0.83402472  0.00029801
   0.15828444  0.32495147  0.50010399
   0.15818606  0.49996430  0.32469778
   0.15818606  0.67530201  0.50003582
   0.16668078 -0.00011438  0.83413038
   0.15828454  0.49989612  0.67504873
   0.16629833  0.33296518  0.16626566
   0.16626929  0.66732116  0.16630358
   0.16630169  0.16625144  0.33279101
   0.16626927  0.83369615  0.33267866
   0.16624129  0.16653158  0.66709215
   0.16624131  0.33290810  0.83346852
   0.16630171  0.66720881  0.83374870
   0.16629830  0.83373411  0.66703507
   0.16651857  0.50011383  0.00015581
   0.16651851 -0.00015595  0.49988628
   0.33334440  0.00011599 -0.00011613
   0.33497067  0.16520601  0.16685928
   0.33482542  0.83320666  0.16679302
   0.33329772  0.32485291  0.32469763
   0.33352403  0.67505217  0.32494764
   0.33308196  0.16688607  0.83311409
   0.33323036  0.32495220  0.67504807
   0.33329773  0.67530214  0.67514734
   0.33497071  0.83314044  0.83479416
   0.33344722  0.33318547  0.00015580
   0.33486263  0.50152932  0.16639691
   0.33331623  0.66675222 -0.00003648
   0.33331617  0.00003637  0.33324764
   0.33313645  0.16667736  0.50019698
   0.33486260  0.83360291  0.49847081
   0.33344719 -0.00015593  0.66681479
   0.33313655  0.49980308  0.83332266
   0.50051764 -0.00052643  0.16599526
   0.49987898  0.16595841 -0.00006579
   0.50065447  0.33293614  0.16630361
   0.50008581  0.49998295 -0.00003645
   0.50081832  0.66748499  0.16607187
   0.50051766  0.83400435  0.00052624
   0.50008579  0.00003632  0.50001720
   0.50030609  0.16638018  0.33302709
   0.50863580  0.32485250  0.50003579
   0.50838579  0.50019067  0.32494725
   0.50838580  0.67505257  0.49980943
   0.50081824  0.83392784  0.33251481
   0.49987896  0.00006560  0.83404179
   0.50054219  0.16625152  0.66703167
   0.50054218  0.33296869  0.83374856
   0.50030612  0.66697261  0.83361993
   0.50065447  0.83369613  0.66706413
   0.66735781  0.33336994  0.00029798
   0.66653981  0.50149210  0.16679294
   0.66733765  0.66718466  0.00052654
   0.66733767 -0.00052662  0.33281521
   0.66647364  0.16520591  0.49836277
   0.66653984  0.83320679  0.49850804
   0.66735784 -0.00029811  0.66663034
   0.66647353  0.50163737  0.83479419
   0.66667690  0.16518484  0.16665584
   0.50863589  0.49996427  0.67514740
   0.66702934  0.33293612  0.33267865
   0.66726102  0.66748522  0.33251452
   0.66673055  0.16503950  0.83496063
   0.66706726  0.33296517  0.66703501
   0.66702931  0.66732116  0.66706410
   0.66667691  0.83334383  0.83481538
   0.66671230 -0.00052711  0.00052693
   0.66693619  0.50152933  0.49847073
   0.83344921  0.50001101 -0.00011612
   0.83344930  0.00011598  0.49998913
   0.83303520  0.33336996  0.16597503
   0.83280638  0.66718484  0.16599521
   0.83339907  0.16595846  0.33345434
   0.83280649  0.83400443  0.33281505
   0.83321900  0.16586969  0.66665259
   0.83321898  0.33334765  0.83413044
   0.83339903  0.66654554  0.83404174
   0.83303521  0.83402470  0.66663029
   0.83280607 -0.00052730  0.16662049
   0.83348178  0.16641324 -0.00014844
   0.83280602  0.83337916  0.00052716
   0.83317742  0.33318543  0.49988621
   0.83336977  0.49998280  0.33324752
   0.83336973  0.66675226  0.50001731
   0.83348178  0.00014830  0.83358691
   0.83317738  0.50011388  0.66681480
   0.33323037  0.49989766  0.50010230
Direct configuration=     5
  -0.00015834  0.00019919 -0.00019942
  -0.00205334  0.16461315  0.16653068
  -0.00135811  0.33329975  0.00018084
  -0.00252993  0.50200297  0.16617481
  -0.00120754  0.66654556 -0.00008521
  -0.00183234  0.83340646  0.16659297
  -0.00120747  0.00008503  0.33345415
  -0.00054169  0.16612480  0.50031917
  -0.00081418  0.33280703  0.33250561
   0.00028559  0.49975698  0.50024317
  -0.00059564  0.66711562  0.33288408
  -0.00252990  0.83382471  0.49799724
  -0.00135807 -0.00018103  0.66670070
   0.00006152  0.16672800  0.83327230
  -0.00057875  0.33270899  0.66729146
  -0.00054163  0.49968104  0.83387542
  -0.00081417  0.66749408  0.66719337
  -0.00205341  0.83346876  0.83538718
   0.16667757 -0.00042678  0.16544866
   0.16663282  0.16530828  0.00018085
   0.16667761  0.83455084  0.00042660
   0.15813163  0.32479876  0.50002674
   0.15796690  0.49993278  0.32435811
   0.15796685  0.67564150  0.50006743
   0.16663283 -0.00018101  0.83469196
   0.15813180  0.49997345  0.67520161
   0.16614139  0.33280835  0.16584232
   0.16611654  0.66762992  0.16589322
   0.16614016  0.16585238  0.33250561
   0.16611652  0.83410628  0.33236972
   0.16604226  0.16608782  0.66729145
   0.16604229  0.33270901  0.83391242
   0.16614019  0.66749402  0.83414792
   0.16614134  0.83415724  0.66719210
   0.16643377  0.50014441  0.00026712
   0.16643368 -0.00026733  0.49985578
   0.33332004  0.00014730 -0.00014754
   0.33533627  0.16413677  0.16617490
   0.33515564  0.83391304  0.16608638
   0.33326594  0.32463307  0.32435713
   0.33357072  0.67533786  0.32466176
   0.33301442  0.16612505  0.83387529
   0.33330802  0.32479947  0.67520105
   0.33326597  0.67564237  0.67536738
   0.33533634  0.83382458  0.83586360
   0.33347789  0.33310071  0.00026710
   0.33515917  0.50182585  0.16656854
   0.33326338  0.66680825 -0.00002083
   0.33326329  0.00002065  0.33319145
   0.33309029  0.16695174  0.50024317
   0.33515913  0.83343108  0.49817438
   0.33347783 -0.00026730  0.66689977
   0.33309038  0.49975694  0.83304841
   0.50076746 -0.00077697  0.16547514
   0.49987897  0.16545904 -0.00008519
   0.50096331  0.33278352  0.16589323
   0.50014174  0.49992994 -0.00002079
   0.50107679  0.66774342  0.16544949
   0.50076751  0.83452418  0.00077670
   0.50014173  0.00002060  0.50007030
   0.50044900  0.16607084  0.33288406
   0.50897667  0.32463198  0.50006744
   0.50867199  0.50023754  0.32466069
   0.50867197  0.67533890  0.49976273
   0.50107665  0.83454995  0.33225622
   0.49987894  0.00008492  0.83454131
   0.50082745  0.16585244  0.66719332
   0.50082743  0.33280725  0.83414780
   0.50044903  0.66711548  0.83392945
   0.50096332  0.83410627  0.66721696
   0.66788375  0.33334457  0.00042659
   0.66724604  0.50182215  0.16608634
   0.66785727  0.66743440  0.00077688
   0.66785730 -0.00077697  0.33256534
   0.66715770  0.16413677  0.49799732
   0.66724610  0.83391314  0.49817808
   0.66788379 -0.00042679  0.66665594
   0.66715756  0.50200292  0.83586351
   0.66673937  0.16483404  0.16659297
   0.50897663  0.49993275  0.67536846
   0.66743933  0.33278345  0.33236974
   0.66788287  0.66774351  0.33225602
   0.66680182  0.16461321  0.83538708
   0.66749032  0.33280833  0.66719202
   0.66743928  0.66762992  0.66721694
   0.66673939  0.83340643  0.83516637
   0.66660686 -0.00072653  0.00072624
   0.66676452  0.50182584  0.49817432
   0.83348045  0.49998656 -0.00014755
   0.83348055  0.00014734  0.50001367
   0.83290657  0.33334455  0.16544872
   0.83255607  0.66743442  0.16547509
   0.83341841  0.16545903  0.33345419
   0.83255624  0.83452427  0.33256532
   0.83315237  0.16530833  0.66670066
   0.83315234  0.33329977  0.83469196
   0.83341836  0.66654552  0.83454135
   0.83290658  0.83455078  0.66665590
   0.83260684 -0.00072651  0.16672542
   0.83353273  0.16650815 -0.00019947
   0.83260675  0.83327395  0.00072629
   0.83306607  0.33310066  0.49985571
   0.83335405  0.49992983  0.33319141
   0.83335402  0.66680822  0.50007037
   0.83353273  0.00019924  0.83349216
   0.83306601  0.50014444  0.66689975
   0.33319057  0.49986151  0.50013874
Direct configuration=     6
  -0.00026895  0.00020216 -0.00020235
  -0.00218222  0.16448471  0.16649325
  -0.00146539  0.33301142  0.00028027
  -0.00253993  0.50209412  0.16627395
  -0.00119579  0.66685353 -0.00012555
  -0.00191610  0.83346741  0.16653171
  -0.00119568  0.00012531  0.33314580
  -0.00044737  0.16621954  0.50036256
  -0.00088630  0.33267471  0.33231191
   0.00038888  0.49975572  0.50024444
  -0.00061861  0.66721863  0.33278079
  -0.00253986  0.83372524  0.49790594
  -0.00146533 -0.00028054  0.66698931
  -0.00001522  0.16665174  0.83334904
  -0.00066277  0.33264512  0.66735576
  -0.00044736  0.49963747  0.83378102
  -0.00088626  0.66768733  0.66732603
  -0.00218229  0.83350581  0.83551596
   0.16638077 -0.00052986  0.16541334
   0.16634466  0.16520145  0.00028034
   0.16638080  0.83458591  0.00052970
   0.15792189  0.32458867  0.49995289
   0.15786009  0.49997263  0.32410898
   0.15785979  0.67589055  0.50002749
   0.16634476 -0.00028054  0.83479911
   0.15792242  0.50004719  0.67541168
   0.16601574  0.33268263  0.16576206
   0.16600918  0.66781532  0.16584999
   0.16600795  0.16578063  0.33231189
   0.16600915  0.83414924  0.33218401
   0.16597854  0.16600433  0.66735573
   0.16597852  0.33264511  0.83399621
   0.16600801  0.66768734  0.83421994
   0.16601579  0.83423713  0.66731814
   0.16644491  0.50018301  0.00033322
   0.16644491 -0.00033349  0.49981704
   0.33322037  0.00018313 -0.00018339
   0.33542776  0.16412684  0.16627399
   0.33520796  0.83386825  0.16613091
   0.33330611  0.32452711  0.32410925
   0.33368119  0.67547601  0.32452332
   0.33297099  0.16621975  0.83378087
   0.33338108  0.32458969  0.67541117
   0.33330611  0.67589012  0.67547387
   0.33542787  0.83372524  0.83587381
   0.33351657  0.33311170  0.00033322
   0.33521646  0.50188300  0.16666072
   0.33320304  0.66672765 -0.00005167
   0.33320284  0.00005144  0.33327174
   0.33308923  0.16705581  0.50024423
   0.33521647  0.83333865  0.49811716
   0.33351653 -0.00033349  0.66688910
   0.33308920  0.49975581  0.83294466
   0.50128494 -0.00101642  0.16541287
   0.50018707  0.16547087 -0.00012538
   0.50114895  0.33267583  0.16584991
   0.50006103  0.49986948 -0.00005155
   0.50126047  0.66792715  0.16528368
   0.50128502  0.83458613  0.00101620
   0.50006082  0.00005139  0.50013080
   0.50055209  0.16604807  0.33278042
   0.50922329  0.32452740  0.50002731
   0.50880915  0.50034767  0.32452359
   0.50880906  0.67547564  0.49965254
   0.50126015  0.83471537  0.33207221
   0.50018700  0.00012504  0.83452980
   0.50102082  0.16578050  0.66732612
   0.50102084  0.33267476  0.83422013
   0.50055217  0.66721890  0.83395276
   0.50114885  0.83414927  0.66732508
   0.66791918  0.33304743  0.00052983
   0.66720151  0.50187412  0.16613080
   0.66791913  0.66795180  0.00101631
   0.66791922 -0.00101624  0.33204750
   0.66705866  0.16412694  0.49790585
   0.66720148  0.83386826  0.49812612
   0.66791917 -0.00052999  0.66695351
   0.66705867  0.50209432  0.83587377
   0.66680049  0.16475047  0.16653161
   0.50922324  0.49997279  0.67547336
   0.66748263  0.33267588  0.33218370
   0.66804845  0.66792692  0.33207216
   0.66683918  0.16448453  0.83551609
   0.66757073  0.33268264  0.66731821
   0.66748262  0.66781548  0.66732500
   0.66680046  0.83346740  0.83525036
   0.66678536 -0.00097454  0.00097425
   0.66667195  0.50188295  0.49811723
   0.83351637  0.49988654 -0.00018338
   0.83351660  0.00018317  0.50011364
   0.83280327  0.33304746  0.16541327
   0.83231655  0.66795151  0.16541297
   0.83345853  0.16547117  0.33314568
   0.83231692  0.83458612  0.33204783
   0.83305273  0.16520142  0.66698938
   0.83305274  0.33301146  0.83479920
   0.83345837  0.66685354  0.83452956
   0.83280332  0.83458589  0.66695339
   0.83235861 -0.00097421  0.16654664
   0.83353527  0.16639792 -0.00020234
   0.83235849  0.83345238  0.00097401
   0.83299991  0.33311181  0.49981700
   0.83338474  0.49986917  0.33327185
   0.83338482  0.66672738  0.50013096
   0.83353522  0.00020212  0.83360281
   0.83299983  0.50018308  0.66688903
   0.33332382  0.49998946  0.50001054
Direct configuration=     7
  -0.00032946  0.00020379 -0.00020396
  -0.00225274  0.16441445  0.16647277
  -0.00152408  0.33285367  0.00033467
  -0.00254540  0.50214398  0.16632819
  -0.00118936  0.66702202 -0.00014762
  -0.00196192  0.83350076  0.16649819
  -0.00118922  0.00014734  0.33297710
  -0.00039577  0.16627137  0.50038630
  -0.00092576  0.33260232  0.33220595
   0.00044538  0.49975502  0.50024514
  -0.00063118  0.66727499  0.33272428
  -0.00254532  0.83367082  0.49785600
  -0.00152402 -0.00033498  0.66714721
  -0.00005721  0.16661003  0.83339103
  -0.00070874  0.33261017  0.66739095
  -0.00039578  0.49961362  0.83372937
  -0.00092570  0.66779305  0.66739860
  -0.00225280  0.83352608  0.83558641
   0.16621840 -0.00058625  0.16539402
   0.16618701  0.16514301  0.00033477
   0.16621842  0.83460509  0.00058610
   0.15780714  0.32447373  0.49991249
   0.15780166  0.49999443  0.32397268
   0.15780122  0.67602680  0.50000565
   0.16618716 -0.00033499  0.83485773
   0.15780786  0.50008754  0.67552661
   0.16594700  0.33261385  0.16571815
   0.16595045  0.66791675  0.16582633
   0.16593562  0.16574138  0.33220591
   0.16595042  0.83417275  0.33208241
   0.16594369  0.16595866  0.66739090
   0.16594362  0.33261014  0.83404205
   0.16593569  0.66779310  0.83425934
   0.16594709  0.83428083  0.66738710
   0.16645101  0.50020412  0.00036939
   0.16645105 -0.00036969  0.49979585
   0.33316583  0.00020272 -0.00020301
   0.33547782  0.16412141  0.16632820
   0.33523658  0.83384374  0.16615527
   0.33332809  0.32446914  0.32397364
   0.33374163  0.67555159  0.32444758
   0.33294724  0.16627156  0.83372922
   0.33342105  0.32447492  0.67552613
   0.33332807  0.67602566  0.67553212
   0.33547795  0.83367089  0.83587940
   0.33353774  0.33311771  0.00036939
   0.33524780  0.50191427  0.16671115
   0.33317003  0.66668356 -0.00006854
   0.33316978  0.00006828  0.33331566
   0.33308865  0.16711275  0.50024481
   0.33524783  0.83328809  0.49808586
   0.33353771 -0.00036970  0.66688326
   0.33308856  0.49975519  0.83288790
   0.50156804 -0.00114742  0.16537880
   0.50035564  0.16547734 -0.00014737
   0.50125051  0.33261692  0.16582621
   0.50001686  0.49983641 -0.00006838
   0.50136096  0.66802766  0.16519298
   0.50156814  0.83462002  0.00114723
   0.50001656  0.00006824  0.50016389
   0.50060849  0.16603561  0.33272372
   0.50935821  0.32447018  0.50000535
   0.50888419  0.50040792  0.32444858
   0.50888406  0.67555045  0.49959225
   0.50136055  0.83480587  0.33197153
   0.50035554  0.00014699  0.83452350
   0.50112661  0.16574114  0.66739878
   0.50112665  0.33260228  0.83425970
   0.50060860  0.66727547  0.83396552
   0.50125035  0.83417280  0.66738422
   0.66793856  0.33288488  0.00058632
   0.66717714  0.50190256  0.16615513
   0.66795298  0.66823486  0.00114730
   0.66795309 -0.00114715  0.33176420
   0.66700448  0.16412156  0.49785580
   0.66717706  0.83384371  0.49809770
   0.66793852 -0.00058645  0.66711631
   0.66700457  0.50214432  0.83587938
   0.66683393  0.16470474  0.16649804
   0.50935815  0.49999470  0.67553074
   0.66750632  0.33261703  0.33208192
   0.66813904  0.66802726  0.33197158
   0.66685962  0.16441412  0.83558668
   0.66761472  0.33261387  0.66738725
   0.66750634  0.66791700  0.66738412
   0.66683387  0.83350076  0.83529630
   0.66688302 -0.00111022  0.00110994
   0.66662131  0.50191419  0.49808600
   0.83353603  0.49983182 -0.00020298
   0.83353632  0.00020278  0.50016833
   0.83274676  0.33288492  0.16539388
   0.83218552  0.66823440  0.16537898
   0.83348047  0.16547781  0.33297689
   0.83218598  0.83461996  0.33176471
   0.83299822  0.16514293  0.66714734
   0.83299824  0.33285374  0.83485787
   0.83348025  0.66702205  0.83452311
   0.83274682  0.83460509  0.66711615
   0.83222280 -0.00110973  0.16644884
   0.83353667  0.16633761 -0.00020391
   0.83222267  0.83355000  0.00110954
   0.83296372  0.33311791  0.49979583
   0.83340153  0.49983599  0.33331585
   0.83340166  0.66668315  0.50016410
   0.83353658  0.00020369  0.83366334
   0.83296362  0.50020422  0.66688317
   0.33339672  0.50005945  0.49994040
Direct configuration=     8
  -0.00035095  0.00020439 -0.00020419
  -0.00227896  0.16438804  0.16643961
  -0.00156983  0.33286213  0.00034458
  -0.00255457  0.50215955  0.16633061
  -0.00117118  0.66699435 -0.00013942
  -0.00190248  0.83353068  0.16646880
  -0.00117123  0.00013959  0.33300490
  -0.00040424  0.16626275  0.50040105
  -0.00092987  0.33261194  0.33219139
   0.00050589  0.49975902  0.50024073
  -0.00059942  0.66726577  0.33273357
  -0.00255461  0.83366900  0.49784009
  -0.00156985 -0.00034443  0.66713821
  -0.00007831  0.16658869  0.83341206
  -0.00072861  0.33262732  0.66737308
  -0.00040408  0.49959861  0.83373769
  -0.00092987  0.66780782  0.66738849
  -0.00227893  0.83355976  0.83561261
   0.16622687 -0.00060171  0.16540009
   0.16619581  0.16509703  0.00034461
   0.16622686  0.83459940  0.00060195
   0.15791939  0.32458596  0.49989103
   0.15787674  0.50004306  0.32402756
   0.15787648  0.67597197  0.49995667
   0.16619585 -0.00034447  0.83490358
   0.15791967  0.50010869  0.67541413
   0.16592170  0.33258811  0.16570862
   0.16595622  0.66792240  0.16585836
   0.16594554  0.16573711  0.33219138