 running on    8 total cores
 distrk:  each k-point on    8 cores,    1 groups
 distr:  one band on    4 cores,    2 groups
 using from now: INCAR     
 vasp.5.4.4.18Apr17-6-g9f103f2a35 (build Aug 17 2017 06:00:38) complex          
  
 POSCAR found type information on POSCAR  Fe
 POSCAR found :  1 types and     107 ions
 scaLAPACK will be used
 LDA part: xc-table for Pade appr. of Perdew
 POSCAR, INCAR and KPOINTS ok, starting setup
 FFT: planning ...
 WAVECAR not read
 entering main loop
       N       E                     dE             d eps       ncg     rms          rms(c)
DAV:   1     0.750650020580E+04    0.75065E+04   -0.28623E+05 32944   0.183E+03
DAV:   2    -0.253590080596E+02   -0.75319E+04   -0.73637E+04 32896   0.456E+02
DAV:   3    -0.842106390485E+03   -0.81675E+03   -0.69741E+03 33144   0.190E+02
DAV:   4    -0.101753225370E+04   -0.17543E+03   -0.16454E+03 59888   0.570E+01
DAV:   5    -0.103255850142E+04   -0.15026E+02   -0.14163E+02 52592   0.217E+01    0.930E+01
RMM:   6    -0.879536640448E+03    0.15302E+03   -0.13974E+03 32956   0.112E+02    0.378E+01
RMM:   7    -0.114080142731E+04   -0.26126E+03   -0.37404E+02 44580   0.330E+01    0.168E+02
RMM:   8    -0.878889179052E+03    0.26191E+03   -0.18355E+02 32915   0.390E+01    0.443E+01
RMM:   9    -0.870073357374E+03    0.88158E+01   -0.56653E+01 40169   0.134E+01    0.133E+01
RMM:  10    -0.872140915465E+03   -0.20676E+01   -0.23011E+01 43343   0.816E+00    0.215E+01
RMM:  11    -0.869595270436E+03    0.25456E+01   -0.61736E+00 36857   0.582E+00    0.850E+00
RMM:  12    -0.869792651772E+03   -0.19738E+00   -0.55312E+00 49874   0.261E+00    0.887E+00
RMM:  13    -0.869286382305E+03    0.50627E+00   -0.15455E+00 38279   0.270E+00    0.622E+00
RMM:  14    -0.869242875511E+03    0.43507E-01   -0.92933E-01 45917   0.123E+00    0.576E+00
RMM:  15    -0.869147918761E+03    0.94957E-01   -0.25522E-01 39748   0.100E+00    0.463E+00
RMM:  16    -0.869041939531E+03    0.10598E+00   -0.26042E-01 36542   0.121E+00    0.189E+00
RMM:  17    -0.869068873220E+03   -0.26934E-01   -0.25986E-01 44848   0.808E-01    0.274E+00
RMM:  18    -0.869032986685E+03    0.35887E-01   -0.71362E-02 37555   0.592E-01    0.800E-01
RMM:  19    -0.869037056401E+03   -0.40697E-02   -0.54731E-02 51046   0.254E-01    0.105E+00
RMM:  20    -0.869034920554E+03    0.21358E-02   -0.15923E-02 38339   0.282E-01    0.839E-01
RMM:  21    -0.869034368070E+03    0.55248E-03   -0.88907E-03 46482   0.128E-01    0.738E-01
RMM:  22    -0.869033554255E+03    0.81382E-03   -0.49011E-03 37554   0.152E-01    0.594E-01
RMM:  23    -0.869031879658E+03    0.16746E-02   -0.23418E-03 36651   0.120E-01    0.162E-01
RMM:  24    -0.869032017465E+03   -0.13781E-03   -0.19636E-03 50513   0.495E-02    0.180E-01
RMM:  25    -0.869031892280E+03    0.12519E-03   -0.69490E-04 42302   0.424E-02    0.908E-02
RMM:  26    -0.869031886006E+03    0.62733E-05   -0.30730E-04 49344   0.215E-02    0.748E-02
RMM:  27    -0.869031869241E+03    0.16765E-04   -0.70086E-05 40420   0.151E-02    0.708E-02
RMM:  28    -0.869031841634E+03    0.27607E-04   -0.24644E-05 36842   0.115E-02    0.338E-02
RMM:  29    -0.869031840702E+03    0.93209E-06   -0.25351E-05 44419   0.764E-03    0.341E-02
RMM:  30    -0.869031829280E+03    0.11422E-04   -0.12392E-05 37391   0.699E-03    0.164E-02
RMM:  31    -0.869031827741E+03    0.15387E-05   -0.38228E-06 27194   0.384E-03    0.635E-03
RMM:  32    -0.869031829621E+03   -0.18798E-05   -0.23920E-06 22359   0.327E-03    0.717E-03
RMM:  33    -0.869031829951E+03   -0.33045E-06   -0.15748E-06 20689   0.325E-03
   1 F= -.86903183E+03 E0= -.86901103E+03  d E =-.624049E-01
