 107 107   0   0
  0.1031640E+02  0.1033485E-08  0.1033485E-08  0.1033485E-08  0.5000000E-15
  1.000000000000000E-004
  CAR 
 Static                                  
      9.72864680     -3.98859262  301      6.70146130      1.00000000
     -3.989  0.0000E+00  0.0000E+00
     -3.943  0.0000E+00  0.0000E+00
     -3.897  0.0000E+00  0.0000E+00
     -3.851  0.0000E+00  0.0000E+00
     -3.806  0.0000E+00  0.0000E+00
     -3.760  0.0000E+00  0.0000E+00
     -3.714  0.0000E+00  0.0000E+00
     -3.669  0.0000E+00  0.0000E+00
     -3.623 -0.1272E-27 -0.5816E-29
     -3.577 -0.4793E-26 -0.2250E-27
     -3.531 -0.1664E-24 -0.7833E-26
     -3.486 -0.5197E-23 -0.2455E-24
     -3.440 -0.1460E-21 -0.6921E-23
     -3.394 -0.3689E-20 -0.1756E-21
     -3.348 -0.8385E-19 -0.4010E-20
     -3.303 -0.1714E-17 -0.8236E-19
     -3.257 -0.3149E-16 -0.1522E-17
     -3.211 -0.5201E-15 -0.2530E-16
     -3.166 -0.7418E-14 -0.3645E-15
     -3.120 -0.9999E-13 -0.4936E-14
     -3.074 -0.1193E-11 -0.5949E-13
     -3.028 -0.1280E-10 -0.6450E-12
     -2.983 -0.1233E-09 -0.6284E-11
     -2.937 -0.1065E-08 -0.5500E-10
     -2.891 -0.8252E-08 -0.4323E-09
     -2.845 -0.5727E-07 -0.3051E-08
     -2.800 -0.3559E-06 -0.1932E-07
     -2.754 -0.1978E-05 -0.1098E-06
     -2.708 -0.9822E-05 -0.5589E-06
     -2.663 -0.4352E-04 -0.2549E-05
     -2.617 -0.1717E-03 -0.1040E-04
     -2.571 -0.6021E-03 -0.3793E-04
     -2.525 -0.1870E-02 -0.1234E-03
     -2.480 -0.5122E-02 -0.3576E-03
     -2.434 -0.1230E-01 -0.9201E-03
     -2.388 -0.2566E-01 -0.2093E-02
     -2.343 -0.4574E-01 -0.4185E-02
     -2.297 -0.6760E-01 -0.7276E-02
     -2.251 -0.7675E-01 -0.1079E-01
     -2.205 -0.4888E-01 -0.1302E-01
     -2.160  0.4347E-01 -0.1103E-01
     -2.114  0.2199E+00 -0.9792E-03
     -2.068  0.4860E+00  0.2124E-01
     -2.022  0.8399E+00  0.5965E-01
     -1.977  0.1282E+01  0.1183E+00
     -1.931  0.1813E+01  0.2012E+00
     -1.885  0.2407E+01  0.3113E+00
     -1.840  0.2995E+01  0.4482E+00
     -1.794  0.3480E+01  0.6073E+00
     -1.748  0.3793E+01  0.7808E+00
     -1.702  0.3934E+01  0.9607E+00
     -1.657  0.3967E+01  0.1142E+01
     -1.611  0.3982E+01  0.1324E+01
     -1.565  0.4059E+01  0.1510E+01
     -1.519  0.4256E+01  0.1704E+01
     -1.474  0.4602E+01  0.1915E+01
     -1.428  0.5092E+01  0.2148E+01
     -1.382  0.5692E+01  0.2408E+01
     -1.337  0.6330E+01  0.2697E+01
     -1.291  0.6894E+01  0.3013E+01
     -1.245  0.7234E+01  0.3343E+01
     -1.199  0.7204E+01  0.3673E+01
     -1.154  0.6768E+01  0.3982E+01
     -1.108  0.6060E+01  0.4259E+01
     -1.062  0.5373E+01  0.4505E+01
     -1.017  0.5032E+01  0.4735E+01
     -0.971  0.5253E+01  0.4975E+01
     -0.925  0.6062E+01  0.5252E+01
     -0.879  0.7308E+01  0.5587E+01
     -0.834  0.8733E+01  0.5986E+01
     -0.788  0.1004E+02  0.6445E+01
     -0.742  0.1095E+02  0.6946E+01
     -0.696  0.1120E+02  0.7458E+01
     -0.651  0.1068E+02  0.7946E+01
     -0.605  0.9529E+01  0.8382E+01
     -0.559  0.8106E+01  0.8752E+01
     -0.514  0.6929E+01  0.9069E+01
     -0.468  0.6442E+01  0.9364E+01
     -0.422  0.6841E+01  0.9677E+01
     -0.376  0.8006E+01  0.1004E+02
     -0.331  0.9576E+01  0.1048E+02
     -0.285  0.1110E+02  0.1099E+02
     -0.239  0.1219E+02  0.1155E+02
     -0.193  0.1263E+02  0.1212E+02
     -0.148  0.1247E+02  0.1269E+02
     -0.102  0.1194E+02  0.1324E+02
     -0.056  0.1140E+02  0.1376E+02
     -0.011  0.1117E+02  0.1427E+02
      0.035  0.1139E+02  0.1479E+02
      0.081  0.1196E+02  0.1534E+02
      0.127  0.1269E+02  0.1592E+02
      0.172  0.1334E+02  0.1653E+02
      0.218  0.1380E+02  0.1716E+02
      0.264  0.1402E+02  0.1780E+02
      0.309  0.1400E+02  0.1844E+02
      0.355  0.1376E+02  0.1907E+02
      0.401  0.1331E+02  0.1968E+02
      0.447  0.1275E+02  0.2026E+02
      0.492  0.1227E+02  0.2082E+02
      0.538  0.1218E+02  0.2138E+02
      0.584  0.1279E+02  0.2196E+02
      0.630  0.1426E+02  0.2262E+02
      0.675  0.1640E+02  0.2337E+02
      0.721  0.1869E+02  0.2422E+02
      0.767  0.2043E+02  0.2516E+02
      0.812  0.2119E+02  0.2612E+02
      0.858  0.2098E+02  0.2708E+02
      0.904  0.2026E+02  0.2801E+02
      0.950  0.1953E+02  0.2890E+02
      0.995  0.1898E+02  0.2977E+02
      1.041  0.1843E+02  0.3061E+02
      1.087  0.1766E+02  0.3142E+02
      1.133  0.1679E+02  0.3219E+02
      1.178  0.1648E+02  0.3294E+02
      1.224  0.1750E+02  0.3374E+02
      1.270  0.2025E+02  0.3467E+02
      1.315  0.2432E+02  0.3578E+02
      1.361  0.2864E+02  0.3709E+02
      1.407  0.3188E+02  0.3855E+02
      1.453  0.3310E+02  0.4006E+02
      1.498  0.3212E+02  0.4153E+02
      1.544  0.2973E+02  0.4289E+02
      1.590  0.2741E+02  0.4414E+02
      1.635  0.2687E+02  0.4537E+02
      1.681  0.2946E+02  0.4672E+02
      1.727  0.3573E+02  0.4835E+02
      1.773  0.4526E+02  0.5042E+02
      1.818  0.5691E+02  0.5302E+02
      1.864  0.6923E+02  0.5619E+02
      1.910  0.8094E+02  0.5989E+02
      1.956  0.9104E+02  0.6405E+02
      2.001  0.9876E+02  0.6857E+02
      2.047  0.1035E+03  0.7330E+02
      2.093  0.1052E+03  0.7811E+02
      2.138  0.1044E+03  0.8289E+02
      2.184  0.1024E+03  0.8757E+02
      2.230  0.1008E+03  0.9218E+02
      2.276  0.1010E+03  0.9680E+02
      2.321  0.1032E+03  0.1015E+03
      2.367  0.1065E+03  0.1064E+03
      2.413  0.1100E+03  0.1114E+03
      2.459  0.1129E+03  0.1166E+03
      2.504  0.1155E+03  0.1219E+03
      2.550  0.1189E+03  0.1273E+03
      2.596  0.1240E+03  0.1330E+03
      2.641  0.1304E+03  0.1389E+03
      2.687  0.1371E+03  0.1452E+03
      2.733  0.1428E+03  0.1517E+03
      2.779  0.1472E+03  0.1585E+03
      2.824  0.1508E+03  0.1654E+03
      2.870  0.1547E+03  0.1724E+03
      2.916  0.1590E+03  0.1797E+03
      2.961  0.1632E+03  0.1872E+03
      3.007  0.1662E+03  0.1948E+03
      3.053  0.1673E+03  0.2024E+03
      3.099  0.1662E+03  0.2100E+03
      3.144  0.1635E+03  0.2175E+03
      3.190  0.1598E+03  0.2248E+03
      3.236  0.1559E+03  0.2319E+03
      3.282  0.1524E+03  0.2389E+03
      3.327  0.1501E+03  0.2458E+03
      3.373  0.1491E+03  0.2526E+03
      3.419  0.1495E+03  0.2594E+03
      3.464  0.1504E+03  0.2663E+03
      3.510  0.1508E+03  0.2732E+03
      3.556  0.1497E+03  0.2800E+03
      3.602  0.1468E+03  0.2867E+03
      3.647  0.1428E+03  0.2933E+03
      3.693  0.1388E+03  0.2996E+03
      3.739  0.1359E+03  0.3058E+03
      3.785  0.1346E+03  0.3120E+03
      3.830  0.1345E+03  0.3181E+03
      3.876  0.1341E+03  0.3243E+03
      3.922  0.1324E+03  0.3303E+03
      3.967  0.1294E+03  0.3362E+03
      4.013  0.1264E+03  0.3420E+03
      4.059  0.1256E+03  0.3477E+03
      4.105  0.1282E+03  0.3536E+03
      4.150  0.1342E+03  0.3597E+03
      4.196  0.1423E+03  0.3662E+03
      4.242  0.1511E+03  0.3732E+03
      4.287  0.1599E+03  0.3805E+03
      4.333  0.1686E+03  0.3882E+03
      4.379  0.1765E+03  0.3962E+03
      4.425  0.1824E+03  0.4046E+03
      4.470  0.1848E+03  0.4130E+03
      4.516  0.1833E+03  0.4214E+03
      4.562  0.1788E+03  0.4296E+03
      4.608  0.1740E+03  0.4375E+03
      4.653  0.1718E+03  0.4454E+03
      4.699  0.1745E+03  0.4534E+03
      4.745  0.1827E+03  0.4617E+03
      4.790  0.1948E+03  0.4706E+03
      4.836  0.2081E+03  0.4802E+03
      4.882  0.2193E+03  0.4902E+03
      4.928  0.2263E+03  0.5005E+03
      4.973  0.2288E+03  0.5110E+03
      5.019  0.2279E+03  0.5214E+03
      5.065  0.2256E+03  0.5317E+03
      5.111  0.2243E+03  0.5420E+03
      5.156  0.2254E+03  0.5523E+03
      5.202  0.2298E+03  0.5628E+03
      5.248  0.2373E+03  0.5736E+03
      5.293  0.2466E+03  0.5849E+03
      5.339  0.2551E+03  0.5966E+03
      5.385  0.2593E+03  0.6084E+03
      5.431  0.2563E+03  0.6202E+03
      5.476  0.2452E+03  0.6314E+03
      5.522  0.2281E+03  0.6418E+03
      5.568  0.2087E+03  0.6513E+03
      5.613  0.1912E+03  0.6601E+03
      5.659  0.1778E+03  0.6682E+03
      5.705  0.1684E+03  0.6759E+03
      5.751  0.1612E+03  0.6833E+03
      5.796  0.1546E+03  0.6903E+03
      5.842  0.1482E+03  0.6971E+03
      5.888  0.1432E+03  0.7037E+03
      5.934  0.1415E+03  0.7101E+03
      5.979  0.1441E+03  0.7167E+03
      6.025  0.1510E+03  0.7236E+03
      6.071  0.1605E+03  0.7310E+03
      6.116  0.1705E+03  0.7388E+03
      6.162  0.1792E+03  0.7470E+03
      6.208  0.1861E+03  0.7555E+03
      6.254  0.1917E+03  0.7642E+03
      6.299  0.1972E+03  0.7733E+03
      6.345  0.2027E+03  0.7825E+03
      6.391  0.2074E+03  0.7920E+03
      6.437  0.2101E+03  0.8016E+03
      6.482  0.2103E+03  0.8112E+03
      6.528  0.2088E+03  0.8208E+03
      6.574  0.2068E+03  0.8302E+03
      6.619  0.2048E+03  0.8396E+03
      6.665  0.2019E+03  0.8488E+03
      6.711  0.1964E+03  0.8578E+03
      6.757  0.1879E+03  0.8664E+03
      6.802  0.1780E+03  0.8745E+03
      6.848  0.1697E+03  0.8823E+03
      6.894  0.1659E+03  0.8899E+03
      6.939  0.1673E+03  0.8975E+03
      6.985  0.1721E+03  0.9054E+03
      7.031  0.1776E+03  0.9135E+03
      7.077  0.1817E+03  0.9218E+03
      7.122  0.1842E+03  0.9303E+03
      7.168  0.1861E+03  0.9388E+03
      7.214  0.1889E+03  0.9474E+03
      7.260  0.1934E+03  0.9563E+03
      7.305  0.1998E+03  0.9654E+03
      7.351  0.2066E+03  0.9748E+03
      7.397  0.2116E+03  0.9845E+03
      7.442  0.2111E+03  0.9942E+03
      7.488  0.2013E+03  0.1003E+04
      7.534  0.1801E+03  0.1012E+04
      7.580  0.1481E+03  0.1018E+04
      7.625  0.1096E+03  0.1023E+04
      7.671  0.7082E+02  0.1027E+04
      7.717  0.3777E+02  0.1028E+04
      7.763  0.1414E+02  0.1029E+04
      7.808  0.4653E+00  0.1029E+04
      7.854 -0.5274E+01  0.1029E+04
      7.900 -0.6117E+01  0.1028E+04
      7.945 -0.4790E+01  0.1028E+04
      7.991 -0.3045E+01  0.1028E+04
      8.037 -0.1663E+01  0.1028E+04
      8.083 -0.8009E+00  0.1028E+04
      8.128 -0.3451E+00  0.1028E+04
      8.174 -0.1342E+00  0.1028E+04
      8.220 -0.4734E-01  0.1028E+04
      8.265 -0.1520E-01  0.1028E+04
      8.311 -0.4450E-02  0.1028E+04
      8.357 -0.1187E-02  0.1028E+04
      8.403 -0.2885E-03  0.1028E+04
      8.448 -0.6376E-04  0.1028E+04
      8.494 -0.1279E-04  0.1028E+04
      8.540 -0.2327E-05  0.1028E+04
      8.586 -0.3832E-06  0.1028E+04
      8.631 -0.5704E-07  0.1028E+04
      8.677 -0.7667E-08  0.1028E+04
      8.723 -0.9299E-09  0.1028E+04
      8.768 -0.1017E-09  0.1028E+04
      8.814 -0.1003E-10  0.1028E+04
      8.860 -0.8863E-12  0.1028E+04
      8.906 -0.6950E-13  0.1028E+04
      8.951 -0.5767E-14  0.1028E+04
      8.997  0.0000E+00  0.1028E+04
      9.043  0.0000E+00  0.1028E+04
      9.089  0.0000E+00  0.1028E+04
      9.134  0.0000E+00  0.1028E+04
      9.180  0.0000E+00  0.1028E+04
      9.226  0.0000E+00  0.1028E+04
      9.271  0.0000E+00  0.1028E+04
      9.317  0.0000E+00  0.1028E+04
      9.363  0.0000E+00  0.1028E+04
      9.409  0.0000E+00  0.1028E+04
      9.454  0.0000E+00  0.1028E+04
      9.500  0.0000E+00  0.1028E+04
      9.546  0.0000E+00  0.1028E+04
      9.591  0.0000E+00  0.1028E+04
      9.637  0.0000E+00  0.1028E+04
      9.683  0.0000E+00  0.1028E+04
      9.729  0.0000E+00  0.1028E+04
