<?xml version="1.0" encoding="ISO-8859-1"?>
<modeling>
 <generator>
  <i name="program" type="string">vasp </i>
  <i name="version" type="string">5.4.4.18Apr17-6-g9f103f2a35  </i>
  <i name="subversion" type="string">(build Aug 17 2017 06:00:38) complex            parallel </i>
  <i name="platform" type="string">LinuxIFC </i>
  <i name="date" type="string">2019 07 14 </i>
  <i name="time" type="string">02:32:02 </i>
 </generator>
 <incar>
  <i type="string" name="SYSTEM">Static</i>
  <i type="int" name="ISTART">     0</i>
  <i type="string" name="PREC">normal</i>
  <i type="string" name="ALGO"> Fast</i>
  <i type="int" name="ISPIN">     1</i>
  <i type="int" name="ICHARG">     2</i>
  <i type="int" name="NELM">   400</i>
  <i type="int" name="IBRION">    -1</i>
  <i name="EDIFF">      0.00000100</i>
  <i type="int" name="NSW">     1</i>
  <i type="int" name="ISIF">     2</i>
  <i type="int" name="ISYM">     0</i>
  <i name="ENCUT">    400.00000000</i>
  <i type="int" name="NGX">    72</i>
  <i type="int" name="NGY">    72</i>
  <i type="int" name="NGZ">    72</i>
  <i name="POTIM">      0.50000000</i>
  <i type="string" name="LREAL">Auto</i>
  <i type="logical" name="LWAVE"> F  </i>
  <i type="logical" name="LCHARG"> F  </i>
  <v type="int" name="KPOINT_BSE">    -1     0     0     0</v>
  <i type="int" name="NELM">   400</i>
 </incar>
 <structure name="primitive_cell" >
  <crystal>
   <varray name="basis" >
    <v>      10.33484705       0.00000000       0.00000000 </v>
    <v>       0.00000000      10.33484705       0.00000000 </v>
    <v>       0.00000000       0.00000000      10.33484705 </v>
   </varray>
   <i name="volume">   1103.85533447 </i>
   <varray name="rec_basis" >
    <v>       0.09676002       0.00000000       0.00000000 </v>
    <v>       0.00000000       0.09676002       0.00000000 </v>
    <v>       0.00000000       0.00000000       0.09676002 </v>
   </varray>
  </crystal>
  <varray name="positions" >
   <v>      -0.00016591      -0.00000001       0.00000049 </v>
   <v>      -0.00025300      -0.16641484       0.16641672 </v>
   <v>      -0.00025297       0.16641495       0.16641669 </v>
   <v>      -0.00025300      -0.16641490      -0.16641614 </v>
   <v>      -0.00025292       0.16641498      -0.16641612 </v>
   <v>      -0.16666785      -0.16650154       0.00000053 </v>
   <v>      -0.16666786       0.16650160       0.00000053 </v>
   <v>      -0.16666785       0.00000000       0.16650328 </v>
   <v>      -0.16666787      -0.00000003      -0.16650275 </v>
   <v>       0.16710061      -0.16686091       0.00000048 </v>
   <v>       0.16710061       0.16686100       0.00000051 </v>
   <v>       0.16710058       0.00000002       0.16686275 </v>
   <v>       0.16710061       0.00000000      -0.16686216 </v>
   <v>      -0.33316797      -0.00000005       0.00000050 </v>
   <v>       0.33333455       0.00000001       0.00000051 </v>
   <v>       0.00019329      -0.33376712       0.00000049 </v>
   <v>       0.00019330       0.33376715       0.00000051 </v>
   <v>       0.00019331      -0.00000001       0.33376843 </v>
   <v>       0.00019332      -0.00000002      -0.33376870 </v>
   <v>      -0.33308082      -0.16641498       0.16641659 </v>
   <v>      -0.33308083       0.16641496       0.16641672 </v>
   <v>      -0.33308088      -0.16641500      -0.16641610 </v>
   <v>      -0.33308087       0.16641492      -0.16641619 </v>
   <v>       0.16652587      -0.33319122       0.16655779 </v>
   <v>       0.16652588       0.33319123       0.16655777 </v>
   <v>       0.16652589      -0.33319119      -0.16655718 </v>
   <v>       0.16652587       0.33319122      -0.16655715 </v>
   <v>       0.16652594       0.16655601       0.33319258 </v>
   <v>       0.16652597      -0.16655597       0.33319260 </v>
   <v>       0.16652593       0.16655594      -0.33319286 </v>
   <v>       0.16652596      -0.16655592      -0.33319288 </v>
   <v>      -0.16666769      -0.33376719       0.16686255 </v>
   <v>      -0.16666769       0.33376724       0.16686260 </v>
   <v>      -0.16666769       0.16686084       0.33376851 </v>
   <v>      -0.16666770      -0.16686083       0.33376856 </v>
   <v>      -0.16666778      -0.33376721      -0.16686209 </v>
   <v>      -0.16666773       0.33376728      -0.16686205 </v>
   <v>      -0.16666772       0.16686081      -0.33376883 </v>
   <v>      -0.16666776      -0.16686085      -0.33376886 </v>
   <v>       0.33333535      -0.16865960       0.16866144 </v>
   <v>       0.33333537       0.16865970       0.16866155 </v>
   <v>       0.33333534       0.16865969      -0.16866083 </v>
   <v>       0.33333538      -0.16865965      -0.16866099 </v>
   <v>      -0.00011160      -0.33319181       0.33319313 </v>
   <v>      -0.00011161       0.33319187       0.33319311 </v>
   <v>      -0.00011161      -0.33319180      -0.33319341 </v>
   <v>      -0.00011162       0.33319187      -0.33319340 </v>
   <v>      -0.33352738      -0.33376736       0.00000034 </v>
   <v>      -0.33352739       0.33376746       0.00000043 </v>
   <v>      -0.33352738      -0.00000009       0.33376867 </v>
   <v>      -0.33352738      -0.00000015      -0.33376896 </v>
   <v>       0.33333459      -0.33379054       0.00000039 </v>
   <v>       0.33333459       0.33379056       0.00000046 </v>
   <v>       0.33333459       0.00000002       0.33379199 </v>
   <v>       0.33333459      -0.00000003      -0.33379231 </v>
   <v>       0.49956760      -0.16686093       0.00000040 </v>
   <v>       0.49956760       0.16686101       0.00000048 </v>
   <v>       0.49956762       0.00000002       0.16686269 </v>
   <v>       0.49956760      -0.00000005      -0.16686219 </v>
   <v>      -0.16666777      -0.00000010       0.49999966 </v>
   <v>      -0.16666787      -0.49999999       0.00000043 </v>
   <v>       0.16712482      -0.00000002       0.49999966 </v>
   <v>       0.16712475      -0.49999999       0.00000044 </v>
   <v>       0.00199497      -0.16866096       0.49999965 </v>
   <v>       0.00199487       0.16866091       0.49999975 </v>
   <v>       0.00199492      -0.49999999       0.16866278 </v>
   <v>       0.00199497      -0.49999998      -0.16866212 </v>
   <v>      -0.33322268      -0.33319187       0.33319318 </v>
   <v>      -0.33322274       0.33319189       0.33319335 </v>
   <v>      -0.33322269      -0.33319175      -0.33319343 </v>
   <v>      -0.33322272       0.33319181      -0.33319368 </v>
   <v>       0.33333100      -0.33430540       0.33430700 </v>
   <v>       0.33333109       0.33430542       0.33430705 </v>
   <v>       0.33333104       0.33430531      -0.33430723 </v>
   <v>       0.33333173      -0.33430540      -0.33430858 </v>
   <v>      -0.49985776      -0.33319145       0.16655779 </v>
   <v>      -0.49985776       0.33319150       0.16655784 </v>
   <v>      -0.49985772      -0.33319141      -0.16655722 </v>
   <v>      -0.49985775       0.33319151      -0.16655721 </v>
   <v>      -0.49985780       0.16655602       0.33319288 </v>
   <v>      -0.49985786      -0.16655597       0.33319285 </v>
   <v>      -0.49985783      -0.16655601      -0.33319310 </v>
   <v>      -0.49985780       0.16655599      -0.33319319 </v>
   <v>      -0.16666733      -0.33379055       0.49999961 </v>
   <v>      -0.16666742       0.33379061       0.49999960 </v>
   <v>      -0.16666735       0.49999995       0.33379200 </v>
   <v>      -0.16666734       0.49999999      -0.33379230 </v>
   <v>       0.33333461      -0.16850511       0.49999961 </v>
   <v>       0.33333473       0.16850505       0.49999963 </v>
   <v>       0.33333467      -0.50000000       0.16850700 </v>
   <v>       0.33333463      -0.49999996      -0.16850635 </v>
   <v>       0.16764272      -0.33430565       0.49999855 </v>
   <v>       0.16764265       0.33430571       0.49999860 </v>
   <v>       0.16764252      -0.49999893       0.33430716 </v>
   <v>       0.16764288      -0.49999997      -0.33430834 </v>
   <v>      -0.33532900       0.16866056       0.49999954 </v>
   <v>      -0.33532946      -0.16866238       0.49999949 </v>
   <v>      -0.33532926       0.49999997       0.16866328 </v>
   <v>      -0.33532957       0.49999994      -0.16866382 </v>
   <v>       0.49954334      -0.00000013       0.49999962 </v>
   <v>       0.49954350       0.49999999       0.00000033 </v>
   <v>       0.00183714       0.49999992       0.49999958 </v>
   <v>       0.49902495      -0.33430598       0.49999846 </v>
   <v>       0.49902523       0.33430582       0.49999847 </v>
   <v>       0.49902459      -0.49999935       0.33430987 </v>
   <v>       0.49902436       0.49999997      -0.33431161 </v>
   <v>      -0.33517161       0.49999988       0.49999952 </v>
  </varray>
 </structure>
 <varray name="primitive_index" >
  <v type="int" >        1 </v>
  <v type="int" >        6 </v>
  <v type="int" >        2 </v>
  <v type="int" >       18 </v>
  <v type="int" >       14 </v>
  <v type="int" >      101 </v>
  <v type="int" >      100 </v>
  <v type="int" >       99 </v>
  <v type="int" >      105 </v>
  <v type="int" >       21 </v>
  <v type="int" >       20 </v>
  <v type="int" >       19 </v>
  <v type="int" >       25 </v>
  <v type="int" >       87 </v>
  <v type="int" >       37 </v>
  <v type="int" >        5 </v>
  <v type="int" >        3 </v>
  <v type="int" >        7 </v>
  <v type="int" >       13 </v>
  <v type="int" >       80 </v>
  <v type="int" >       79 </v>
  <v type="int" >       86 </v>
  <v type="int" >       83 </v>
  <v type="int" >       28 </v>
  <v type="int" >       27 </v>
  <v type="int" >       33 </v>
  <v type="int" >       32 </v>
  <v type="int" >       29 </v>
  <v type="int" >       30 </v>
  <v type="int" >       31 </v>
  <v type="int" >       34 </v>
  <v type="int" >       92 </v>
  <v type="int" >       91 </v>
  <v type="int" >       93 </v>
  <v type="int" >       94 </v>
  <v type="int" >       97 </v>
  <v type="int" >       96 </v>
  <v type="int" >       95 </v>
  <v type="int" >       98 </v>
  <v type="int" >       39 </v>
  <v type="int" >       38 </v>
  <v type="int" >       42 </v>
  <v type="int" >       45 </v>
  <v type="int" >       11 </v>
  <v type="int" >        9 </v>
  <v type="int" >       17 </v>
  <v type="int" >       15 </v>
  <v type="int" >       73 </v>
  <v type="int" >       71 </v>
  <v type="int" >       74 </v>
  <v type="int" >       77 </v>
  <v type="int" >       48 </v>
  <v type="int" >       46 </v>
  <v type="int" >       49 </v>
  <v type="int" >       52 </v>
  <v type="int" >       59 </v>
  <v type="int" >       55 </v>
  <v type="int" >       54 </v>
  <v type="int" >       66 </v>
  <v type="int" >       90 </v>
  <v type="int" >       89 </v>
  <v type="int" >       36 </v>
  <v type="int" >       35 </v>
  <v type="int" >       12 </v>
  <v type="int" >        8 </v>
  <v type="int" >        4 </v>
  <v type="int" >       16 </v>
  <v type="int" >       82 </v>
  <v type="int" >       81 </v>
  <v type="int" >       85 </v>
  <v type="int" >       84 </v>
  <v type="int" >       41 </v>
  <v type="int" >       40 </v>
  <v type="int" >       43 </v>
  <v type="int" >       44 </v>
  <v type="int" >       58 </v>
  <v type="int" >       56 </v>
  <v type="int" >       69 </v>
  <v type="int" >       68 </v>
  <v type="int" >       61 </v>
  <v type="int" >       65 </v>
  <v type="int" >       70 </v>
  <v type="int" >       67 </v>
  <v type="int" >      104 </v>
  <v type="int" >      102 </v>
  <v type="int" >      103 </v>
  <v type="int" >      106 </v>
  <v type="int" >       51 </v>
  <v type="int" >       50 </v>
  <v type="int" >       47 </v>
  <v type="int" >       53 </v>
  <v type="int" >       24 </v>
  <v type="int" >       22 </v>
  <v type="int" >       23 </v>
  <v type="int" >       26 </v>
  <v type="int" >       75 </v>
  <v type="int" >       76 </v>
  <v type="int" >       72 </v>
  <v type="int" >       78 </v>
  <v type="int" >       60 </v>
  <v type="int" >       57 </v>
  <v type="int" >       10 </v>
  <v type="int" >       64 </v>
  <v type="int" >       62 </v>
  <v type="int" >       63 </v>
  <v type="int" >      107 </v>
  <v type="int" >       88 </v>
 </varray>
 <kpoints>
  <generation param="Monkhorst-Pack">
   <v type="int" name="divisions">       4        4        4 </v>
   <v name="usershift">      0.00000000       0.00000000       0.00000000 </v>
   <v name="genvec1">      0.25000000       0.00000000       0.00000000 </v>
   <v name="genvec2">      0.00000000       0.25000000       0.00000000 </v>
   <v name="genvec3">      0.00000000       0.00000000       0.25000000 </v>
   <v name="shift">      0.50000000       0.50000000       0.50000000 </v>
  </generation>
  <varray name="kpointlist" >
   <v>       0.12500000       0.12500000       0.12500000 </v>
   <v>       0.37500000       0.12500000       0.12500000 </v>
   <v>      -0.37500000       0.12500000       0.12500000 </v>
   <v>      -0.12500000       0.12500000       0.12500000 </v>
   <v>       0.12500000       0.37500000       0.12500000 </v>
   <v>       0.37500000       0.37500000       0.12500000 </v>
   <v>      -0.37500000       0.37500000       0.12500000 </v>
   <v>      -0.12500000       0.37500000       0.12500000 </v>
   <v>       0.12500000      -0.37500000       0.12500000 </v>
   <v>       0.37500000      -0.37500000       0.12500000 </v>
   <v>      -0.37500000      -0.37500000       0.12500000 </v>
   <v>      -0.12500000      -0.37500000       0.12500000 </v>
   <v>       0.12500000      -0.12500000       0.12500000 </v>
   <v>       0.37500000      -0.12500000       0.12500000 </v>
   <v>      -0.37500000      -0.12500000       0.12500000 </v>
   <v>      -0.12500000      -0.12500000       0.12500000 </v>
   <v>       0.12500000       0.12500000       0.37500000 </v>
   <v>       0.37500000       0.12500000       0.37500000 </v>
   <v>      -0.37500000       0.12500000       0.37500000 </v>
   <v>      -0.12500000       0.12500000       0.37500000 </v>
   <v>       0.12500000       0.37500000       0.37500000 </v>
   <v>       0.37500000       0.37500000       0.37500000 </v>
   <v>      -0.37500000       0.37500000       0.37500000 </v>
   <v>      -0.12500000       0.37500000       0.37500000 </v>
   <v>       0.12500000      -0.37500000       0.37500000 </v>
   <v>       0.37500000      -0.37500000       0.37500000 </v>
   <v>      -0.37500000      -0.37500000       0.37500000 </v>
   <v>      -0.12500000      -0.37500000       0.37500000 </v>
   <v>       0.12500000      -0.12500000       0.37500000 </v>
   <v>       0.37500000      -0.12500000       0.37500000 </v>
   <v>      -0.37500000      -0.12500000       0.37500000 </v>
   <v>      -0.12500000      -0.12500000       0.37500000 </v>
  </varray>
  <varray name="weights" >
   <v>       0.03125000 </v>
   <v>       0.03125000 </v>
   <v>       0.03125000 </v>
   <v>       0.03125000 </v>
   <v>       0.03125000 </v>
   <v>       0.03125000 </v>
   <v>       0.03125000 </v>
   <v>       0.03125000 </v>
   <v>       0.03125000 </v>
   <v>       0.03125000 </v>
   <v>       0.03125000 </v>
   <v>       0.03125000 </v>
   <v>       0.03125000 </v>
   <v>       0.03125000 </v>
   <v>       0.03125000 </v>
   <v>       0.03125000 </v>
   <v>       0.03125000 </v>
   <v>       0.03125000 </v>
   <v>       0.03125000 </v>
   <v>       0.03125000 </v>
   <v>       0.03125000 </v>
   <v>       0.03125000 </v>
   <v>       0.03125000 </v>
   <v>       0.03125000 </v>
   <v>       0.03125000 </v>
   <v>       0.03125000 </v>
   <v>       0.03125000 </v>
   <v>       0.03125000 </v>
   <v>       0.03125000 </v>
   <v>       0.03125000 </v>
   <v>       0.03125000 </v>
   <v>       0.03125000 </v>
  </varray>
 </kpoints>
 <parameters>
  <separator name="general" >
   <i type="string" name="SYSTEM">Static</i>
   <i type="logical" name="LCOMPAT"> F  </i>
  </separator>
  <separator name="electronic" >
   <i type="string" name="PREC">normal</i>
   <i name="ENMAX">    400.00000000</i>
   <i name="ENAUG">    511.36800000</i>
   <i name="EDIFF">      0.00000100</i>
   <i type="int" name="IALGO">    68</i>
   <i type="int" name="IWAVPR">    10</i>
   <i type="int" name="NBANDS">   514</i>
   <i name="NELECT">    856.00000000</i>
   <i type="int" name="TURBO">     0</i>
   <i type="int" name="IRESTART">     0</i>
   <i type="int" name="NREBOOT">     0</i>
   <i type="int" name="NMIN">     0</i>
   <i name="EREF">      0.00000000</i>
   <separator name="electronic smearing" >
    <i type="int" name="ISMEAR">     1</i>
    <i name="SIGMA">      0.20000000</i>
    <i name="KSPACING">      0.50000000</i>
    <i type="logical" name="KGAMMA"> T  </i>
   </separator>
   <separator name="electronic projectors" >
    <i type="logical" name="LREAL"> T  </i>
    <v name="ROPT">     -0.00050000</v>
    <i type="int" name="LMAXPAW">  -100</i>
    <i type="int" name="LMAXMIX">     2</i>
    <i type="logical" name="NLSPLINE"> F  </i>
   </separator>
   <separator name="electronic startup" >
    <i type="int" name="ISTART">     0</i>
    <i type="int" name="ICHARG">     2</i>
    <i type="int" name="INIWAV">     1</i>
   </separator>
   <separator name="electronic spin" >
    <i type="int" name="ISPIN">     1</i>
    <i type="logical" name="LNONCOLLINEAR"> F  </i>
    <v name="MAGMOM">      1.00000000      1.00000000      1.00000000      1.00000000      1.00000000      1.00000000      1.00000000      1.00000000      1.00000000      1.00000000      1.00000000      1.00000000      1.00000000      1.00000000      1.00000000      1.00000000      1.00000000      1.00000000      1.00000000      1.00000000
      1.00000000      1.00000000      1.00000000      1.00000000      1.00000000      1.00000000      1.00000000      1.00000000      1.00000000      1.00000000      1.00000000      1.00000000      1.00000000      1.00000000      1.00000000      1.00000000      1.00000000      1.00000000      1.00000000      1.00000000
      1.00000000      1.00000000      1.00000000      1.00000000      1.00000000      1.00000000      1.00000000      1.00000000      1.00000000      1.00000000      1.00000000      1.00000000      1.00000000      1.00000000      1.00000000      1.00000000      1.00000000      1.00000000      1.00000000      1.00000000
      1.00000000      1.00000000      1.00000000      1.00000000      1.00000000      1.00000000      1.00000000      1.00000000      1.00000000      1.00000000      1.00000000      1.00000000      1.00000000      1.00000000      1.00000000      1.00000000      1.00000000      1.00000000      1.00000000      1.00000000
      1.00000000      1.00000000      1.00000000      1.00000000      1.00000000      1.00000000      1.00000000      1.00000000      1.00000000      1.00000000      1.00000000      1.00000000      1.00000000      1.00000000      1.00000000      1.00000000      1.00000000      1.00000000      1.00000000      1.00000000
      1.00000000      1.00000000      1.00000000      1.00000000      1.00000000      1.00000000      1.00000000</v>
    <i name="NUPDOWN">     -1.00000000</i>
    <i type="logical" name="LSORBIT"> F  </i>
    <v name="SAXIS">      0.00000000      0.00000000      1.00000000</v>
    <i type="logical" name="LSPIRAL"> F  </i>
    <v name="QSPIRAL">      0.00000000      0.00000000      0.00000000</v>
    <i type="logical" name="LZEROZ"> F  </i>
   </separator>
   <separator name="electronic exchange-correlation" >
    <i type="logical" name="LASPH"> F  </i>
    <i type="logical" name="LMETAGGA"> F  </i>
   </separator>
   <separator name="electronic convergence" >
    <i type="int" name="NELM">   400</i>
    <i type="int" name="NELMDL">    -5</i>
    <i type="int" name="NELMIN">     2</i>
    <i name="ENINI">    400.00000000</i>
    <separator name="electronic convergence detail" >
     <i type="logical" name="LDIAG"> T  </i>
     <i type="logical" name="LSUBROT"> F  </i>
     <i name="WEIMIN">      0.00000000</i>
     <i name="EBREAK">      0.00000000</i>
     <i name="DEPER">      0.30000000</i>
     <i type="int" name="NRMM">     4</i>
     <i name="TIME">      0.40000000</i>
    </separator>
   </separator>
   <separator name="electronic mixer" >
    <i name="AMIX">      0.40000000</i>
    <i name="BMIX">      1.00000000</i>
    <i name="AMIN">      0.10000000</i>
    <i name="AMIX_MAG">      1.60000000</i>
    <i name="BMIX_MAG">      1.00000000</i>
    <separator name="electronic mixer details" >
     <i type="int" name="IMIX">     4</i>
     <i type="logical" name="MIXFIRST"> F  </i>
     <i type="int" name="MAXMIX">   -45</i>
     <i name="WC">    100.00000000</i>
     <i type="int" name="INIMIX">     1</i>
     <i type="int" name="MIXPRE">     1</i>
     <i type="int" name="MREMOVE">     5</i>
    </separator>
   </separator>
   <separator name="electronic dipolcorrection" >
    <i type="logical" name="LDIPOL"> F  </i>
    <i type="logical" name="LMONO"> F  </i>
    <i type="int" name="IDIPOL">     0</i>
    <i name="EPSILON">      1.00000000</i>
    <v name="DIPOL">   -100.00000000   -100.00000000   -100.00000000</v>
    <i name="EFIELD">      0.00000000</i>
   </separator>
  </separator>
  <separator name="grids" >
   <i type="int" name="NGX">    72</i>
   <i type="int" name="NGY">    72</i>
   <i type="int" name="NGZ">    72</i>
   <i type="int" name="NGXF">   144</i>
   <i type="int" name="NGYF">   144</i>
   <i type="int" name="NGZF">   144</i>
   <i type="logical" name="ADDGRID"> F  </i>
  </separator>
  <separator name="ionic" >
   <i type="int" name="NSW">     1</i>
   <i type="int" name="IBRION">    -1</i>
   <i type="int" name="MDALGO">     0</i>
   <i type="int" name="ISIF">     2</i>
   <i name="PSTRESS">      0.00000000</i>
   <i name="EDIFFG">      0.00001000</i>
   <i type="int" name="NFREE">     0</i>
   <i name="POTIM">      0.50000000</i>
   <i name="SMASS">     -3.00000000</i>
   <i name="SCALEE">      1.00000000</i>
  </separator>
  <separator name="ionic md" >
   <i name="TEBEG">      0.00010000</i>
   <i name="TEEND">      0.00010000</i>
   <i type="int" name="NBLOCK">     1</i>
   <i type="int" name="KBLOCK">     1</i>
   <i type="int" name="NPACO">   256</i>
   <i name="APACO">     16.00000000</i>
  </separator>
  <separator name="symmetry" >
   <i type="int" name="ISYM">     0</i>
   <i name="SYMPREC">      0.00001000</i>
  </separator>
  <separator name="dos" >
   <i type="int" name="LORBIT">     0</i>
   <v name="RWIGS">     -1.00000000</v>
   <i type="int" name="NEDOS">   301</i>
   <i name="EMIN">     10.00000000</i>
   <i name="EMAX">    -10.00000000</i>
   <i name="EFERMI">      0.00000000</i>
  </separator>
  <separator name="writing" >
   <i type="int" name="NWRITE">     2</i>
   <i type="logical" name="LWAVE"> F  </i>
   <i type="logical" name="LDOWNSAMPLE"> F  </i>
   <i type="logical" name="LCHARG"> F  </i>
   <i type="logical" name="LPARD"> F  </i>
   <i type="logical" name="LVTOT"> F  </i>
   <i type="logical" name="LVHAR"> F  </i>
   <i type="logical" name="LELF"> F  </i>
   <i type="logical" name="LOPTICS"> F  </i>
   <v name="STM">      0.00000000      0.00000000      0.00000000      0.00000000      0.00000000      0.00000000      0.00000000</v>
  </separator>
  <separator name="performance" >
   <i type="int" name="NPAR">     2</i>
   <i type="int" name="NSIM">     4</i>
   <i type="int" name="NBLK">    -1</i>
   <i type="logical" name="LPLANE"> T  </i>
   <i type="logical" name="LSCALAPACK"> T  </i>
   <i type="logical" name="LSCAAWARE"> F  </i>
   <i type="logical" name="LSCALU"> F  </i>
   <i type="logical" name="LASYNC"> F  </i>
   <i type="logical" name="LORBITALREAL"> F  </i>
  </separator>
  <separator name="miscellaneous" >
   <i type="int" name="IDIOT">     3</i>
   <i type="int" name="ISPECIAL">     0</i>
   <i type="logical" name="LMUSIC"> F  </i>
   <v name="POMASS">     55.84700000</v>
   <v name="DARWINR">      0.00000000</v>
   <v name="DARWINV">      1.00000000</v>
   <i type="logical" name="LCORR"> T  </i>
  </separator>
  <i type="logical" name="GGA_COMPAT"> T  </i>
  <i type="logical" name="LBERRY"> F  </i>
  <i type="int" name="ICORELEVEL">     0</i>
  <i type="logical" name="LDAU"> F  </i>
  <i type="int" name="I_CONSTRAINED_M">     0</i>
  <separator name="electronic exchange-correlation" >
   <i type="string" name="GGA">--</i>
   <i type="int" name="VOSKOWN">     0</i>
   <i type="logical" name="LHFCALC"> F  </i>
   <i type="string" name="PRECFOCK"></i>
   <i type="logical" name="LSYMGRAD"> F  </i>
   <i type="logical" name="LHFONE"> F  </i>
   <i type="logical" name="LRHFCALC"> F  </i>
   <i type="logical" name="LTHOMAS"> F  </i>
   <i type="logical" name="LMODELHF"> F  </i>
   <i name="ENCUT4O">     -1.00000000</i>
   <i type="int" name="EXXOEP">     0</i>
   <i type="int" name="FOURORBIT">     0</i>
   <i name="AEXX">      0.00000000</i>
   <i name="HFALPHA">      0.00000000</i>
   <i name="MCALPHA">      0.00000000</i>
   <i name="ALDAX">      1.00000000</i>
   <i name="AGGAX">      1.00000000</i>
   <i name="ALDAC">      1.00000000</i>
   <i name="AGGAC">      1.00000000</i>
   <i type="int" name="NKREDX">     1</i>
   <i type="int" name="NKREDY">     1</i>
   <i type="int" name="NKREDZ">     1</i>
   <i type="logical" name="SHIFTRED"> F  </i>
   <i type="logical" name="ODDONLY"> F  </i>
   <i type="logical" name="EVENONLY"> F  </i>
   <i type="int" name="LMAXFOCK">     0</i>
   <i type="int" name="NMAXFOCKAE">     0</i>
   <i type="logical" name="LFOCKAEDFT"> F  </i>
   <i name="HFSCREEN">      0.00000000</i>
   <i name="HFSCREENC">      0.00000000</i>
   <i type="int" name="NBANDSGWLOW">     0</i>
  </separator>
  <separator name="vdW DFT" >
   <i type="logical" name="LUSE_VDW"> F  </i>
   <i name="Zab_VDW">     -0.84910000</i>
   <i name="PARAM1">      0.12340000</i>
   <i name="PARAM2">      1.00000000</i>
   <i name="PARAM3">      0.00000000</i>
  </separator>
  <separator name="model GW" >
   <i type="int" name="MODEL_GW">     0</i>
   <i name="MODEL_EPS0">      6.18984300</i>
   <i name="MODEL_ALPHA">      1.00000000</i>
  </separator>
  <separator name="linear response parameters" >
   <i type="logical" name="LEPSILON"> F  </i>
   <i type="logical" name="LRPA"> F  </i>
   <i type="logical" name="LNABLA"> F  </i>
   <i type="logical" name="LVEL"> F  </i>
   <i type="int" name="KINTER">     0</i>
   <i name="CSHIFT">      0.10000000</i>
   <i name="OMEGAMAX">     -1.00000000</i>
   <i name="DEG_THRESHOLD">      0.00200000</i>
   <i name="RTIME">     -0.10000000</i>
   <i name="WPLASMAI">      0.00000000</i>
   <v name="DFIELD">      0.00000000      0.00000000      0.00000000</v>
   <v name="WPLASMA">      0.00000000      0.00000000      0.00000000      0.00000000      0.00000000      0.00000000      0.00000000      0.00000000      0.00000000</v>
  </separator>
  <separator name="orbital magnetization" >
   <i type="logical" name="NUCIND"> F  </i>
   <v name="MAGPOS">      0.00000000      0.00000000      0.00000000</v>
   <i type="logical" name="LNICSALL"> T  </i>
   <i type="logical" name="ORBITALMAG"> F  </i>
   <i type="logical" name="LMAGBLOCH"> F  </i>
   <i type="logical" name="LCHIMAG"> F  </i>
   <i type="logical" name="LGAUGE"> T  </i>
   <i type="int" name="MAGATOM">     0</i>
   <v name="MAGDIPOL">      0.00000000      0.00000000      0.00000000</v>
   <v name="AVECCONST">      0.00000000      0.00000000      0.00000000</v>
  </separator>
  <separator name="response functions" >
   <i type="logical" name="LADDER"> F  </i>
   <i type="logical" name="LRPAFORCE"> F  </i>
   <i type="logical" name="LFXC"> F  </i>
   <i type="logical" name="LHARTREE"> T  </i>
   <i type="int" name="IBSE">     0</i>
   <v type="int" name="KPOINT">    -1     0     0     0</v>
   <i type="logical" name="LTCTE"> F  </i>
   <i type="logical" name="LTETE"> F  </i>
   <i type="logical" name="LTRIPLET"> F  </i>
   <i type="logical" name="LFXCEPS"> F  </i>
   <i type="logical" name="LFXHEG"> F  </i>
   <i type="int" name="NATURALO">     2</i>
   <i type="logical" name="L2ORDER"> F  </i>
   <i type="logical" name="LMP2LT"> F  </i>
   <i type="logical" name="LUSEW"> F  </i>
   <i name="ENCUTGW">     -2.00000000</i>
   <i name="ENCUTGWSOFT">     -2.00000000</i>
   <i name="ENCUTLF">     -1.00000000</i>
   <i type="int" name="LMAXMP2">    -1</i>
   <i name="SCISSOR">      0.00000000</i>
   <i type="int" name="NOMEGA">     0</i>
   <i type="int" name="NOMEGAR">     0</i>
   <i type="int" name="NBANDSGW">    -1</i>
   <i type="int" name="NBANDSO">    -1</i>
   <i type="int" name="NBANDSV">    -1</i>
   <i type="int" name="NELM">   400</i>
   <i type="int" name="NELMHF">     1</i>
   <i type="int" name="DIM">     3</i>
   <i type="int" name="ANTIRES">     0</i>
   <i name="OMEGAMAX">    -30.00000000</i>
   <i name="OMEGAMIN">    -30.00000000</i>
   <i name="OMEGATL">   -200.00000000</i>
   <i type="int" name="OMEGAGRID">   140</i>
   <i name="CSHIFT">     -0.10000000</i>
   <i type="logical" name="SELFENERGY"> F  </i>
   <i type="logical" name="LSPECTRAL"> F  </i>
   <i type="logical" name="LSPECTRALGW"> F  </i>
   <i type="logical" name="LSINGLES"> F  </i>
   <i type="logical" name="LFERMIGW"> F  </i>
   <i type="logical" name="ODDONLYGW"> F  </i>
   <i type="logical" name="EVENONLYGW"> F  </i>
   <i type="int" name="NKREDLFX">     1</i>
   <i type="int" name="NKREDLFY">     1</i>
   <i type="int" name="NKREDLFZ">     1</i>
   <i type="int" name="MAXMEM">  2800</i>
   <i type="int" name="TELESCOPE">     0</i>
   <i type="int" name="TAUPAR">     1</i>
   <i type="int" name="OMEGAPAR">    -1</i>
   <i name="LAMBDA">      1.00000000</i>
  </separator>
  <separator name="External order field" >
   <i name="OFIELD_KAPPA">      0.00000000</i>
   <v name="OFIELD_K">      0.00000000      0.00000000      0.00000000</v>
   <i name="OFIELD_Q6_NEAR">      0.00000000</i>
   <i name="OFIELD_Q6_FAR">      0.00000000</i>
   <i name="OFIELD_A">      0.00000000</i>
  </separator>
 </parameters>
 <atominfo>
  <atoms>     107 </atoms>
  <types>       1 </types>
  <array name="atoms" >
   <dimension dim="1">ion</dimension>
   <field type="string">element</field>
   <field type="int">atomtype</field>
   <set>
    <rc><c>Fe</c><c>   1</c></rc>
    <rc><c>Fe</c><c>   1</c></rc>
    <rc><c>Fe</c><c>   1</c></rc>
    <rc><c>Fe</c><c>   1</c></rc>
    <rc><c>Fe</c><c>   1</c></rc>
    <rc><c>Fe</c><c>   1</c></rc>
    <rc><c>Fe</c><c>   1</c></rc>
    <rc><c>Fe</c><c>   1</c></rc>
    <rc><c>Fe</c><c>   1</c></rc>
    <rc><c>Fe</c><c>   1</c></rc>
    <rc><c>Fe</c><c>   1</c></rc>
    <rc><c>Fe</c><c>   1</c></rc>
    <rc><c>Fe</c><c>   1</c></rc>
    <rc><c>Fe</c><c>   1</c></rc>
    <rc><c>Fe</c><c>   1</c></rc>
    <rc><c>Fe</c><c>   1</c></rc>
    <rc><c>Fe</c><c>   1</c></rc>
    <rc><c>Fe</c><c>   1</c></rc>
    <rc><c>Fe</c><c>   1</c></rc>
    <rc><c>Fe</c><c>   1</c></rc>
    <rc><c>Fe</c><c>   1</c></rc>
    <rc><c>Fe</c><c>   1</c></rc>
    <rc><c>Fe</c><c>   1</c></rc>
    <rc><c>Fe</c><c>   1</c></rc>
    <rc><c>Fe</c><c>   1</c></rc>
    <rc><c>Fe</c><c>   1</c></rc>
    <rc><c>Fe</c><c>   1</c></rc>
    <rc><c>Fe</c><c>   1</c></rc>
    <rc><c>Fe</c><c>   1</c></rc>
    <rc><c>Fe</c><c>   1</c></rc>
    <rc><c>Fe</c><c>   1</c></rc>
    <rc><c>Fe</c><c>   1</c></rc>
    <rc><c>Fe</c><c>   1</c></rc>
    <rc><c>Fe</c><c>   1</c></rc>
    <rc><c>Fe</c><c>   1</c></rc>
    <rc><c>Fe</c><c>   1</c></rc>
    <rc><c>Fe</c><c>   1</c></rc>
    <rc><c>Fe</c><c>   1</c></rc>
    <rc><c>Fe</c><c>   1</c></rc>
    <rc><c>Fe</c><c>   1</c></rc>
    <rc><c>Fe</c><c>   1</c></rc>
    <rc><c>Fe</c><c>   1</c></rc>
    <rc><c>Fe</c><c>   1</c></rc>
    <rc><c>Fe</c><c>   1</c></rc>
    <rc><c>Fe</c><c>   1</c></rc>
    <rc><c>Fe</c><c>   1</c></rc>
    <rc><c>Fe</c><c>   1</c></rc>
    <rc><c>Fe</c><c>   1</c></rc>
    <rc><c>Fe</c><c>   1</c></rc>
    <rc><c>Fe</c><c>   1</c></rc>
    <rc><c>Fe</c><c>   1</c></rc>
    <rc><c>Fe</c><c>   1</c></rc>
    <rc><c>Fe</c><c>   1</c></rc>
    <rc><c>Fe</c><c>   1</c></rc>
    <rc><c>Fe</c><c>   1</c></rc>
    <rc><c>Fe</c><c>   1</c></rc>
    <rc><c>Fe</c><c>   1</c></rc>
    <rc><c>Fe</c><c>   1</c></rc>
    <rc><c>Fe</c><c>   1</c></rc>
    <rc><c>Fe</c><c>   1</c></rc>
    <rc><c>Fe</c><c>   1</c></rc>
    <rc><c>Fe</c><c>   1</c></rc>
    <rc><c>Fe</c><c>   1</c></rc>
    <rc><c>Fe</c><c>   1</c></rc>
    <rc><c>Fe</c><c>   1</c></rc>
    <rc><c>Fe</c><c>   1</c></rc>
    <rc><c>Fe</c><c>   1</c></rc>
    <rc><c>Fe</c><c>   1</c></rc>
    <rc><c>Fe</c><c>   1</c></rc>
    <rc><c>Fe</c><c>   1</c></rc>
    <rc><c>Fe</c><c>   1</c></rc>
    <rc><c>Fe</c><c>   1</c></rc>
    <rc><c>Fe</c><c>   1</c></rc>
    <rc><c>Fe</c><c>   1</c></rc>
    <rc><c>Fe</c><c>   1</c></rc>
    <rc><c>Fe</c><c>   1</c></rc>
    <rc><c>Fe</c><c>   1</c></rc>
    <rc><c>Fe</c><c>   1</c></rc>
    <rc><c>Fe</c><c>   1</c></rc>
    <rc><c>Fe</c><c>   1</c></rc>
    <rc><c>Fe</c><c>   1</c></rc>
    <rc><c>Fe</c><c>   1</c></rc>
    <rc><c>Fe</c><c>   1</c></rc>
    <rc><c>Fe</c><c>   1</c></rc>
    <rc><c>Fe</c><c>   1</c></rc>
    <rc><c>Fe</c><c>   1</c></rc>
    <rc><c>Fe</c><c>   1</c></rc>
    <rc><c>Fe</c><c>   1</c></rc>
    <rc><c>Fe</c><c>   1</c></rc>
    <rc><c>Fe</c><c>   1</c></rc>
    <rc><c>Fe</c><c>   1</c></rc>
    <rc><c>Fe</c><c>   1</c></rc>
    <rc><c>Fe</c><c>   1</c></rc>
    <rc><c>Fe</c><c>   1</c></rc>
    <rc><c>Fe</c><c>   1</c></rc>
    <rc><c>Fe</c><c>   1</c></rc>
    <rc><c>Fe</c><c>   1</c></rc>
    <rc><c>Fe</c><c>   1</c></rc>
    <rc><c>Fe</c><c>   1</c></rc>
    <rc><c>Fe</c><c>   1</c></rc>
    <rc><c>Fe</c><c>   1</c></rc>
    <rc><c>Fe</c><c>   1</c></rc>
    <rc><c>Fe</c><c>   1</c></rc>
    <rc><c>Fe</c><c>   1</c></rc>
    <rc><c>Fe</c><c>   1</c></rc>
    <rc><c>Fe</c><c>   1</c></rc>
    <rc><c>Fe</c><c>   1</c></rc>
   </set>
  </array>
  <array name="atomtypes" >
   <dimension dim="1">type</dimension>
   <field type="int">atomspertype</field>
   <field type="string">element</field>
   <field>mass</field>
   <field>valence</field>
   <field type="string">pseudopotential</field>
   <set>
    <rc><c> 107</c><c>Fe</c><c>     55.84700000</c><c>      8.00000000</c><c> PAW_PBE Fe 06Sep2000                   </c></rc>
   </set>
  </array>
 </atominfo>
 <structure name="initialpos" >
  <crystal>
   <varray name="basis" >
    <v>      10.33484705       0.00000000       0.00000000 </v>
    <v>       0.00000000      10.33484705       0.00000000 </v>
    <v>       0.00000000       0.00000000      10.33484705 </v>
   </varray>
   <i name="volume">   1103.85533447 </i>
   <varray name="rec_basis" >
    <v>       0.09676002       0.00000000       0.00000000 </v>
    <v>       0.00000000       0.09676002       0.00000000 </v>
    <v>       0.00000000       0.00000000       0.09676002 </v>
   </varray>
  </crystal>
  <varray name="positions" >
   <v>       0.99983409       0.99999999       0.00000049 </v>
   <v>       0.99974703       0.16641495       0.16641669 </v>
   <v>       0.00019330       0.33376715       0.00000051 </v>
   <v>       0.00199492       0.50000001       0.16866278 </v>
   <v>       0.00019329       0.66623288       0.00000049 </v>
   <v>       0.99974700       0.83358516       0.16641672 </v>
   <v>       0.00019331       0.99999999       0.33376843 </v>
   <v>       0.00199487       0.16866091       0.49999975 </v>
   <v>       0.99988839       0.33319187       0.33319311 </v>
   <v>       0.00183714       0.49999992       0.49999958 </v>
   <v>       0.99988840       0.66680819       0.33319313 </v>
   <v>       0.00199497       0.83133904       0.49999965 </v>
   <v>       0.00019332       0.99999998       0.66623130 </v>
   <v>       0.99974708       0.16641498       0.83358388 </v>
   <v>       0.99988838       0.33319187       0.66680660 </v>
   <v>       0.00199497       0.50000002       0.83133788 </v>
   <v>       0.99988839       0.66680820       0.66680659 </v>
   <v>       0.99974700       0.83358510       0.83358386 </v>
   <v>       0.16710058       0.00000002       0.16686275 </v>
   <v>       0.16710061       0.16686100       0.00000051 </v>
   <v>       0.16710061       0.83313909       0.00000048 </v>
   <v>       0.16764265       0.33430571       0.49999860 </v>
   <v>       0.16764252       0.50000107       0.33430716 </v>
   <v>       0.16764272       0.66569435       0.49999855 </v>
   <v>       0.16710061       0.00000000       0.83313784 </v>
   <v>       0.16764288       0.50000003       0.66569166 </v>
   <v>       0.16652588       0.33319123       0.16655777 </v>
   <v>       0.16652587       0.66680878       0.16655779 </v>
   <v>       0.16652594       0.16655601       0.33319258 </v>
   <v>       0.16652597       0.83344403       0.33319260 </v>
   <v>       0.16652593       0.16655594       0.66680714 </v>
   <v>       0.16652587       0.33319122       0.83344285 </v>
   <v>       0.16652589       0.66680881       0.83344282 </v>
   <v>       0.16652596       0.83344408       0.66680712 </v>
   <v>       0.16712475       0.50000001       0.00000044 </v>
   <v>       0.16712482       0.99999998       0.49999966 </v>
   <v>       0.33333455       0.00000001       0.00000051 </v>
   <v>       0.33333537       0.16865970       0.16866155 </v>
   <v>       0.33333535       0.83134040       0.16866144 </v>
   <v>       0.33333109       0.33430542       0.33430705 </v>
   <v>       0.33333100       0.66569460       0.33430700 </v>
   <v>       0.33333534       0.16865969       0.83133917 </v>
   <v>       0.33333104       0.33430531       0.66569277 </v>
   <v>       0.33333173       0.66569460       0.66569142 </v>
   <v>       0.33333538       0.83134035       0.83133901 </v>
   <v>       0.33333459       0.33379056       0.00000046 </v>
   <v>       0.33333467       0.50000000       0.16850700 </v>
   <v>       0.33333459       0.66620946       0.00000039 </v>
   <v>       0.33333459       0.00000002       0.33379199 </v>
   <v>       0.33333473       0.16850505       0.49999963 </v>
   <v>       0.33333461       0.83149489       0.49999961 </v>
   <v>       0.33333459       0.99999997       0.66620769 </v>
   <v>       0.33333463       0.50000004       0.83149365 </v>
   <v>       0.49956762       0.00000002       0.16686269 </v>
   <v>       0.49956760       0.16686101       0.00000048 </v>
   <v>       0.50014224       0.33319150       0.16655784 </v>
   <v>       0.49954350       0.49999999       0.00000033 </v>
   <v>       0.50014224       0.66680855       0.16655779 </v>
   <v>       0.49956760       0.83313907       0.00000040 </v>
   <v>       0.49954334       0.99999987       0.49999962 </v>
   <v>       0.50014220       0.16655602       0.33319288 </v>
   <v>       0.49902523       0.33430582       0.49999847 </v>
   <v>       0.49902459       0.50000065       0.33430987 </v>
   <v>       0.49902495       0.66569402       0.49999846 </v>
   <v>       0.50014214       0.83344403       0.33319285 </v>
   <v>       0.49956760       0.99999995       0.83313781 </v>
   <v>       0.50014220       0.16655599       0.66680681 </v>
   <v>       0.50014225       0.33319151       0.83344279 </v>
   <v>       0.50014228       0.66680859       0.83344278 </v>
   <v>       0.50014217       0.83344399       0.66680690 </v>
   <v>       0.66647261       0.33376746       0.00000043 </v>
   <v>       0.66467074       0.49999997       0.16866328 </v>
   <v>       0.66647262       0.66623264       0.00000034 </v>
   <v>       0.66647262       0.99999991       0.33376867 </v>
   <v>       0.66467100       0.16866056       0.49999954 </v>
   <v>       0.66467054       0.83133762       0.49999949 </v>
   <v>       0.66647262       0.99999985       0.66623104 </v>
   <v>       0.66467043       0.49999994       0.83133618 </v>
   <v>       0.66691917       0.16641496       0.16641672 </v>
   <v>       0.66691918       0.83358502       0.16641659 </v>
   <v>       0.66677726       0.33319189       0.33319335 </v>
   <v>       0.66677732       0.66680813       0.33319318 </v>
   <v>       0.66691913       0.16641492       0.83358381 </v>
   <v>       0.66677728       0.33319181       0.66680632 </v>
   <v>       0.66677731       0.66680825       0.66680657 </v>
   <v>       0.66691912       0.83358500       0.83358390 </v>
   <v>       0.66683203       0.99999995       0.00000050 </v>
   <v>       0.66482839       0.49999988       0.49999952 </v>
   <v>       0.83333213       0.50000001       0.00000043 </v>
   <v>       0.83333223       0.99999990       0.49999966 </v>
   <v>       0.83333231       0.33376724       0.16686260 </v>
   <v>       0.83333231       0.66623281       0.16686255 </v>
   <v>       0.83333231       0.16686084       0.33376851 </v>
   <v>       0.83333230       0.83313917       0.33376856 </v>
   <v>       0.83333228       0.16686081       0.66623117 </v>
   <v>       0.83333227       0.33376728       0.83313795 </v>
   <v>       0.83333222       0.66623279       0.83313791 </v>
   <v>       0.83333224       0.83313915       0.66623114 </v>
   <v>       0.83333215       0.00000000       0.16650328 </v>
   <v>       0.83333214       0.16650160       0.00000053 </v>
   <v>       0.83333215       0.83349846       0.00000053 </v>
   <v>       0.83333258       0.33379061       0.49999960 </v>
   <v>       0.83333265       0.49999995       0.33379200 </v>
   <v>       0.83333267       0.66620945       0.49999961 </v>
   <v>       0.83333213       0.99999997       0.83349725 </v>
   <v>       0.83333266       0.49999999       0.66620770 </v>
   <v>       0.49902436       0.49999997       0.66568839 </v>
  </varray>
  <varray name="velocities" >
   <v>       0.00000000       0.00000000       0.00000000 </v>
   <v>       0.00000000       0.00000000       0.00000000 </v>
   <v>       0.00000000       0.00000000       0.00000000 </v>
   <v>       0.00000000       0.00000000       0.00000000 </v>
   <v>       0.00000000       0.00000000       0.00000000 </v>
   <v>       0.00000000       0.00000000       0.00000000 </v>
   <v>       0.00000000       0.00000000       0.00000000 </v>
   <v>       0.00000000       0.00000000       0.00000000 </v>
   <v>       0.00000000       0.00000000       0.00000000 </v>
   <v>       0.00000000       0.00000000       0.00000000 </v>
   <v>       0.00000000       0.00000000       0.00000000 </v>
   <v>       0.00000000       0.00000000       0.00000000 </v>
   <v>       0.00000000       0.00000000       0.00000000 </v>
   <v>       0.00000000       0.00000000       0.00000000 </v>
   <v>       0.00000000       0.00000000       0.00000000 </v>
   <v>       0.00000000       0.00000000       0.00000000 </v>
   <v>       0.00000000       0.00000000       0.00000000 </v>
   <v>       0.00000000       0.00000000       0.00000000 </v>
   <v>       0.00000000       0.00000000       0.00000000 </v>
   <v>       0.00000000       0.00000000       0.00000000 </v>
   <v>       0.00000000       0.00000000       0.00000000 </v>
   <v>       0.00000000       0.00000000       0.00000000 </v>
   <v>       0.00000000       0.00000000       0.00000000 </v>
   <v>       0.00000000       0.00000000       0.00000000 </v>
   <v>       0.00000000       0.00000000       0.00000000 </v>
   <v>       0.00000000       0.00000000       0.00000000 </v>
   <v>       0.00000000       0.00000000       0.00000000 </v>
   <v>       0.00000000       0.00000000       0.00000000 </v>
   <v>       0.00000000       0.00000000       0.00000000 </v>
   <v>       0.00000000       0.00000000       0.00000000 </v>
   <v>       0.00000000       0.00000000       0.00000000 </v>
   <v>       0.00000000       0.00000000       0.00000000 </v>
   <v>       0.00000000       0.00000000       0.00000000 </v>
   <v>       0.00000000       0.00000000       0.00000000 </v>
   <v>       0.00000000       0.00000000       0.00000000 </v>
   <v>       0.00000000       0.00000000       0.00000000 </v>
   <v>       0.00000000       0.00000000       0.00000000 </v>
   <v>       0.00000000       0.00000000       0.00000000 </v>
   <v>       0.00000000       0.00000000       0.00000000 </v>
   <v>       0.00000000       0.00000000       0.00000000 </v>
   <v>       0.00000000       0.00000000       0.00000000 </v>
   <v>       0.00000000       0.00000000       0.00000000 </v>
   <v>       0.00000000       0.00000000       0.00000000 </v>
   <v>       0.00000000       0.00000000       0.00000000 </v>
   <v>       0.00000000       0.00000000       0.00000000 </v>
   <v>       0.00000000       0.00000000       0.00000000 </v>
   <v>       0.00000000       0.00000000       0.00000000 </v>
   <v>       0.00000000       0.00000000       0.00000000 </v>
   <v>       0.00000000       0.00000000       0.00000000 </v>
   <v>       0.00000000       0.00000000       0.00000000 </v>
   <v>       0.00000000       0.00000000       0.00000000 </v>
   <v>       0.00000000       0.00000000       0.00000000 </v>
   <v>       0.00000000       0.00000000       0.00000000 </v>
   <v>       0.00000000       0.00000000       0.00000000 </v>
   <v>       0.00000000       0.00000000       0.00000000 </v>
   <v>       0.00000000       0.00000000       0.00000000 </v>
   <v>       0.00000000       0.00000000       0.00000000 </v>
   <v>       0.00000000       0.00000000       0.00000000 </v>
   <v>       0.00000000       0.00000000       0.00000000 </v>
   <v>       0.00000000       0.00000000       0.00000000 </v>
   <v>       0.00000000       0.00000000       0.00000000 </v>
   <v>       0.00000000       0.00000000       0.00000000 </v>
   <v>       0.00000000       0.00000000       0.00000000 </v>
   <v>       0.00000000       0.00000000       0.00000000 </v>
   <v>       0.00000000       0.00000000       0.00000000 </v>
   <v>       0.00000000       0.00000000       0.00000000 </v>
   <v>       0.00000000       0.00000000       0.00000000 </v>
   <v>       0.00000000       0.00000000       0.00000000 </v>
   <v>       0.00000000       0.00000000       0.00000000 </v>
   <v>       0.00000000       0.00000000       0.00000000 </v>
   <v>       0.00000000       0.00000000       0.00000000 </v>
   <v>       0.00000000       0.00000000       0.00000000 </v>
   <v>       0.00000000       0.00000000       0.00000000 </v>
   <v>       0.00000000       0.00000000       0.00000000 </v>
   <v>       0.00000000       0.00000000       0.00000000 </v>
   <v>       0.00000000       0.00000000       0.00000000 </v>
   <v>       0.00000000       0.00000000       0.00000000 </v>
   <v>       0.00000000       0.00000000       0.00000000 </v>
   <v>       0.00000000       0.00000000       0.00000000 </v>
   <v>       0.00000000       0.00000000       0.00000000 </v>
   <v>       0.00000000       0.00000000       0.00000000 </v>
   <v>       0.00000000       0.00000000       0.00000000 </v>
   <v>       0.00000000       0.00000000       0.00000000 </v>
   <v>       0.00000000       0.00000000       0.00000000 </v>
   <v>       0.00000000       0.00000000       0.00000000 </v>
   <v>       0.00000000       0.00000000       0.00000000 </v>
   <v>       0.00000000       0.00000000       0.00000000 </v>
   <v>       0.00000000       0.00000000       0.00000000 </v>
   <v>       0.00000000       0.00000000       0.00000000 </v>
   <v>       0.00000000       0.00000000       0.00000000 </v>
   <v>       0.00000000       0.00000000       0.00000000 </v>
   <v>       0.00000000       0.00000000       0.00000000 </v>
   <v>       0.00000000       0.00000000       0.00000000 </v>
   <v>       0.00000000       0.00000000       0.00000000 </v>
   <v>       0.00000000       0.00000000       0.00000000 </v>
   <v>       0.00000000       0.00000000       0.00000000 </v>
   <v>       0.00000000       0.00000000       0.00000000 </v>
   <v>       0.00000000       0.00000000       0.00000000 </v>
   <v>       0.00000000       0.00000000       0.00000000 </v>
   <v>       0.00000000       0.00000000       0.00000000 </v>
   <v>       0.00000000       0.00000000       0.00000000 </v>
   <v>       0.00000000       0.00000000       0.00000000 </v>
   <v>       0.00000000       0.00000000       0.00000000 </v>
   <v>       0.00000000       0.00000000       0.00000000 </v>
   <v>       0.00000000       0.00000000       0.00000000 </v>
   <v>       0.00000000       0.00000000       0.00000000 </v>
   <v>       0.00000000       0.00000000       0.00000000 </v>
  </varray>
 </structure>
 <calculation>
  <scstep>
   <time name="dav">  341.48  341.57</time>
   <time name="total">  341.89  341.99</time>
   <energy>
    <i name="alphaZ">   7165.75404585 </i>
    <i name="ewald"> -65169.07515156 </i>
    <i name="hartreedc"> -11387.27950999 </i>
    <i name="XCdc">    440.37528034 </i>
    <i name="pawpsdc">  51244.96395782 </i>
    <i name="pawaedc"> -52061.72305433 </i>
    <i name="eentropy">     -0.00137438 </i>
    <i name="bandstr">  13666.27504703 </i>
    <i name="atom">  63607.21096501 </i>
    <i name="e_fr_energy">   7506.50020580 </i>
    <i name="e_wo_entrp">   7506.50158018 </i>
    <i name="e_0_energy">   7506.50066393 </i>
   </energy>
  </scstep>
  <scstep>
   <time name="dav">  338.30  338.37</time>
   <time name="total">  338.35  338.42</time>
   <energy>
    <i name="e_fr_energy">    -25.35900806 </i>
    <i name="e_wo_entrp">    -25.36842342 </i>
    <i name="e_0_energy">    -25.36214651 </i>
   </energy>
  </scstep>
  <scstep>
   <time name="dav">  341.79  341.86</time>
   <time name="total">  341.85  341.92</time>
   <energy>
    <i name="e_fr_energy">   -842.10639049 </i>
    <i name="e_wo_entrp">   -842.11913962 </i>
    <i name="e_0_energy">   -842.11064020 </i>
   </energy>
  </scstep>
  <scstep>
   <time name="dav">  555.45  555.58</time>
   <time name="total">  555.51  555.65</time>
   <energy>
    <i name="e_fr_energy">  -1017.53225370 </i>
    <i name="e_wo_entrp">  -1017.51021655 </i>
    <i name="e_0_energy">  -1017.52490798 </i>
   </energy>
  </scstep>
  <scstep>
   <time name="dav">  498.48  498.59</time>
   <time name="total">  513.58  513.68</time>
   <energy>
    <i name="e_fr_energy">  -1032.55850142 </i>
    <i name="e_wo_entrp">  -1032.50611737 </i>
    <i name="e_0_energy">  -1032.54104007 </i>
   </energy>
  </scstep>
  <scstep>
   <time name="diag">   42.87   42.88</time>
   <time name="diis">  203.27  203.27</time>
   <time name="orth">    8.42    8.42</time>
   <time name="total">  270.90  270.91</time>
   <energy>
    <i name="e_fr_energy">   -879.53664045 </i>
    <i name="e_wo_entrp">   -879.55922156 </i>
    <i name="e_0_energy">   -879.54416749 </i>
   </energy>
  </scstep>
  <scstep>
   <time name="diag">   42.72   42.72</time>
   <time name="diis">  257.88  257.87</time>
   <time name="orth">    8.16    8.16</time>
   <time name="total">  323.78  323.77</time>
   <energy>
    <i name="e_fr_energy">  -1140.80142731 </i>
    <i name="e_wo_entrp">  -1140.77978289 </i>
    <i name="e_0_energy">  -1140.79421251 </i>
   </energy>
  </scstep>
  <scstep>
   <time name="diag">   41.72   41.72</time>
   <time name="diis">  192.21  192.21</time>
   <time name="orth">    8.16    8.16</time>
   <time name="total">  257.11  257.10</time>
   <energy>
    <i name="e_fr_energy">   -878.88917905 </i>
    <i name="e_wo_entrp">   -878.78790937 </i>
    <i name="e_0_energy">   -878.85542249 </i>
   </energy>
  </scstep>
  <scstep>
   <time name="diag">   40.98   40.97</time>
   <time name="diis">  229.37  229.36</time>
   <time name="orth">    8.17    8.17</time>
   <time name="total">  293.55  293.54</time>
   <energy>
    <i name="e_fr_energy">   -870.07335737 </i>
    <i name="e_wo_entrp">   -870.01855564 </i>
    <i name="e_0_energy">   -870.05509013 </i>
   </energy>
  </scstep>
  <scstep>
   <time name="diag">   41.75   41.75</time>
   <time name="diis">  254.18  254.19</time>
   <time name="orth">    8.31    8.31</time>
   <time name="total">  319.67  319.67</time>
   <energy>
    <i name="e_fr_energy">   -872.14091547 </i>
    <i name="e_wo_entrp">   -872.11329965 </i>
    <i name="e_0_energy">   -872.13171019 </i>
   </energy>
  </scstep>
  <scstep>
   <time name="diag">   42.38   42.38</time>
   <time name="diis">  220.60  220.60</time>
   <time name="orth">    8.44    8.44</time>
   <time name="total">  287.35  287.36</time>
   <energy>
    <i name="e_fr_energy">   -869.59527044 </i>
    <i name="e_wo_entrp">   -869.54923942 </i>
    <i name="e_0_energy">   -869.57992676 </i>
   </energy>
  </scstep>
  <scstep>
   <time name="diag">   43.55   43.54</time>
   <time name="diis">  297.72  297.73</time>
   <time name="orth">    8.29    8.29</time>
   <time name="total">  364.71  364.74</time>
   <energy>
    <i name="e_fr_energy">   -869.79265177 </i>
    <i name="e_wo_entrp">   -869.74354788 </i>
    <i name="e_0_energy">   -869.77628381 </i>
   </energy>
  </scstep>
  <scstep>
   <time name="diag">   43.41   43.41</time>
   <time name="diis">  233.95  233.98</time>
   <time name="orth">    8.43    8.43</time>
   <time name="total">  301.76  301.80</time>
   <energy>
    <i name="e_fr_energy">   -869.28638230 </i>
    <i name="e_wo_entrp">   -869.22350649 </i>
    <i name="e_0_energy">   -869.26542370 </i>
   </energy>
  </scstep>
  <scstep>
   <time name="diag">   42.24   42.24</time>
   <time name="diis">  278.11  278.11</time>
   <time name="orth">    8.43    8.43</time>
   <time name="total">  344.57  344.57</time>
   <energy>
    <i name="e_fr_energy">   -869.24287551 </i>
    <i name="e_wo_entrp">   -869.18198309 </i>
    <i name="e_0_energy">   -869.22257804 </i>
   </energy>
  </scstep>
  <scstep>
   <time name="diag">   42.07   42.07</time>
   <time name="diis">  240.08  240.09</time>
   <time name="orth">    8.12    8.12</time>
   <time name="total">  305.68  305.69</time>
   <energy>
    <i name="e_fr_energy">   -869.14791876 </i>
    <i name="e_wo_entrp">   -869.08692514 </i>
    <i name="e_0_energy">   -869.12758755 </i>
   </energy>
  </scstep>
  <scstep>
   <time name="diag">   43.54   43.55</time>
   <time name="diis">  222.69  222.70</time>
   <time name="orth">    8.11    8.11</time>
   <time name="total">  289.72  289.74</time>
   <energy>
    <i name="e_fr_energy">   -869.04193953 </i>
    <i name="e_wo_entrp">   -868.97899465 </i>
    <i name="e_0_energy">   -869.02095790 </i>
   </energy>
  </scstep>
  <scstep>
   <time name="diag">   43.24   43.24</time>
   <time name="diis">  270.42  270.42</time>
   <time name="orth">    8.40    8.40</time>
   <time name="total">  338.23  338.24</time>
   <energy>
    <i name="e_fr_energy">   -869.06887322 </i>
    <i name="e_wo_entrp">   -869.00526145 </i>
    <i name="e_0_energy">   -869.04766930 </i>
   </energy>
  </scstep>
  <scstep>
   <time name="diag">   43.82   43.82</time>
   <time name="diis">  226.58  226.58</time>
   <time name="orth">    8.32    8.33</time>
   <time name="total">  294.84  294.85</time>
   <energy>
    <i name="e_fr_energy">   -869.03298669 </i>
    <i name="e_wo_entrp">   -868.97063990 </i>
    <i name="e_0_energy">   -869.01220442 </i>
   </energy>
  </scstep>
  <scstep>
   <time name="diag">   42.42   42.42</time>
   <time name="diis">  308.14  308.14</time>
   <time name="orth">    8.41    8.41</time>
   <time name="total">  374.32  374.32</time>
   <energy>
    <i name="e_fr_energy">   -869.03705640 </i>
    <i name="e_wo_entrp">   -868.97507454 </i>
    <i name="e_0_energy">   -869.01639578 </i>
   </energy>
  </scstep>
  <scstep>
   <time name="diag">   42.35   42.35</time>
   <time name="diis">  233.73  233.73</time>
   <time name="orth">    8.38    8.38</time>
   <time name="total">  299.73  299.73</time>
   <energy>
    <i name="e_fr_energy">   -869.03492055 </i>
    <i name="e_wo_entrp">   -868.97328292 </i>
    <i name="e_0_energy">   -869.01437468 </i>
   </energy>
  </scstep>
  <scstep>
   <time name="diag">   42.57   42.57</time>
   <time name="diis">  275.45  275.48</time>
   <time name="orth">    8.15    8.15</time>
   <time name="total">  341.43  341.45</time>
   <energy>
    <i name="e_fr_energy">   -869.03436807 </i>
    <i name="e_wo_entrp">   -868.97268521 </i>
    <i name="e_0_energy">   -869.01380712 </i>
   </energy>
  </scstep>
  <scstep>
   <time name="diag">   42.14   42.14</time>
   <time name="diis">  220.89  220.94</time>
   <time name="orth">    8.15    8.16</time>
   <time name="total">  286.23  286.30</time>
   <energy>
    <i name="e_fr_energy">   -869.03355425 </i>
    <i name="e_wo_entrp">   -868.97145096 </i>
    <i name="e_0_energy">   -869.01285316 </i>
   </energy>
  </scstep>
  <scstep>
   <time name="diag">   41.93   41.94</time>
   <time name="diis">  216.16  216.18</time>
   <time name="orth">    8.19    8.19</time>
   <time name="total">  281.52  281.54</time>
   <energy>
    <i name="e_fr_energy">   -869.03187966 </i>
    <i name="e_wo_entrp">   -868.96949548 </i>
    <i name="e_0_energy">   -869.01108493 </i>
   </energy>
  </scstep>
  <scstep>
   <time name="diag">   42.41   42.41</time>
   <time name="diis">  296.26  296.35</time>
   <time name="orth">    8.40    8.40</time>
   <time name="total">  363.07  363.16</time>
   <energy>
    <i name="e_fr_energy">   -869.03201747 </i>
    <i name="e_wo_entrp">   -868.96960031 </i>
    <i name="e_0_energy">   -869.01121175 </i>
   </energy>
  </scstep>
  <scstep>
   <time name="diag">   43.86   43.87</time>
   <time name="diis">  253.78  253.83</time>
   <time name="orth">    8.40    8.40</time>
   <time name="total">  322.00  322.06</time>
   <energy>
    <i name="e_fr_energy">   -869.03189228 </i>
    <i name="e_wo_entrp">   -868.96939934 </i>
    <i name="e_0_energy">   -869.01106130 </i>
   </energy>
  </scstep>
  <scstep>
   <time name="diag">   42.02   42.02</time>
   <time name="diis">  290.15  290.23</time>
   <time name="orth">    8.24    8.24</time>
   <time name="total">  356.02  356.10</time>
   <energy>
    <i name="e_fr_energy">   -869.03188601 </i>
    <i name="e_wo_entrp">   -868.96939228 </i>
    <i name="e_0_energy">   -869.01105477 </i>
   </energy>
  </scstep>
  <scstep>
   <time name="diag">   41.80   41.81</time>
   <time name="diis">  235.69  235.79</time>
   <time name="orth">    8.12    8.12</time>
   <time name="total">  301.21  301.32</time>
   <energy>
    <i name="e_fr_energy">   -869.03186924 </i>
    <i name="e_wo_entrp">   -868.96941613 </i>
    <i name="e_0_energy">   -869.01105154 </i>
   </energy>
  </scstep>
  <scstep>
   <time name="diag">   42.10   42.12</time>
   <time name="diis">  217.31  217.32</time>
   <time name="orth">    8.30    8.30</time>
   <time name="total">  283.32  283.35</time>
   <energy>
    <i name="e_fr_energy">   -869.03184163 </i>
    <i name="e_wo_entrp">   -868.96940847 </i>
    <i name="e_0_energy">   -869.01103058 </i>
   </energy>
  </scstep>
  <scstep>
   <time name="diag">   42.37   42.38</time>
   <time name="diis">  266.36  266.50</time>
   <time name="orth">    8.45    8.46</time>
   <time name="total">  333.39  333.56</time>
   <energy>
    <i name="e_fr_energy">   -869.03184070 </i>
    <i name="e_wo_entrp">   -868.96940871 </i>
    <i name="e_0_energy">   -869.01103004 </i>
   </energy>
  </scstep>
  <scstep>
   <time name="diag">   41.61   41.63</time>
   <time name="diis">  229.57  229.63</time>
   <time name="orth">    8.46    8.47</time>
   <time name="total">  295.56  295.66</time>
   <energy>
    <i name="e_fr_energy">   -869.03182928 </i>
    <i name="e_wo_entrp">   -868.96941961 </i>
    <i name="e_0_energy">   -869.01102606 </i>
   </energy>
  </scstep>
  <scstep>
   <time name="diag">   40.81   40.81</time>
   <time name="diis">  172.91  172.96</time>
   <time name="orth">    8.42    8.42</time>
   <time name="total">  238.11  238.17</time>
   <energy>
    <i name="e_fr_energy">   -869.03182774 </i>
    <i name="e_wo_entrp">   -868.96942264 </i>
    <i name="e_0_energy">   -869.01102604 </i>
   </energy>
  </scstep>
  <scstep>
   <time name="diag">   43.43   43.45</time>
   <time name="diis">  138.81  138.87</time>
   <time name="orth">    8.42    8.42</time>
   <time name="total">  206.77  206.85</time>
   <energy>
    <i name="e_fr_energy">   -869.03182962 </i>
    <i name="e_wo_entrp">   -868.96942711 </i>
    <i name="e_0_energy">   -869.01102878 </i>
   </energy>
  </scstep>
  <scstep>
   <time name="diag">   43.52   43.55</time>
   <time name="diis">  135.33  135.41</time>
   <time name="orth">    8.17    8.17</time>
   <time name="total">  187.45  187.56</time>
   <energy>
    <i name="alphaZ">   7165.75404585 </i>
    <i name="ewald"> -65169.07515156 </i>
    <i name="hartreedc">  -9568.03189167 </i>
    <i name="XCdc">    355.46777683 </i>
    <i name="pawpsdc">  57397.16363067 </i>
    <i name="pawaedc"> -58323.22156982 </i>
    <i name="eentropy">     -0.06240491 </i>
    <i name="bandstr">   3665.76276964 </i>
    <i name="atom">  63607.21096501 </i>
    <i name="e_fr_energy">   -869.03182995 </i>
    <i name="e_wo_entrp">   -868.96942504 </i>
    <i name="e_0_energy">   -869.01102832 </i>
   </energy>
  </scstep>
  <structure>
   <crystal>
    <varray name="basis" >
     <v>      10.33484705       0.00000000       0.00000000 </v>
     <v>       0.00000000      10.33484705       0.00000000 </v>
     <v>       0.00000000       0.00000000      10.33484705 </v>
    </varray>
    <i name="volume">   1103.85533447 </i>
    <varray name="rec_basis" >
     <v>       0.09676002       0.00000000       0.00000000 </v>
     <v>       0.00000000       0.09676002       0.00000000 </v>
     <v>       0.00000000       0.00000000       0.09676002 </v>
    </varray>
   </crystal>
   <varray name="positions" >
    <v>       0.99983409       0.99999999       0.00000049 </v>
    <v>       0.99974703       0.16641495       0.16641669 </v>
    <v>       0.00019330       0.33376715       0.00000051 </v>
    <v>       0.00199492       0.50000001       0.16866278 </v>
    <v>       0.00019329       0.66623288       0.00000049 </v>
    <v>       0.99974700       0.83358516       0.16641672 </v>
    <v>       0.00019331       0.99999999       0.33376843 </v>
    <v>       0.00199487       0.16866091       0.49999975 </v>
    <v>       0.99988839       0.33319187       0.33319311 </v>
    <v>       0.00183714       0.49999992       0.49999958 </v>
    <v>       0.99988840       0.66680819       0.33319313 </v>
    <v>       0.00199497       0.83133904       0.49999965 </v>
    <v>       0.00019332       0.99999998       0.66623130 </v>
    <v>       0.99974708       0.16641498       0.83358388 </v>
    <v>       0.99988838       0.33319187       0.66680660 </v>
    <v>       0.00199497       0.50000002       0.83133788 </v>
    <v>       0.99988839       0.66680820       0.66680659 </v>
    <v>       0.99974700       0.83358510       0.83358386 </v>
    <v>       0.16710058       0.00000002       0.16686275 </v>
    <v>       0.16710061       0.16686100       0.00000051 </v>
    <v>       0.16710061       0.83313909       0.00000048 </v>
    <v>       0.16764265       0.33430571       0.49999860 </v>
    <v>       0.16764252       0.50000107       0.33430716 </v>
    <v>       0.16764272       0.66569435       0.49999855 </v>
    <v>       0.16710061       0.00000000       0.83313784 </v>
    <v>       0.16764288       0.50000003       0.66569166 </v>
    <v>       0.16652588       0.33319123       0.16655777 </v>
    <v>       0.16652587       0.66680878       0.16655779 </v>
    <v>       0.16652594       0.16655601       0.33319258 </v>
    <v>       0.16652597       0.83344403       0.33319260 </v>
    <v>       0.16652593       0.16655594       0.66680714 </v>
    <v>       0.16652587       0.33319122       0.83344285 </v>
    <v>       0.16652589       0.66680881       0.83344282 </v>
    <v>       0.16652596       0.83344408       0.66680712 </v>
    <v>       0.16712475       0.50000001       0.00000044 </v>
    <v>       0.16712482       0.99999998       0.49999966 </v>
    <v>       0.33333455       0.00000001       0.00000051 </v>
    <v>       0.33333537       0.16865970       0.16866155 </v>
    <v>       0.33333535       0.83134040       0.16866144 </v>
    <v>       0.33333109       0.33430542       0.33430705 </v>
    <v>       0.33333100       0.66569460       0.33430700 </v>
    <v>       0.33333534       0.16865969       0.83133917 </v>
    <v>       0.33333104       0.33430531       0.66569277 </v>
    <v>       0.33333173       0.66569460       0.66569142 </v>
    <v>       0.33333538       0.83134035       0.83133901 </v>
    <v>       0.33333459       0.33379056       0.00000046 </v>
    <v>       0.33333467       0.50000000       0.16850700 </v>
    <v>       0.33333459       0.66620946       0.00000039 </v>
    <v>       0.33333459       0.00000002       0.33379199 </v>
    <v>       0.33333473       0.16850505       0.49999963 </v>
    <v>       0.33333461       0.83149489       0.49999961 </v>
    <v>       0.33333459       0.99999997       0.66620769 </v>
    <v>       0.33333463       0.50000004       0.83149365 </v>
    <v>       0.49956762       0.00000002       0.16686269 </v>
    <v>       0.49956760       0.16686101       0.00000048 </v>
    <v>       0.50014224       0.33319150       0.16655784 </v>
    <v>       0.49954350       0.49999999       0.00000033 </v>
    <v>       0.50014224       0.66680855       0.16655779 </v>
    <v>       0.49956760       0.83313907       0.00000040 </v>
    <v>       0.49954334       0.99999987       0.49999962 </v>
    <v>       0.50014220       0.16655602       0.33319288 </v>
    <v>       0.49902523       0.33430582       0.49999847 </v>
    <v>       0.49902459       0.50000065       0.33430987 </v>
    <v>       0.49902495       0.66569402       0.49999846 </v>
    <v>       0.50014214       0.83344403       0.33319285 </v>
    <v>       0.49956760       0.99999995       0.83313781 </v>
    <v>       0.50014220       0.16655599       0.66680681 </v>
    <v>       0.50014225       0.33319151       0.83344279 </v>
    <v>       0.50014228       0.66680859       0.83344278 </v>
    <v>       0.50014217       0.83344399       0.66680690 </v>
    <v>       0.66647261       0.33376746       0.00000043 </v>
    <v>       0.66467074       0.49999997       0.16866328 </v>
    <v>       0.66647262       0.66623264       0.00000034 </v>
    <v>       0.66647262       0.99999991       0.33376867 </v>
    <v>       0.66467100       0.16866056       0.49999954 </v>
    <v>       0.66467054       0.83133762       0.49999949 </v>
    <v>       0.66647262       0.99999985       0.66623104 </v>
    <v>       0.66467043       0.49999994       0.83133618 </v>
    <v>       0.66691917       0.16641496       0.16641672 </v>
    <v>       0.66691918       0.83358502       0.16641659 </v>
    <v>       0.66677726       0.33319189       0.33319335 </v>
    <v>       0.66677732       0.66680813       0.33319318 </v>
    <v>       0.66691913       0.16641492       0.83358381 </v>
    <v>       0.66677728       0.33319181       0.66680632 </v>
    <v>       0.66677731       0.66680825       0.66680657 </v>
    <v>       0.66691912       0.83358500       0.83358390 </v>
    <v>       0.66683203       0.99999995       0.00000050 </v>
    <v>       0.66482839       0.49999988       0.49999952 </v>
    <v>       0.83333213       0.50000001       0.00000043 </v>
    <v>       0.83333223       0.99999990       0.49999966 </v>
    <v>       0.83333231       0.33376724       0.16686260 </v>
    <v>       0.83333231       0.66623281       0.16686255 </v>
    <v>       0.83333231       0.16686084       0.33376851 </v>
    <v>       0.83333230       0.83313917       0.33376856 </v>
    <v>       0.83333228       0.16686081       0.66623117 </v>
    <v>       0.83333227       0.33376728       0.83313795 </v>
    <v>       0.83333222       0.66623279       0.83313791 </v>
    <v>       0.83333224       0.83313915       0.66623114 </v>
    <v>       0.83333215       0.00000000       0.16650328 </v>
    <v>       0.83333214       0.16650160       0.00000053 </v>
    <v>       0.83333215       0.83349846       0.00000053 </v>
    <v>       0.83333258       0.33379061       0.49999960 </v>
    <v>       0.83333265       0.49999995       0.33379200 </v>
    <v>       0.83333267       0.66620945       0.49999961 </v>
    <v>       0.83333213       0.99999997       0.83349725 </v>
    <v>       0.83333266       0.49999999       0.66620770 </v>
    <v>       0.49902436       0.49999997       0.66568839 </v>
   </varray>
  </structure>
  <varray name="forces" >
   <v>      -0.00202880       0.00001448      -0.00004232 </v>
   <v>      -0.00117202      -0.00128882      -0.00142132 </v>
   <v>       0.00347382      -0.00319712      -0.00002303 </v>
   <v>      -0.00031590       0.00001338      -0.00048088 </v>
   <v>       0.00350125       0.00318534      -0.00005570 </v>
   <v>      -0.00115500       0.00127117      -0.00141016 </v>
   <v>       0.00347656      -0.00000048      -0.00327904 </v>
   <v>      -0.00031214      -0.00035971       0.00002897 </v>
   <v>       0.00277428      -0.00001127      -0.00009643 </v>
   <v>      -0.00433060       0.00002454       0.00004309 </v>
   <v>       0.00275569       0.00001525      -0.00009231 </v>
   <v>      -0.00031618       0.00033767       0.00004931 </v>
   <v>       0.00347197      -0.00001597       0.00331686 </v>
   <v>      -0.00118295      -0.00130195       0.00137719 </v>
   <v>       0.00278649      -0.00000118       0.00010507 </v>
   <v>      -0.00029080       0.00003366       0.00041035 </v>
   <v>       0.00279983       0.00000955       0.00011202 </v>
   <v>      -0.00115935       0.00126358       0.00135051 </v>
   <v>      -0.00319295      -0.00000138       0.00321452 </v>
   <v>      -0.00320507       0.00335055      -0.00001946 </v>
   <v>      -0.00319799      -0.00337060      -0.00003643 </v>
   <v>       0.00571701       0.00609707       0.00014134 </v>
   <v>       0.00576047      -0.00008819       0.00604632 </v>
   <v>       0.00567276      -0.00609072       0.00015886 </v>
   <v>      -0.00321275      -0.00001063      -0.00326541 </v>
   <v>       0.00574573       0.00002732      -0.00594309 </v>
   <v>      -0.00007415       0.00002701       0.00244957 </v>
   <v>      -0.00007158      -0.00001940       0.00242897 </v>
   <v>      -0.00008471       0.00258021      -0.00007798 </v>
   <v>      -0.00009567      -0.00258017      -0.00008413 </v>
   <v>      -0.00008601       0.00260344       0.00007650 </v>
   <v>      -0.00006878       0.00004944      -0.00251125 </v>
   <v>      -0.00007469      -0.00004444      -0.00252780 </v>
   <v>      -0.00010940      -0.00262295       0.00009539 </v>
   <v>      -0.00310036       0.00002737      -0.00004102 </v>
   <v>      -0.00315332      -0.00000615       0.00003411 </v>
   <v>      -0.00005832       0.00000161      -0.00002884 </v>
   <v>      -0.00018594      -0.00027166      -0.00040166 </v>
   <v>      -0.00018006       0.00025043      -0.00039762 </v>
   <v>       0.00023016       0.00600072       0.00589663 </v>
   <v>       0.00025442      -0.00597507       0.00585780 </v>
   <v>      -0.00017193      -0.00026656       0.00034830 </v>
   <v>       0.00024089       0.00600041      -0.00588358 </v>
   <v>       0.00016820      -0.00601610      -0.00574779 </v>
   <v>      -0.00018771       0.00023098       0.00033579 </v>
   <v>      -0.00009808      -0.00307169      -0.00002583 </v>
   <v>      -0.00009704       0.00002286      -0.00472893 </v>
   <v>      -0.00010273       0.00306561      -0.00002824 </v>
   <v>      -0.00010495      -0.00000491      -0.00320467 </v>
   <v>      -0.00012792      -0.00459032       0.00003436 </v>
   <v>      -0.00011018       0.00460431       0.00003061 </v>
   <v>      -0.00010511      -0.00000128       0.00322100 </v>
   <v>      -0.00009674       0.00003454       0.00465409 </v>
   <v>       0.00309410      -0.00000634       0.00319528 </v>
   <v>       0.00310459       0.00333662      -0.00003336 </v>
   <v>      -0.00008446       0.00002986       0.00251064 </v>
   <v>       0.00299806       0.00002714      -0.00003534 </v>
   <v>      -0.00007793      -0.00002739       0.00252828 </v>
   <v>       0.00308485      -0.00336244      -0.00002110 </v>
   <v>       0.00302239      -0.00000545       0.00002942 </v>
   <v>      -0.00008364       0.00262181      -0.00011059 </v>
   <v>      -0.00589611       0.00605921       0.00014669 </v>
   <v>      -0.00591054      -0.00003647       0.00582165 </v>
   <v>      -0.00584735      -0.00605298       0.00013094 </v>
   <v>      -0.00006359      -0.00265232      -0.00012317 </v>
   <v>       0.00310485       0.00001356      -0.00324394 </v>
   <v>      -0.00007232       0.00265888       0.00011691 </v>
   <v>      -0.00008248       0.00004015      -0.00259223 </v>
   <v>      -0.00009096      -0.00006557      -0.00259960 </v>
   <v>      -0.00006243      -0.00266689       0.00011161 </v>
   <v>      -0.00342494      -0.00322062      -0.00003164 </v>
   <v>       0.00039066       0.00001825      -0.00045645 </v>
   <v>      -0.00344077       0.00319248      -0.00002684 </v>
   <v>      -0.00341505      -0.00000842      -0.00332112 </v>
   <v>       0.00041709      -0.00031490       0.00003787 </v>
   <v>       0.00044793       0.00043949       0.00003149 </v>
   <v>      -0.00340481       0.00000597       0.00335349 </v>
   <v>       0.00038894       0.00001766       0.00047240 </v>
   <v>       0.00125369      -0.00130848      -0.00144089 </v>
   <v>       0.00123172       0.00128500      -0.00141212 </v>
   <v>      -0.00272863       0.00004383      -0.00008210 </v>
   <v>      -0.00273223      -0.00003488      -0.00008603 </v>
   <v>       0.00124862      -0.00131407       0.00139137 </v>
   <v>      -0.00274790       0.00003170       0.00009909 </v>
   <v>      -0.00275748      -0.00004999       0.00007970 </v>
   <v>       0.00124785       0.00129475       0.00136911 </v>
   <v>       0.00208953       0.00002728      -0.00004056 </v>
   <v>       0.00446909       0.00004133       0.00003668 </v>
   <v>       0.00008751       0.00000640      -0.00004635 </v>
   <v>       0.00012018      -0.00000079       0.00003643 </v>
   <v>       0.00012134      -0.00319095       0.00325500 </v>
   <v>       0.00011192       0.00317412       0.00327556 </v>
   <v>       0.00012876       0.00339195      -0.00328543 </v>
   <v>       0.00011643      -0.00340994      -0.00326976 </v>
   <v>       0.00012134       0.00337778       0.00332626 </v>
   <v>       0.00011421      -0.00319316      -0.00330970 </v>
   <v>       0.00013320       0.00317357      -0.00333237 </v>
   <v>       0.00013830      -0.00341557       0.00330517 </v>
   <v>       0.00009860       0.00001644      -0.00224496 </v>
   <v>       0.00010621      -0.00213169      -0.00003972 </v>
   <v>       0.00011158       0.00212088      -0.00004287 </v>
   <v>       0.00011566      -0.00305535       0.00003305 </v>
   <v>       0.00010039       0.00002687      -0.00316673 </v>
   <v>       0.00010492       0.00305141       0.00003843 </v>
   <v>       0.00010868       0.00001559       0.00220538 </v>
   <v>       0.00010141       0.00003329       0.00319048 </v>
   <v>      -0.00592260       0.00001763      -0.00569604 </v>
  </varray>
  <varray name="stress" >
   <v>      -8.34568011       0.00012384       0.00002801 </v>
   <v>       0.00012384      -8.34363202      -0.00021863 </v>
   <v>       0.00002809      -0.00021865      -8.34559265 </v>
  </varray>
  <energy>
   <i name="e_fr_energy">   -869.03182995 </i>
   <i name="e_wo_entrp">   -869.01102832 </i>
   <i name="e_0_energy">     -0.06240491 </i>
  </energy>
  <time name="totalsc">10995.5610997.39</time>
  <eigenvalues>
   <array>
    <dimension dim="1">band</dimension>
    <dimension dim="2">kpoint</dimension>
    <dimension dim="3">spin</dimension>
    <field>eigene</field>
    <field>occ</field>
    <set>
     <set comment="spin 1">
      <set comment="kpoint 1">
       <r>   -1.9886    1.0000 </r>
       <r>   -0.8827    1.0000 </r>
       <r>   -0.8827    1.0000 </r>
       <r>   -0.8117    1.0000 </r>
       <r>   -0.1988    1.0000 </r>
       <r>   -0.1987    1.0000 </r>
       <r>   -0.1309    1.0000 </r>
       <r>    0.1339    1.0000 </r>
       <r>    0.1339    1.0000 </r>
       <r>    0.2155    1.0000 </r>
       <r>    0.7306    1.0000 </r>
       <r>    0.7395    1.0000 </r>
       <r>    0.7395    1.0000 </r>
       <r>    0.7651    1.0000 </r>
       <r>    0.7651    1.0000 </r>
       <r>    0.8263    1.0000 </r>
       <r>    0.9064    1.0000 </r>
       <r>    1.2572    1.0000 </r>
       <r>    1.2572    1.0000 </r>
       <r>    1.2712    1.0000 </r>
       <r>    1.2908    1.0000 </r>
       <r>    1.2908    1.0000 </r>
       <r>    1.3771    1.0000 </r>
       <r>    1.5250    1.0000 </r>
       <r>    1.5250    1.0000 </r>
       <r>    1.5714    1.0000 </r>
       <r>    1.6736    1.0000 </r>
       <r>    1.7296    1.0000 </r>
       <r>    1.7296    1.0000 </r>
       <r>    1.7597    1.0000 </r>
       <r>    1.8195    1.0000 </r>
       <r>    1.8393    1.0000 </r>
       <r>    1.8393    1.0000 </r>
       <r>    1.9380    1.0000 </r>
       <r>    1.9380    1.0000 </r>
       <r>    1.9633    1.0000 </r>
       <r>    2.2791    1.0000 </r>
       <r>    2.2791    1.0000 </r>
       <r>    2.2792    1.0000 </r>
       <r>    2.3853    1.0000 </r>
       <r>    2.3876    1.0000 </r>
       <r>    2.3876    1.0000 </r>
       <r>    2.4050    1.0000 </r>
       <r>    2.4050    1.0000 </r>
       <r>    2.4096    1.0000 </r>
       <r>    2.4096    1.0000 </r>
       <r>    2.4192    1.0000 </r>
       <r>    2.4267    1.0000 </r>
       <r>    2.4449    1.0000 </r>
       <r>    2.4457    1.0000 </r>
       <r>    2.4457    1.0000 </r>
       <r>    2.4460    1.0000 </r>
       <r>    2.4568    1.0000 </r>
       <r>    2.4568    1.0000 </r>
       <r>    2.4712    1.0000 </r>
       <r>    2.4735    1.0000 </r>
       <r>    2.4735    1.0000 </r>
       <r>    2.5206    1.0000 </r>
       <r>    2.5206    1.0000 </r>
       <r>    2.5436    1.0000 </r>
       <r>    2.5471    1.0000 </r>
       <r>    2.5471    1.0000 </r>
       <r>    2.5680    1.0000 </r>
       <r>    2.5687    1.0000 </r>
       <r>    2.5687    1.0000 </r>
       <r>    2.6413    1.0000 </r>
       <r>    2.6415    1.0000 </r>
       <r>    2.6434    1.0000 </r>
       <r>    2.6434    1.0000 </r>
       <r>    2.6640    1.0000 </r>
       <r>    2.6640    1.0000 </r>
       <r>    2.6759    1.0000 </r>
       <r>    2.6794    1.0000 </r>
       <r>    2.6794    1.0000 </r>
       <r>    2.6802    1.0000 </r>
       <r>    2.7007    1.0000 </r>
       <r>    2.7007    1.0000 </r>
       <r>    2.7071    1.0000 </r>
       <r>    2.7375    1.0000 </r>
       <r>    2.7375    1.0000 </r>
       <r>    2.7389    1.0000 </r>
       <r>    2.7408    1.0000 </r>
       <r>    2.7450    1.0000 </r>
       <r>    2.7450    1.0000 </r>
       <r>    2.7813    1.0000 </r>
       <r>    2.8113    1.0000 </r>
       <r>    2.8113    1.0000 </r>
       <r>    2.8503    1.0000 </r>
       <r>    2.8602    1.0000 </r>
       <r>    2.8602    1.0000 </r>
       <r>    2.9141    1.0000 </r>
       <r>    2.9141    1.0000 </r>
       <r>    2.9579    1.0000 </r>
       <r>    2.9772    1.0000 </r>
       <r>    2.9772    1.0000 </r>
       <r>    2.9961    1.0000 </r>
       <r>    2.9961    1.0000 </r>
       <r>    3.0035    1.0000 </r>
       <r>    3.0099    1.0000 </r>
       <r>    3.0152    1.0000 </r>
       <r>    3.0183    1.0000 </r>
       <r>    3.0183    1.0000 </r>
       <r>    3.0743    1.0000 </r>
       <r>    3.0783    1.0000 </r>
       <r>    3.0783    1.0000 </r>
       <r>    3.0980    1.0000 </r>
       <r>    3.0980    1.0000 </r>
       <r>    3.1190    1.0000 </r>
       <r>    3.1270    1.0000 </r>
       <r>    3.1270    1.0000 </r>
       <r>    3.1897    1.0000 </r>
       <r>    3.2287    1.0000 </r>
       <r>    3.2429    1.0000 </r>
[...]
       <r>     4.4246   182.3950   404.5871 </r>
       <r>     4.4704   184.8381   413.0387 </r>
       <r>     4.5161   183.2697   421.4186 </r>
       <r>     4.5618   178.7892   429.5935 </r>
       <r>     4.6075   173.9522   437.5473 </r>
       <r>     4.6533   171.7825   445.4020 </r>
       <r>     4.6990   174.5237   453.3819 </r>
       <r>     4.7447   182.6943   461.7354 </r>
       <r>     4.7904   194.8340   470.6440 </r>
       <r>     4.8362   208.0682   480.1578 </r>
       <r>     4.8819   219.2749   490.1839 </r>
       <r>     4.9276   226.3221   500.5323 </r>
       <r>     4.9733   228.7843   510.9933 </r>
       <r>     5.0191   227.8530   521.4117 </r>
       <r>     5.0648   225.6255   531.7282 </r>
       <r>     5.1105   224.2541   541.9820 </r>
       <r>     5.1562   225.3586   552.2863 </r>
       <r>     5.2020   229.7601   562.7919 </r>
       <r>     5.2477   237.3085   573.6427 </r>
       <r>     5.2934   246.6424   584.9202 </r>
       <r>     5.3391   255.1045   596.5846 </r>
       <r>     5.3849   259.2728   608.4396 </r>
       <r>     5.4306   256.2597   620.1569 </r>
       <r>     5.4763   245.2211   631.3694 </r>
       <r>     5.5220   228.0666   641.7975 </r>
       <r>     5.5678   208.7142   651.3408 </r>
       <r>     5.6135   191.2009   660.0833 </r>
       <r>     5.6592   177.8075   668.2134 </r>
       <r>     5.7049   168.3804   675.9124 </r>
       <r>     5.7506   161.1841   683.2825 </r>
       <r>     5.7964   154.5570   690.3494 </r>
       <r>     5.8421   148.1857   697.1251 </r>
       <r>     5.8878   143.2433   703.6748 </r>
       <r>     5.9335   141.5026   710.1449 </r>
       <r>     5.9793   144.1422   716.7356 </r>
       <r>     6.0250   150.9780   723.6390 </r>
       <r>     6.0707   160.4726   730.9764 </r>
       <r>     6.1164   170.4561   738.7704 </r>
       <r>     6.1622   179.1706   746.9628 </r>
       <r>     6.2079   186.0562   755.4701 </r>
       <r>     6.2536   191.7470   764.2375 </r>
       <r>     6.2993   197.2210   773.2553 </r>
       <r>     6.3451   202.7312   782.5250 </r>
       <r>     6.3908   207.4388   792.0100 </r>
       <r>     6.4365   210.1195   801.6175 </r>
       <r>     6.4822   210.3114   811.2338 </r>
       <r>     6.5280   208.7871   820.7804 </r>
       <r>     6.5737   206.8138   830.2368 </r>
       <r>     6.6194   204.8439   839.6031 </r>
       <r>     6.6651   201.9103   848.8353 </r>
       <r>     6.7109   196.4457   857.8176 </r>
       <r>     6.7566   187.9375   866.4109 </r>
       <r>     6.8023   177.9820   874.5489 </r>
       <r>     6.8480   169.7111   882.3088 </r>
       <r>     6.8938   165.9123   889.8950 </r>
       <r>     6.9395   167.2737   897.5435 </r>
       <r>     6.9852   172.0932   905.4123 </r>
       <r>     7.0309   177.5917   913.5325 </r>
       <r>     7.0766   181.7303   921.8420 </r>
       <r>     7.1224   184.1962   930.2642 </r>
       <r>     7.1681   186.0857   938.7728 </r>
       <r>     7.2138   188.8596   947.4082 </r>
       <r>     7.2595   193.4372   956.2530 </r>
       <r>     7.3053   199.7664   965.3871 </r>
       <r>     7.3510   206.6455   974.8358 </r>
       <r>     7.3967   211.5963   984.5109 </r>
       <r>     7.4424   211.0524   994.1610 </r>
       <r>     7.4882   201.2909  1003.3649 </r>
       <r>     7.5339   180.0627  1011.5981 </r>
       <r>     7.5796   148.1266  1018.3711 </r>
       <r>     7.6253   109.6260  1023.3836 </r>
       <r>     7.6711    70.8243  1026.6220 </r>
       <r>     7.7168    37.7659  1028.3488 </r>
       <r>     7.7625    14.1434  1028.9955 </r>
       <r>     7.8082     0.4653  1029.0168 </r>
       <r>     7.8540    -5.2744  1028.7756 </r>
       <r>     7.8997    -6.1169  1028.4959 </r>
       <r>     7.9454    -4.7900  1028.2769 </r>
       <r>     7.9911    -3.0446  1028.1377 </r>
       <r>     8.0369    -1.6629  1028.0617 </r>
       <r>     8.0826    -0.8009  1028.0250 </r>
       <r>     8.1283    -0.3451  1028.0093 </r>
       <r>     8.1740    -0.1342  1028.0031 </r>
       <r>     8.2198    -0.0473  1028.0010 </r>
       <r>     8.2655    -0.0152  1028.0003 </r>
       <r>     8.3112    -0.0044  1028.0001 </r>
       <r>     8.3569    -0.0012  1028.0000 </r>
       <r>     8.4026    -0.0003  1028.0000 </r>
       <r>     8.4484    -0.0001  1028.0000 </r>
       <r>     8.4941    -0.0000  1028.0000 </r>
       <r>     8.5398    -0.0000  1028.0000 </r>
       <r>     8.5855    -0.0000  1028.0000 </r>
       <r>     8.6313    -0.0000  1028.0000 </r>
       <r>     8.6770    -0.0000  1028.0000 </r>
       <r>     8.7227    -0.0000  1028.0000 </r>
       <r>     8.7684    -0.0000  1028.0000 </r>
       <r>     8.8142    -0.0000  1028.0000 </r>
       <r>     8.8599    -0.0000  1028.0000 </r>
       <r>     8.9056    -0.0000  1028.0000 </r>
       <r>     8.9513    -0.0000  1028.0000 </r>
       <r>     8.9971     0.0000  1028.0000 </r>
       <r>     9.0428     0.0000  1028.0000 </r>
       <r>     9.0885     0.0000  1028.0000 </r>
       <r>     9.1342     0.0000  1028.0000 </r>
       <r>     9.1800     0.0000  1028.0000 </r>
       <r>     9.2257     0.0000  1028.0000 </r>
       <r>     9.2714     0.0000  1028.0000 </r>
       <r>     9.3171     0.0000  1028.0000 </r>
       <r>     9.3629     0.0000  1028.0000 </r>
       <r>     9.4086     0.0000  1028.0000 </r>
       <r>     9.4543     0.0000  1028.0000 </r>
       <r>     9.5000     0.0000  1028.0000 </r>
       <r>     9.5458     0.0000  1028.0000 </r>
       <r>     9.5915     0.0000  1028.0000 </r>
       <r>     9.6372     0.0000  1028.0000 </r>
       <r>     9.6829     0.0000  1028.0000 </r>
       <r>     9.7286     0.0000  1028.0000 </r>
      </set>
     </set>
    </array>
   </total>
  </dos>
 </calculation>
 <structure name="finalpos" >
  <crystal>
   <varray name="basis" >
    <v>      10.33484705       0.00000000       0.00000000 </v>
    <v>       0.00000000      10.33484705       0.00000000 </v>
    <v>       0.00000000       0.00000000      10.33484705 </v>
   </varray>
   <i name="volume">   1103.85533447 </i>
   <varray name="rec_basis" >
    <v>       0.09676002       0.00000000       0.00000000 </v>
    <v>       0.00000000       0.09676002       0.00000000 </v>
    <v>       0.00000000       0.00000000       0.09676002 </v>
   </varray>
  </crystal>
  <varray name="positions" >
   <v>       0.99983409       0.99999999       0.00000049 </v>
   <v>       0.99974703       0.16641495       0.16641669 </v>
   <v>       0.00019330       0.33376715       0.00000051 </v>
   <v>       0.00199492       0.50000001       0.16866278 </v>
   <v>       0.00019329       0.66623288       0.00000049 </v>
   <v>       0.99974700       0.83358516       0.16641672 </v>
   <v>       0.00019331       0.99999999       0.33376843 </v>
   <v>       0.00199487       0.16866091       0.49999975 </v>
   <v>       0.99988839       0.33319187       0.33319311 </v>
   <v>       0.00183714       0.49999992       0.49999958 </v>
   <v>       0.99988840       0.66680819       0.33319313 </v>
   <v>       0.00199497       0.83133904       0.49999965 </v>
   <v>       0.00019332       0.99999998       0.66623130 </v>
   <v>       0.99974708       0.16641498       0.83358388 </v>
   <v>       0.99988838       0.33319187       0.66680660 </v>
   <v>       0.00199497       0.50000002       0.83133788 </v>
   <v>       0.99988839       0.66680820       0.66680659 </v>
   <v>       0.99974700       0.83358510       0.83358386 </v>
   <v>       0.16710058       0.00000002       0.16686275 </v>
   <v>       0.16710061       0.16686100       0.00000051 </v>
   <v>       0.16710061       0.83313909       0.00000048 </v>
   <v>       0.16764265       0.33430571       0.49999860 </v>
   <v>       0.16764252       0.50000107       0.33430716 </v>
   <v>       0.16764272       0.66569435       0.49999855 </v>
   <v>       0.16710061       0.00000000       0.83313784 </v>
   <v>       0.16764288       0.50000003       0.66569166 </v>
   <v>       0.16652588       0.33319123       0.16655777 </v>
   <v>       0.16652587       0.66680878       0.16655779 </v>
   <v>       0.16652594       0.16655601       0.33319258 </v>
   <v>       0.16652597       0.83344403       0.33319260 </v>
   <v>       0.16652593       0.16655594       0.66680714 </v>
   <v>       0.16652587       0.33319122       0.83344285 </v>
   <v>       0.16652589       0.66680881       0.83344282 </v>
   <v>       0.16652596       0.83344408       0.66680712 </v>
   <v>       0.16712475       0.50000001       0.00000044 </v>
   <v>       0.16712482       0.99999998       0.49999966 </v>
   <v>       0.33333455       0.00000001       0.00000051 </v>
   <v>       0.33333537       0.16865970       0.16866155 </v>
   <v>       0.33333535       0.83134040       0.16866144 </v>
   <v>       0.33333109       0.33430542       0.33430705 </v>
   <v>       0.33333100       0.66569460       0.33430700 </v>
   <v>       0.33333534       0.16865969       0.83133917 </v>
   <v>       0.33333104       0.33430531       0.66569277 </v>
   <v>       0.33333173       0.66569460       0.66569142 </v>
   <v>       0.33333538       0.83134035       0.83133901 </v>
   <v>       0.33333459       0.33379056       0.00000046 </v>
   <v>       0.33333467       0.50000000       0.16850700 </v>
   <v>       0.33333459       0.66620946       0.00000039 </v>
   <v>       0.33333459       0.00000002       0.33379199 </v>
   <v>       0.33333473       0.16850505       0.49999963 </v>
   <v>       0.33333461       0.83149489       0.49999961 </v>
   <v>       0.33333459       0.99999997       0.66620769 </v>
   <v>       0.33333463       0.50000004       0.83149365 </v>
   <v>       0.49956762       0.00000002       0.16686269 </v>
   <v>       0.49956760       0.16686101       0.00000048 </v>
   <v>       0.50014224       0.33319150       0.16655784 </v>
   <v>       0.49954350       0.49999999       0.00000033 </v>
   <v>       0.50014224       0.66680855       0.16655779 </v>
   <v>       0.49956760       0.83313907       0.00000040 </v>
   <v>       0.49954334       0.99999987       0.49999962 </v>
   <v>       0.50014220       0.16655602       0.33319288 </v>
   <v>       0.49902523       0.33430582       0.49999847 </v>
   <v>       0.49902459       0.50000065       0.33430987 </v>
   <v>       0.49902495       0.66569402       0.49999846 </v>
   <v>       0.50014214       0.83344403       0.33319285 </v>
   <v>       0.49956760       0.99999995       0.83313781 </v>
   <v>       0.50014220       0.16655599       0.66680681 </v>
   <v>       0.50014225       0.33319151       0.83344279 </v>
   <v>       0.50014228       0.66680859       0.83344278 </v>
   <v>       0.50014217       0.83344399       0.66680690 </v>
   <v>       0.66647261       0.33376746       0.00000043 </v>
   <v>       0.66467074       0.49999997       0.16866328 </v>
   <v>       0.66647262       0.66623264       0.00000034 </v>
   <v>       0.66647262       0.99999991       0.33376867 </v>
   <v>       0.66467100       0.16866056       0.49999954 </v>
   <v>       0.66467054       0.83133762       0.49999949 </v>
   <v>       0.66647262       0.99999985       0.66623104 </v>
   <v>       0.66467043       0.49999994       0.83133618 </v>
   <v>       0.66691917       0.16641496       0.16641672 </v>
   <v>       0.66691918       0.83358502       0.16641659 </v>
   <v>       0.66677726       0.33319189       0.33319335 </v>
   <v>       0.66677732       0.66680813       0.33319318 </v>
   <v>       0.66691913       0.16641492       0.83358381 </v>
   <v>       0.66677728       0.33319181       0.66680632 </v>
   <v>       0.66677731       0.66680825       0.66680657 </v>
   <v>       0.66691912       0.83358500       0.83358390 </v>
   <v>       0.66683203       0.99999995       0.00000050 </v>
   <v>       0.66482839       0.49999988       0.49999952 </v>
   <v>       0.83333213       0.50000001       0.00000043 </v>
   <v>       0.83333223       0.99999990       0.49999966 </v>
   <v>       0.83333231       0.33376724       0.16686260 </v>
   <v>       0.83333231       0.66623281       0.16686255 </v>
   <v>       0.83333231       0.16686084       0.33376851 </v>
   <v>       0.83333230       0.83313917       0.33376856 </v>
   <v>       0.83333228       0.16686081       0.66623117 </v>
   <v>       0.83333227       0.33376728       0.83313795 </v>
   <v>       0.83333222       0.66623279       0.83313791 </v>
   <v>       0.83333224       0.83313915       0.66623114 </v>
   <v>       0.83333215       0.00000000       0.16650328 </v>
   <v>       0.83333214       0.16650160       0.00000053 </v>
   <v>       0.83333215       0.83349846       0.00000053 </v>
   <v>       0.83333258       0.33379061       0.49999960 </v>
   <v>       0.83333265       0.49999995       0.33379200 </v>
   <v>       0.83333267       0.66620945       0.49999961 </v>
   <v>       0.83333213       0.99999997       0.83349725 </v>
   <v>       0.83333266       0.49999999       0.66620770 </v>
   <v>       0.49902436       0.49999997       0.66568839 </v>
  </varray>
  <varray name="velocities" >
   <v>       0.00000000       0.00000000       0.00000000 </v>
   <v>       0.00000000       0.00000000       0.00000000 </v>
   <v>       0.00000000       0.00000000       0.00000000 </v>
   <v>       0.00000000       0.00000000       0.00000000 </v>
   <v>       0.00000000       0.00000000       0.00000000 </v>
   <v>       0.00000000       0.00000000       0.00000000 </v>
   <v>       0.00000000       0.00000000       0.00000000 </v>
   <v>       0.00000000       0.00000000       0.00000000 </v>
   <v>       0.00000000       0.00000000       0.00000000 </v>
   <v>       0.00000000       0.00000000       0.00000000 </v>
   <v>       0.00000000       0.00000000       0.00000000 </v>
   <v>       0.00000000       0.00000000       0.00000000 </v>
   <v>       0.00000000       0.00000000       0.00000000 </v>
   <v>       0.00000000       0.00000000       0.00000000 </v>
   <v>       0.00000000       0.00000000       0.00000000 </v>
   <v>       0.00000000       0.00000000       0.00000000 </v>
   <v>       0.00000000       0.00000000       0.00000000 </v>
   <v>       0.00000000       0.00000000       0.00000000 </v>
   <v>       0.00000000       0.00000000       0.00000000 </v>
   <v>       0.00000000       0.00000000       0.00000000 </v>
   <v>       0.00000000       0.00000000       0.00000000 </v>
   <v>       0.00000000       0.00000000       0.00000000 </v>
   <v>       0.00000000       0.00000000       0.00000000 </v>
   <v>       0.00000000       0.00000000       0.00000000 </v>
   <v>       0.00000000       0.00000000       0.00000000 </v>
   <v>       0.00000000       0.00000000       0.00000000 </v>
   <v>       0.00000000       0.00000000       0.00000000 </v>
   <v>       0.00000000       0.00000000       0.00000000 </v>
   <v>       0.00000000       0.00000000       0.00000000 </v>
   <v>       0.00000000       0.00000000       0.00000000 </v>
   <v>       0.00000000       0.00000000       0.00000000 </v>
   <v>       0.00000000       0.00000000       0.00000000 </v>
   <v>       0.00000000       0.00000000       0.00000000 </v>
   <v>       0.00000000       0.00000000       0.00000000 </v>
   <v>       0.00000000       0.00000000       0.00000000 </v>
   <v>       0.00000000       0.00000000       0.00000000 </v>
   <v>       0.00000000       0.00000000       0.00000000 </v>
   <v>       0.00000000       0.00000000       0.00000000 </v>
   <v>       0.00000000       0.00000000       0.00000000 </v>
   <v>       0.00000000       0.00000000       0.00000000 </v>
   <v>       0.00000000       0.00000000       0.00000000 </v>
   <v>       0.00000000       0.00000000       0.00000000 </v>
   <v>       0.00000000       0.00000000       0.00000000 </v>
   <v>       0.00000000       0.00000000       0.00000000 </v>
   <v>       0.00000000       0.00000000       0.00000000 </v>
   <v>       0.00000000       0.00000000       0.00000000 </v>
   <v>       0.00000000       0.00000000       0.00000000 </v>
   <v>       0.00000000       0.00000000       0.00000000 </v>
   <v>       0.00000000       0.00000000       0.00000000 </v>
   <v>       0.00000000       0.00000000       0.00000000 </v>
   <v>       0.00000000       0.00000000       0.00000000 </v>
   <v>       0.00000000       0.00000000       0.00000000 </v>
   <v>       0.00000000       0.00000000       0.00000000 </v>
   <v>       0.00000000       0.00000000       0.00000000 </v>
   <v>       0.00000000       0.00000000       0.00000000 </v>
   <v>       0.00000000       0.00000000       0.00000000 </v>
   <v>       0.00000000       0.00000000       0.00000000 </v>
   <v>       0.00000000       0.00000000       0.00000000 </v>
   <v>       0.00000000       0.00000000       0.00000000 </v>
   <v>       0.00000000       0.00000000       0.00000000 </v>
   <v>       0.00000000       0.00000000       0.00000000 </v>
   <v>       0.00000000       0.00000000       0.00000000 </v>
   <v>       0.00000000       0.00000000       0.00000000 </v>
   <v>       0.00000000       0.00000000       0.00000000 </v>
   <v>       0.00000000       0.00000000       0.00000000 </v>
   <v>       0.00000000       0.00000000       0.00000000 </v>
   <v>       0.00000000       0.00000000       0.00000000 </v>
   <v>       0.00000000       0.00000000       0.00000000 </v>
   <v>       0.00000000       0.00000000       0.00000000 </v>
   <v>       0.00000000       0.00000000       0.00000000 </v>
   <v>       0.00000000       0.00000000       0.00000000 </v>
   <v>       0.00000000       0.00000000       0.00000000 </v>
   <v>       0.00000000       0.00000000       0.00000000 </v>
   <v>       0.00000000       0.00000000       0.00000000 </v>
   <v>       0.00000000       0.00000000       0.00000000 </v>
   <v>       0.00000000       0.00000000       0.00000000 </v>
   <v>       0.00000000       0.00000000       0.00000000 </v>
   <v>       0.00000000       0.00000000       0.00000000 </v>
   <v>       0.00000000       0.00000000       0.00000000 </v>
   <v>       0.00000000       0.00000000       0.00000000 </v>
   <v>       0.00000000       0.00000000       0.00000000 </v>
   <v>       0.00000000       0.00000000       0.00000000 </v>
   <v>       0.00000000       0.00000000       0.00000000 </v>
   <v>       0.00000000       0.00000000       0.00000000 </v>
   <v>       0.00000000       0.00000000       0.00000000 </v>
   <v>       0.00000000       0.00000000       0.00000000 </v>
   <v>       0.00000000       0.00000000       0.00000000 </v>
   <v>       0.00000000       0.00000000       0.00000000 </v>
   <v>       0.00000000       0.00000000       0.00000000 </v>
   <v>       0.00000000       0.00000000       0.00000000 </v>
   <v>       0.00000000       0.00000000       0.00000000 </v>
   <v>       0.00000000       0.00000000       0.00000000 </v>
   <v>       0.00000000       0.00000000       0.00000000 </v>
   <v>       0.00000000       0.00000000       0.00000000 </v>
   <v>       0.00000000       0.00000000       0.00000000 </v>
   <v>       0.00000000       0.00000000       0.00000000 </v>
   <v>       0.00000000       0.00000000       0.00000000 </v>
   <v>       0.00000000       0.00000000       0.00000000 </v>
   <v>       0.00000000       0.00000000       0.00000000 </v>
   <v>       0.00000000       0.00000000       0.00000000 </v>
   <v>       0.00000000       0.00000000       0.00000000 </v>
   <v>       0.00000000       0.00000000       0.00000000 </v>
   <v>       0.00000000       0.00000000       0.00000000 </v>
   <v>       0.00000000       0.00000000       0.00000000 </v>
   <v>       0.00000000       0.00000000       0.00000000 </v>
   <v>       0.00000000       0.00000000       0.00000000 </v>
   <v>       0.00000000       0.00000000       0.00000000 </v>
  </varray>
 </structure>
</modeling>
