Static                                  
           1
    10.334847    0.000000    0.000000
     0.000000   10.334847    0.000000
     0.000000    0.000000   10.334847
   Fe
 107
Direct configuration=     1
   0.99983409  0.99999999  0.00000049
   0.99974703  0.16641495  0.16641669
   0.00019330  0.33376715  0.00000051
   0.00199492  0.50000001  0.16866278
   0.00019329  0.66623288  0.00000049
   0.99974700  0.83358516  0.16641672
   0.00019331  0.99999999  0.33376843
   0.00199487  0.16866091  0.49999975
   0.99988839  0.33319187  0.33319311
   0.00183714  0.49999992  0.49999958
   0.99988840  0.66680819  0.33319313
   0.00199497  0.83133904  0.49999965
   0.00019332  0.99999998  0.66623130
   0.99974708  0.16641498  0.83358388
   0.99988838  0.33319187  0.66680660
   0.00199497  0.50000002  0.83133788
   0.99988839  0.66680820  0.66680659
   0.99974700  0.83358510  0.83358386
   0.16710058  0.00000002  0.16686275
   0.16710061  0.16686100  0.00000051
   0.16710061  0.83313909  0.00000048
   0.16764265  0.33430571  0.49999860
   0.16764252  0.50000107  0.33430716
   0.16764272  0.66569435  0.49999855
   0.16710061  0.00000000  0.83313784
   0.16764288  0.50000003  0.66569166
   0.16652588  0.33319123  0.16655777
   0.16652587  0.66680878  0.16655779
   0.16652594  0.16655601  0.33319258
   0.16652597  0.83344403  0.33319260
   0.16652593  0.16655594  0.66680714
   0.16652587  0.33319122  0.83344285
   0.16652589  0.66680881  0.83344282
   0.16652596  0.83344408  0.66680712
   0.16712475  0.50000001  0.00000044
   0.16712482  0.99999998  0.49999966
   0.33333455  0.00000001  0.00000051
   0.33333537  0.16865970  0.16866155
   0.33333535  0.83134040  0.16866144
   0.33333109  0.33430542  0.33430705
   0.33333100  0.66569460  0.33430700
   0.33333534  0.16865969  0.83133917
   0.33333104  0.33430531  0.66569277
   0.33333173  0.66569460  0.66569142
   0.33333538  0.83134035  0.83133901
   0.33333459  0.33379056  0.00000046
   0.33333467  0.50000000  0.16850700
   0.33333459  0.66620946  0.00000039
   0.33333459  0.00000002  0.33379199
   0.33333473  0.16850505  0.49999963
   0.33333461  0.83149489  0.49999961
   0.33333459  0.99999997  0.66620769
   0.33333463  0.50000004  0.83149365
   0.49956762  0.00000002  0.16686269
   0.49956760  0.16686101  0.00000048
   0.50014224  0.33319150  0.16655784
   0.49954350  0.49999999  0.00000033
   0.50014224  0.66680855  0.16655779
   0.49956760  0.83313907  0.00000040
   0.49954334  0.99999987  0.49999962
   0.50014220  0.16655602  0.33319288
   0.49902523  0.33430582  0.49999847
   0.49902459  0.50000065  0.33430987
   0.49902495  0.66569402  0.49999846
   0.50014214  0.83344403  0.33319285
   0.49956760  0.99999995  0.83313781
   0.50014220  0.16655599  0.66680681
   0.50014225  0.33319151  0.83344279
   0.50014228  0.66680859  0.83344278
   0.50014217  0.83344399  0.66680690
   0.66647261  0.33376746  0.00000043
   0.66467074  0.49999997  0.16866328
   0.66647262  0.66623264  0.00000034
   0.66647262  0.99999991  0.33376867
   0.66467100  0.16866056  0.49999954
   0.66467054  0.83133762  0.49999949
   0.66647262  0.99999985  0.66623104
   0.66467043  0.49999994  0.83133618
   0.66691917  0.16641496  0.16641672
   0.66691918  0.83358502  0.16641659
   0.66677726  0.33319189  0.33319335
   0.66677732  0.66680813  0.33319318
   0.66691913  0.16641492  0.83358381
   0.66677728  0.33319181  0.66680632
   0.66677731  0.66680825  0.66680657
   0.66691912  0.83358500  0.83358390
   0.66683203  0.99999995  0.00000050
   0.66482839  0.49999988  0.49999952
   0.83333213  0.50000001  0.00000043
   0.83333223  0.99999990  0.49999966
   0.83333231  0.33376724  0.16686260
   0.83333231  0.66623281  0.16686255
   0.83333231  0.16686084  0.33376851
   0.83333230  0.83313917  0.33376856
   0.83333228  0.16686081  0.66623117
   0.83333227  0.33376728  0.83313795
   0.83333222  0.66623279  0.83313791
   0.83333224  0.83313915  0.66623114
   0.83333215  0.00000000  0.16650328
   0.83333214  0.16650160  0.00000053
   0.83333215  0.83349846  0.00000053
   0.83333258  0.33379061  0.49999960
   0.83333265  0.49999995  0.33379200
   0.83333267  0.66620945  0.49999961
   0.83333213  0.99999997  0.83349725
   0.83333266  0.49999999  0.66620770
   0.49902436  0.49999997  0.66568839
