       N       E                     dE             d eps       ncg     rms          rms(c)
DAV:   1     0.750911384547E+04    0.75091E+04   -0.28619E+05 32936   0.183E+03
DAV:   2    -0.263043831333E+02   -0.75354E+04   -0.73676E+04 32896   0.456E+02
DAV:   3    -0.842071431240E+03   -0.81577E+03   -0.69699E+03 33104   0.190E+02
DAV:   4    -0.101755701754E+04   -0.17549E+03   -0.16457E+03 59936   0.569E+01
DAV:   5    -0.103259332300E+04   -0.15036E+02   -0.14185E+02 52600   0.217E+01    0.931E+01
RMM:   6    -0.886753888147E+03    0.14584E+03   -0.14288E+03 32896   0.112E+02    0.439E+01
RMM:   7    -0.117707233484E+04   -0.29032E+03   -0.37954E+02 44016   0.286E+01    0.178E+02
RMM:   8    -0.875924723943E+03    0.30115E+03   -0.22183E+02 32896   0.425E+01    0.412E+01
RMM:   9    -0.869935425130E+03    0.59893E+01   -0.69680E+01 37115   0.160E+01    0.165E+01
RMM:  10    -0.873268902161E+03   -0.33335E+01   -0.36478E+01 47416   0.741E+00    0.248E+01
RMM:  11    -0.870922052745E+03    0.23468E+01   -0.10504E+01 36678   0.634E+00    0.152E+01
RMM:  12    -0.870688171461E+03    0.23388E+00   -0.55943E+00 47776   0.287E+00    0.149E+01
RMM:  13    -0.869383237426E+03    0.13049E+01   -0.29895E+00 34218   0.411E+00    0.767E+00
RMM:  14    -0.869454083142E+03   -0.70846E-01   -0.24167E+00 47079   0.154E+00    0.839E+00
RMM:  15    -0.869328708861E+03    0.12537E+00   -0.57073E-01 38161   0.137E+00    0.820E+00
RMM:  16    -0.869183948933E+03    0.14476E+00   -0.29607E-01 35846   0.110E+00    0.683E+00
RMM:  17    -0.869063711872E+03    0.12024E+00   -0.36939E-01 33783   0.139E+00    0.479E+00
RMM:  18    -0.868956673015E+03    0.10704E+00   -0.30409E-01 36096   0.113E+00    0.924E-01
RMM:  19    -0.868969911083E+03   -0.13238E-01   -0.17621E-01 49167   0.386E-01    0.928E-01
RMM:  20    -0.868975999036E+03   -0.60880E-02   -0.56106E-02 41938   0.328E-01    0.147E+00
RMM:  21    -0.868973502569E+03    0.24965E-02   -0.18963E-02 40381   0.219E-01    0.133E+00
RMM:  22    -0.868972268132E+03    0.12344E-02   -0.95891E-03 42118   0.153E-01    0.126E+00
RMM:  23    -0.868966537133E+03    0.57310E-02   -0.96855E-03 33544   0.247E-01    0.643E-01
RMM:  24    -0.868966337745E+03    0.19939E-03   -0.55114E-03 47356   0.896E-02    0.546E-01
RMM:  25    -0.868965027244E+03    0.13105E-02   -0.27711E-03 39252   0.881E-02    0.201E-01
RMM:  26    -0.868964997513E+03    0.29731E-04   -0.12656E-03 48219   0.366E-02    0.105E-01
RMM:  27    -0.868964979403E+03    0.18110E-04   -0.27825E-04 44096   0.222E-02    0.880E-02
RMM:  28    -0.868964926195E+03    0.53208E-04   -0.10003E-04 40559   0.188E-02    0.362E-02
RMM:  29    -0.868964919225E+03    0.69698E-05   -0.11331E-05 46376   0.106E-02    0.369E-02
RMM:  30    -0.868964897061E+03    0.22165E-04    0.29122E-05 33611   0.104E-02    0.240E-02
RMM:  31    -0.868964888643E+03    0.84180E-05    0.40193E-05 28855   0.536E-03    0.103E-02
RMM:  32    -0.868964884856E+03    0.37869E-05    0.35738E-05 21862   0.357E-03    0.127E-02
RMM:  33    -0.868964880788E+03    0.40684E-05    0.34542E-05 19603   0.412E-03    0.421E-03
RMM:  34    -0.868964877640E+03    0.31480E-05    0.31758E-05 18797   0.134E-03    0.347E-03
RMM:  35    -0.868964875575E+03    0.20649E-05    0.30148E-05 18496   0.160E-03    0.369E-03
RMM:  36    -0.868964873412E+03    0.21625E-05    0.27205E-05 18451   0.126E-03    0.177E-03
RMM:  37    -0.868964871438E+03    0.19738E-05    0.25590E-05 17717   0.812E-04    0.181E-03
RMM:  38    -0.868964869344E+03    0.20945E-05    0.23070E-05 17570   0.855E-04    0.573E-04
RMM:  39    -0.868964867191E+03    0.21525E-05    0.21573E-05  9086   0.456E-04    0.709E-04
RMM:  40    -0.868964865259E+03    0.19319E-05    0.19467E-05  8992   0.497E-04    0.359E-04
RMM:  41    -0.868964863422E+03    0.18373E-05    0.18098E-05  6967   0.380E-04    0.224E-04
RMM:  42    -0.868964861742E+03    0.16799E-05    0.16508E-05  7094   0.425E-04    0.288E-04
RMM:  43    -0.868964860203E+03    0.15392E-05    0.15117E-05  6917   0.378E-04    0.945E-05
RMM:  44    -0.868964858796E+03    0.14072E-05    0.13848E-05  6658   0.392E-04    0.120E-04
RMM:  45    -0.868964857488E+03    0.13078E-05    0.12774E-05  6461   0.359E-04    0.684E-05
RMM:  46    -0.868964856337E+03    0.11505E-05    0.11353E-05  6297   0.363E-04    0.716E-05
RMM:  47    -0.868964855280E+03    0.10575E-05    0.10449E-05  5975   0.339E-04    0.852E-05
RMM:  48    -0.868964854288E+03    0.99192E-06    0.98160E-06  5970   0.340E-04
   1 F= -.86896485E+03 E0= -.86894396E+03  d E =-.868965E+03
       N       E                     dE             d eps       ncg     rms          rms(c)
DAV:   1    -0.869004075977E+03   -0.39221E-01   -0.11134E+01 34240   0.472E+00    0.111E+00
RMM:   2    -0.869836413400E+03   -0.83234E+00   -0.19545E+00 36843   0.283E+00    0.126E+01
RMM:   3    -0.869029461949E+03    0.80695E+00   -0.49011E-01 32896   0.198E+00    0.183E+00
RMM:   4    -0.869010078638E+03    0.19383E-01   -0.18184E-01 43216   0.466E-01    0.656E-01
RMM:   5    -0.869016755480E+03   -0.66768E-02   -0.62355E-02 44918   0.292E-01    0.109E+00
RMM:   6    -0.869011018455E+03    0.57370E-02   -0.18937E-02 36458   0.251E-01    0.338E-01
RMM:   7    -0.869014400726E+03   -0.33823E-02   -0.18218E-02 38333   0.244E-01    0.895E-01
RMM:   8    -0.869010230606E+03    0.41701E-02   -0.57256E-03 32974   0.194E-01    0.248E-01
RMM:   9    -0.869010462691E+03   -0.23208E-03   -0.36666E-03 42137   0.927E-02    0.295E-01
RMM:  10    -0.869010071324E+03    0.39137E-03   -0.97192E-04 35780   0.652E-02    0.908E-02
RMM:  11    -0.869010082492E+03   -0.11167E-04   -0.58615E-04 48657   0.233E-02    0.659E-02
RMM:  12    -0.869010089596E+03   -0.71046E-05   -0.10605E-04 36626   0.205E-02    0.767E-02
RMM:  13    -0.869010060775E+03    0.28821E-04   -0.47277E-05 33903   0.177E-02    0.189E-02
RMM:  14    -0.869010070087E+03   -0.93119E-05   -0.53475E-05 40698   0.124E-02    0.432E-02
RMM:  15    -0.869010062097E+03    0.79902E-05   -0.14717E-05 33388   0.987E-03    0.157E-02
RMM:  16    -0.869010061919E+03    0.17788E-06   -0.46692E-06 28783   0.344E-03
   2 F= -.86901006E+03 E0= -.86898926E+03  d E =-.452076E-01
       N       E                     dE             d eps       ncg     rms          rms(c)
DAV:   1    -0.869018666325E+03   -0.86042E-02   -0.12973E+01 32904   0.510E+00    0.120E+00
RMM:   2    -0.869993354176E+03   -0.97469E+00   -0.23033E+00 36834   0.308E+00    0.137E+01
RMM:   3    -0.869047562374E+03    0.94579E+00   -0.57762E-01 32896   0.216E+00    0.197E+00
RMM:   4    -0.869025628960E+03    0.21933E-01   -0.21258E-01 43439   0.499E-01    0.715E-01
RMM:   5    -0.869033255293E+03   -0.76263E-02   -0.72244E-02 44831   0.314E-01    0.117E+00
RMM:   6    -0.869026703720E+03    0.65516E-02   -0.22077E-02 36490   0.270E-01    0.360E-01
RMM:   7    -0.869030590867E+03   -0.38871E-02   -0.20525E-02 38208   0.261E-01    0.974E-01
RMM:   8    -0.869025746660E+03    0.48442E-02   -0.66427E-03 32976   0.211E-01    0.256E-01
RMM:   9    -0.869026113748E+03   -0.36709E-03   -0.45131E-03 42138   0.103E-01    0.336E-01
RMM:  10    -0.869025584606E+03    0.52914E-03   -0.11509E-03 35378   0.734E-02    0.925E-02
RMM:  11    -0.869025609316E+03   -0.24710E-04   -0.73733E-04 48892   0.250E-02    0.742E-02
RMM:  12    -0.869025617516E+03   -0.82003E-05   -0.12627E-04 37065   0.217E-02    0.859E-02
RMM:  13    -0.869025582718E+03    0.34798E-04   -0.56185E-05 33977   0.188E-02    0.214E-02
RMM:  14    -0.869025596071E+03   -0.13353E-04   -0.73765E-05 41318   0.141E-02    0.501E-02
RMM:  15    -0.869025584372E+03    0.11699E-04   -0.22293E-05 33523   0.116E-02    0.169E-02
RMM:  16    -0.869025585106E+03   -0.73462E-06   -0.12373E-05 34673   0.427E-03    0.176E-02
RMM:  17    -0.869025583659E+03    0.14473E-05   -0.17555E-06 20600   0.378E-03    0.624E-03
RMM:  18    -0.869025583644E+03    0.15229E-07   -0.83850E-07 18370   0.223E-03
   3 F= -.86902558E+03 E0= -.86900503E+03  d E =-.607294E-01
       N       E                     dE             d eps       ncg     rms          rms(c)
DAV:   1    -0.869025605291E+03   -0.21632E-04   -0.30841E-02 35536   0.248E-01    0.569E-02
RMM:   2    -0.869027816340E+03   -0.22110E-02   -0.53665E-03 36964   0.145E-01    0.650E-01
RMM:   3    -0.869025664007E+03    0.21523E-02   -0.13109E-03 32896   0.102E-01    0.874E-02
RMM:   4    -0.869025621329E+03    0.42677E-04   -0.51279E-04 44030   0.233E-02    0.336E-02
RMM:   5    -0.869025638273E+03   -0.16944E-04   -0.17035E-04 44289   0.151E-02    0.549E-02
RMM:   6    -0.869025623699E+03    0.14574E-04   -0.49312E-05 36306   0.131E-02    0.188E-02
RMM:   7    -0.869025632238E+03   -0.85383E-05   -0.48928E-05 38459   0.127E-02    0.456E-02
RMM:   8    -0.869025620918E+03    0.11320E-04   -0.15161E-05 32724   0.102E-02    0.101E-02
RMM:   9    -0.869025622146E+03   -0.12278E-05   -0.81314E-06 30200   0.441E-03    0.175E-02
RMM:  10    -0.869025620813E+03    0.13325E-05   -0.19691E-06 19271   0.384E-03    0.608E-03
RMM:  11    -0.869025620676E+03    0.13705E-06   -0.97591E-07 17826   0.215E-03
   4 F= -.86902562E+03 E0= -.86900505E+03  d E =-.607664E-01
       N       E                     dE             d eps       ncg     rms          rms(c)
DAV:   1    -0.869029133337E+03   -0.35125E-02   -0.15081E+00 33076   0.174E+00    0.350E-01
RMM:   2    -0.869104845892E+03   -0.75713E-01   -0.18422E-01 36715   0.892E-01    0.374E+00
RMM:   3    -0.869032341099E+03    0.72505E-01   -0.42079E-02 32896   0.591E-01    0.600E-01
RMM:   4    -0.869030216647E+03    0.21245E-02   -0.15548E-02 42310   0.152E-01    0.205E-01
RMM:   5    -0.869031014217E+03   -0.79757E-03   -0.69014E-03 44386   0.107E-01    0.409E-01
RMM:   6    -0.869030216109E+03    0.79811E-03   -0.21028E-03 35899   0.877E-02    0.118E-01
RMM:   7    -0.869030655030E+03   -0.43892E-03   -0.26481E-03 39446   0.882E-02    0.313E-01
RMM:   8    -0.869030108913E+03    0.54612E-03   -0.74745E-04 33008   0.693E-02    0.650E-02
RMM:   9    -0.869030162583E+03   -0.53670E-04   -0.51156E-04 43594   0.309E-02    0.104E-01
RMM:  10    -0.869030113584E+03    0.48999E-04   -0.11163E-04 35832   0.217E-02    0.332E-02
RMM:  11    -0.869030115929E+03   -0.23452E-05   -0.75982E-05 46739   0.890E-03    0.295E-02
RMM:  12    -0.869030114821E+03    0.11078E-05   -0.13115E-05 33852   0.707E-03    0.268E-02
RMM:  13    -0.869030111390E+03    0.34310E-05   -0.57935E-06 27528   0.585E-03    0.717E-03
RMM:  14    -0.869030111935E+03   -0.54503E-06   -0.36598E-06 22718   0.359E-03
   5 F= -.86903011E+03 E0= -.86900940E+03  d E =-.449126E-02
       N       E                     dE             d eps       ncg     rms          rms(c)
DAV:   1    -0.869030408884E+03   -0.29749E-03   -0.12894E+00 32944   0.161E+00    0.325E-01
RMM:   2    -0.869095499654E+03   -0.65091E-01   -0.15831E-01 36711   0.827E-01    0.347E+00
RMM:   3    -0.869033197095E+03    0.62303E-01   -0.36181E-02 32896   0.548E-01    0.561E-01
RMM:   4    -0.869031331447E+03    0.18656E-02   -0.13350E-02 42189   0.142E-01    0.190E-01
RMM:   5    -0.869032022339E+03   -0.69089E-03   -0.59808E-03 44615   0.988E-02    0.381E-01
RMM:   6    -0.869031335286E+03    0.68705E-03   -0.18037E-03 35899   0.811E-02    0.110E-01
RMM:   7    -0.869031704830E+03   -0.36954E-03   -0.22645E-03 39569   0.815E-02    0.288E-01
RMM:   8    -0.869031242890E+03    0.46194E-03   -0.63809E-04 33028   0.638E-02    0.609E-02
RMM:   9    -0.869031289402E+03   -0.46512E-04   -0.43904E-04 43497   0.289E-02    0.979E-02
RMM:  10    -0.869031245895E+03    0.43507E-04   -0.97109E-05 35688   0.206E-02    0.303E-02
RMM:  11    -0.869031248047E+03   -0.21523E-05   -0.65872E-05 46203   0.830E-03    0.269E-02
RMM:  12    -0.869031247386E+03    0.66124E-06   -0.11355E-05 32737   0.646E-03    0.253E-02
RMM:  13    -0.869031244303E+03    0.30834E-05   -0.49232E-06 25851   0.556E-03    0.662E-03
RMM:  14    -0.869031244764E+03   -0.46181E-06   -0.30328E-06 21119   0.341E-03
   6 F= -.86903124E+03 E0= -.86901041E+03  d E =-.562409E-02
       N       E                     dE             d eps       ncg     rms          rms(c)
DAV:   1    -0.869031250633E+03   -0.63300E-05   -0.12705E-02 34208   0.160E-01    0.323E-02
RMM:   2    -0.869031909698E+03   -0.65907E-03   -0.15586E-03 36496   0.827E-02    0.349E-01
RMM:   3    -0.869031279607E+03    0.63009E-03   -0.35715E-04 32896   0.544E-02    0.549E-02
RMM:   4    -0.869031260413E+03    0.19194E-04   -0.13016E-04 41772   0.141E-02    0.189E-02
RMM:   5    -0.869031267734E+03   -0.73204E-05   -0.57039E-05 43793   0.991E-03    0.386E-02
RMM:   6    -0.869031260644E+03    0.70894E-05   -0.17606E-05 33715   0.802E-03    0.104E-02
RMM:   7    -0.869031264581E+03   -0.39369E-05   -0.21684E-05 37807   0.824E-03    0.292E-02
RMM:   8    -0.869031259978E+03    0.46031E-05   -0.62718E-06 27375   0.662E-03    0.616E-03
RMM:   9    -0.869031260200E+03   -0.22158E-06   -0.19075E-06 19320   0.239E-03
   7 F= -.86903126E+03 E0= -.86901043E+03  d E =-.563952E-02
       N       E                     dE             d eps       ncg     rms          rms(c)
DAV:   1    -0.869031609043E+03   -0.34906E-03   -0.26646E-01 33304   0.728E-01    0.126E-01
RMM:   2    -0.869039436354E+03   -0.78273E-02   -0.21431E-02 36009   0.329E-01    0.120E+00
RMM:   3    -0.869032177367E+03    0.72590E-02   -0.47838E-03 32896   0.203E-01    0.235E-01
RMM:   4    -0.869031863218E+03    0.31415E-03   -0.15667E-03 41623   0.558E-02    0.770E-02
RMM:   5    -0.869031983851E+03   -0.12063E-03   -0.88226E-04 43452   0.420E-02    0.166E-01
RMM:   6    -0.869031846229E+03    0.13762E-03   -0.30373E-04 34720   0.365E-02    0.483E-02
RMM:   7    -0.869031933340E+03   -0.87111E-04   -0.45399E-04 39547   0.365E-02    0.137E-01
RMM:   8    -0.869031831756E+03    0.10158E-03   -0.11999E-04 33006   0.281E-02    0.247E-02
RMM:   9    -0.869031836882E+03   -0.51262E-05   -0.70279E-05 46061   0.923E-03    0.320E-02
RMM:  10    -0.869031833307E+03    0.35754E-05   -0.14485E-05 34089   0.637E-03    0.141E-02
RMM:  11    -0.869031832769E+03    0.53835E-06   -0.38177E-06 24165   0.349E-03
   8 F= -.86903183E+03 E0= -.86901103E+03  d E =-.572569E-03
