 vasp.5.4.4.18Apr17-6-g9f103f2a35 (build Aug 17 2017 06:00:38) complex          
  
 executed on             LinuxIFC date 2019.07.14  02:32:02
 running on    8 total cores
 distrk:  each k-point on    8 cores,    1 groups
 distr:  one band on NCORES_PER_BAND=   4 cores,    2 groups


--------------------------------------------------------------------------------------------------------


 INCAR:
 POTCAR:   PAW_PBE Fe 06Sep2000                   
 POTCAR:   PAW_PBE Fe 06Sep2000                   
   VRHFIN =Fe:  d7 s1                                                           
   LEXCH  = PE                                                                  
   EATOM  =   594.4687 eV,   43.6922 Ry                                         
                                                                                
   TITEL  = PAW_PBE Fe 06Sep2000                                                
   LULTRA =        F    use ultrasoft PP ?                                      
   IUNSCR =        1    unscreen: 0-lin 1-nonlin 2-no                           
   RPACOR =    2.000    partial core radius                                     
   POMASS =   55.847; ZVAL   =    8.000    mass and valenz                      
   RCORE  =    2.300    outmost cutoff radius                                   
   RWIGS  =    2.460; RWIGS  =    1.302    wigner-seitz radius (au A)           
   ENMAX  =  267.883; ENMIN  =  200.912 eV                                      
   RCLOC  =    1.701    cutoff for local pot                                    
   LCOR   =        T    correct aug charges                                     
   LPAW   =        T    paw PP                                                  
   EAUG   =  511.368                                                            
   DEXC   =    -.022                                                            
   RMAX   =    2.817    core radius for proj-oper                               
   RAUG   =    1.300    factor for augmentation sphere                          
   RDEP   =    2.442    radius for radial grids                                 
   QCUT   =   -4.437; QGAM   =    8.874    optimization parameters              
                                                                                
   Description                                                                  
     l     E      TYP  RCUT    TYP  RCUT                                        
     2   .000     23  2.300                                                     
     2   .000     23  2.300                                                     
     0   .000     23  2.300                                                     
     0   .000     23  2.300                                                     
     1  -.200     23  2.300                                                     
     1   .000     23  2.300                                                     
     3   .000      7   .000                                                     
  local pseudopotential read in
  partial core-charges read in
  atomic valenz-charges read in
  non local Contribution for L=           2  read in
    real space projection operators read in
  non local Contribution for L=           2  read in
    real space projection operators read in
  non local Contribution for L=           0  read in
    real space projection operators read in
  non local Contribution for L=           0  read in
    real space projection operators read in
  non local Contribution for L=           1  read in
    real space projection operators read in
  non local Contribution for L=           1  read in
    real space projection operators read in
    PAW grid and wavefunctions read in
 
   number of l-projection  operators is LMAX  =           6
   number of lm-projection operators is LMMAX =          18
 
 Optimization of the real space projectors (new method)

 maximal supplied QI-value         = 16.25
 optimisation between [QCUT,QGAM] = [ 10.24, 20.48] = [ 29.35,117.42] Ry 
 Optimized for a Real-space Cutoff    1.51 Angstroem

   l    n(q)    QCUT    max X(q) W(low)/X(q) W(high)/X(q)  e(spline) 
   2      8    10.239     4.378    0.29E-04    0.57E-04    0.52E-07
   2      8    10.239    23.237    0.44E-03    0.68E-03    0.20E-06
   0      9    10.239    17.641    0.18E-04    0.41E-06    0.72E-08
   0      9    10.239    50.908    0.75E-04    0.38E-04    0.65E-07
   1      9    10.239     6.148    0.18E-04    0.27E-04    0.19E-07
   1      9    10.239     8.345    0.39E-04    0.13E-03    0.98E-07
 PAW_PBE Fe 06Sep2000                   :
 energy of atom  1       EATOM= -594.4687
 kinetic energy error for atom=    0.0088 (will be added to EATOM!!)
 
 
 POSCAR: fcc_Fe_CON_333                          
  positions in direct lattice
  velocities in cartesian coordinates
 exchange correlation table for  LEXCH =        8
   RHO(1)=    0.500       N(1)  =     2000
   RHO(2)=  100.500       N(2)  =     4000
 


--------------------------------------------------------------------------------------------------------


 ion  position               nearest neighbor table
   1  1.000  1.000  0.000-   6 2.43   2 2.43  18 2.43  14 2.43 101 2.43 100 2.43  99 2.43 105 2.43
                            21 2.44  20 2.44  19 2.44  25 2.44
   2  1.000  0.166  0.166-  99 2.43 100 2.43   1 2.43   9 2.44  29 2.44  27 2.44  93 2.44   7 2.44
                            91 2.44   3 2.44  19 2.44  20 2.44
   3  0.000  0.334  0.000-  27 2.43  32 2.43  89 2.43  35 2.43  91 2.44  96 2.44   2 2.44  14 2.44
                            20 2.44 100 2.44   4 2.45  16 2.45
   4  0.002  0.500  0.169-  23 2.42   9 2.42  11 2.42  28 2.42  27 2.42 103 2.44  35 2.44   3 2.45
                             5 2.45  91 2.45  92 2.45  89 2.47
   5  0.000  0.666  0.000-  28 2.43  33 2.43  89 2.43  35 2.43  92 2.44  97 2.44   6 2.44  18 2.44
                            21 2.44 101 2.44   4 2.45  16 2.45
   6  1.000  0.834  0.166-  99 2.43 101 2.43   1 2.43  11 2.44  30 2.44  28 2.44  94 2.44   7 2.44
                            92 2.44  19 2.44   5 2.44  21 2.44
   7  0.000  1.000  0.334-  30 2.43  29 2.43  90 2.43  36 2.43  94 2.44  93 2.44   6 2.44   2 2.44
                            19 2.44  99 2.44  12 2.45   8 2.45
   8  0.002  0.169  0.500-  22 2.42   9 2.42  15 2.42  29 2.42  31 2.42  36 2.44 102 2.44   7 2.45
                            13 2.45  93 2.45  95 2.45  90 2.47
   9  1.000  0.333  0.333-   8 2.42   4 2.42  91 2.43  93 2.43  27 2.44  29 2.44 102 2.44 103 2.44
                             2 2.44  10 2.44  22 2.44  23 2.44
  10  0.002  0.500  0.500-  23 2.42  26 2.42  22 2.42  24 2.42   9 2.44  11 2.44  15 2.44  17 2.44
                           103 2.45 106 2.45 102 2.45 104 2.45
  11  1.000  0.667  0.333-  12 2.42   4 2.42  92 2.43  94 2.43  28 2.44  30 2.44 104 2.44 103 2.44
                             6 2.44  10 2.44  24 2.44  23 2.44
  12  0.002  0.831  0.500-  24 2.42  11 2.42  17 2.42  30 2.42  34 2.42  36 2.44 104 2.44   7 2.45
                            13 2.45  94 2.45  98 2.45  90 2.47
  13  0.000  1.000  0.666-  34 2.43  31 2.43  90 2.43  36 2.43  95 2.44  98 2.44  18 2.44  14 2.44
                            25 2.44 105 2.44   8 2.45  12 2.45
  14  1.000  0.166  0.834- 105 2.43 100 2.43   1 2.43  15 2.44  32 2.44  31 2.44  96 2.44  95 2.44
                            13 2.44  25 2.44   3 2.44  20 2.44
  15  1.000  0.333  0.667-   8 2.42  16 2.42  95 2.43  96 2.43  31 2.44  32 2.44 102 2.44 106 2.44
                            14 2.44  10 2.44  22 2.44  26 2.44
  16  0.002  0.500  0.831-  26 2.42  15 2.42  17 2.42  32 2.42  33 2.42  35 2.44 106 2.44  96 2.45
                             5 2.45   3 2.45  97 2.45  89 2.47
  17  1.000  0.667  0.667-  12 2.42  16 2.42  98 2.43  97 2.43  34 2.44  33 2.44 104 2.44 106 2.44
                            18 2.44  10 2.44  24 2.44  26 2.44
  18  1.000  0.834  0.834- 105 2.43 101 2.43   1 2.43  17 2.44  33 2.44  34 2.44  97 2.44  13 2.44
                            98 2.44  25 2.44   5 2.44  21 2.44
  19  0.167  0.000  0.167-  29 2.43  30 2.43  37 2.43  49 2.43  21 2.44  20 2.44   6 2.44   2 2.44
                             7 2.44   1 2.44  39 2.45  38 2.45
  20  0.167  0.167  0.000-  27 2.43  32 2.43  37 2.43  46 2.43  19 2.44  25 2.44   2 2.44  14 2.44
                             3 2.44   1 2.44  38 2.45  42 2.45
  21  0.167  0.833  0.000-  28 2.43  33 2.43  37 2.43  48 2.43  19 2.44  25 2.44   6 2.44  18 2.44
                             5 2.44   1 2.44  39 2.45  45 2.45
  22  0.168  0.334  0.500-   8 2.42  40 2.42  43 2.42  23 2.42  26 2.42  50 2.42  10 2.42  29 2.44
                            31 2.44   9 2.44  15 2.44
  23  0.168  0.500  0.334-   4 2.42  41 2.42  40 2.42  24 2.42  22 2.42  47 2.42  10 2.42  28 2.44
                            27 2.44  11 2.44   9 2.44
  24  0.168  0.666  0.500-  12 2.42  41 2.42  44 2.42  23 2.42  26 2.42  51 2.42  10 2.42  30 2.44
                            34 2.44  11 2.44  17 2.44
  25  0.167  0.000  0.833-  31 2.43  34 2.43  37 2.43  52 2.43  21 2.44  20 2.44  14 2.44  18 2.44
                            13 2.44   1 2.44  42 2.45  45 2.45
  26  0.168  0.500  0.666-  16 2.42  43 2.42  44 2.42  22 2.42  24 2.42  53 2.42  10 2.42  33 2.44
                            32 2.44  17 2.44  15 2.44
  27  0.167  0.333  0.167-   4 2.42  38 2.42  20 2.43   3 2.43  29 2.44   9 2.44  46 2.44  35 2.44
                             2 2.44  47 2.44  40 2.44  23 2.44
  28  0.167  0.667  0.167-   4 2.42  39 2.42  21 2.43   5 2.43  30 2.44  11 2.44  48 2.44  35 2.44
                             6 2.44  47 2.44  41 2.44  23 2.44
  29  0.167  0.167  0.333-   8 2.42  38 2.42  19 2.43   7 2.43  27 2.44   9 2.44  36 2.44  49 2.44
                             2 2.44  50 2.44  40 2.44  22 2.44
  30  0.167  0.833  0.333-  12 2.42  39 2.42  19 2.43   7 2.43  28 2.44  11 2.44  36 2.44  49 2.44
                             6 2.44  51 2.44  41 2.44  24 2.44
  31  0.167  0.167  0.667-   8 2.42  42 2.42  25 2.43  13 2.43  32 2.44  15 2.44  36 2.44  52 2.44
                            14 2.44  50 2.44  43 2.44  22 2.44
  32  0.167  0.333  0.833-  16 2.42  42 2.42  20 2.43   3 2.43  31 2.44  15 2.44  46 2.44  35 2.44
                            14 2.44  53 2.44  43 2.44  26 2.44
  33  0.167  0.667  0.833-  16 2.42  45 2.42  21 2.43   5 2.43  34 2.44  17 2.44  48 2.44  35 2.44
                            18 2.44  53 2.44  44 2.44  26 2.44
  34  0.167  0.833  0.667-  12 2.42  45 2.42  25 2.43  13 2.43  33 2.44  17 2.44  36 2.44  52 2.44
                            18 2.44  51 2.44  44 2.44  24 2.44
  35  0.167  0.500  0.000-  48 2.43  46 2.43   3 2.43   5 2.43  27 2.44  28 2.44  32 2.44  33 2.44
                             4 2.44  16 2.44  47 2.45  53 2.45
  36  0.167  1.000  0.500-  49 2.43  52 2.43   7 2.43  13 2.43  30 2.44  29 2.44  34 2.44  31 2.44
                            12 2.44   8 2.44  51 2.45  50 2.45
  37  0.333  0.000  0.000-  59 2.43  55 2.43  21 2.43  20 2.43  54 2.43  66 2.43  19 2.43  25 2.43
                            39 2.47  38 2.47  42 2.47  45 2.47
  38  0.333  0.169  0.169-  40 2.42  61 2.42  56 2.42  29 2.42  27 2.42  49 2.44  46 2.44  54 2.45
                            55 2.45  19 2.45  20 2.45  37 2.47
  39  0.333  0.831  0.169-  41 2.42  65 2.42  58 2.42  30 2.42  28 2.42  49 2.44  48 2.44  54 2.45
                            59 2.45  19 2.45  21 2.45  37 2.47
  40  0.333  0.334  0.334-  38 2.42  22 2.42  23 2.42  62 2.42  63 2.42  50 2.42  47 2.42  27 2.44
                            29 2.44  56 2.44  61 2.44
  41  0.333  0.666  0.334-  39 2.42  24 2.42  23 2.42  64 2.42  63 2.42  51 2.42  47 2.42  28 2.44
                            30 2.44  58 2.44  65 2.44
  42  0.333  0.169  0.831-  43 2.42  68 2.42  67 2.42  32 2.42  31 2.42  52 2.44  46 2.44  66 2.45
                            55 2.45  25 2.45  20 2.45  37 2.47
  43  0.333  0.334  0.666-  42 2.42  22 2.42  26 2.42 107 2.42  62 2.42  50 2.42  53 2.42  31 2.44
                            32 2.44  67 2.44  68 2.44
  44  0.333  0.666  0.666-  45 2.42  24 2.42  26 2.42  64 2.42 107 2.42  51 2.42  53 2.42  34 2.44
                            33 2.44  70 2.44  69 2.44
  45  0.333  0.831  0.831-  44 2.42  69 2.42  70 2.42  33 2.42  34 2.42  52 2.44  48 2.44  66 2.45
                            59 2.45  25 2.45  21 2.45  37 2.47
  46  0.333  0.334  0.000-  57 2.43  35 2.43  55 2.43  20 2.43  56 2.44  68 2.44  27 2.44  32 2.44
                            38 2.44  42 2.44  47 2.45  53 2.45
  47  0.333  0.500  0.169-  23 2.42  63 2.42  41 2.42  40 2.42  56 2.44  58 2.44  27 2.44  28 2.44
                            57 2.45  46 2.45  48 2.45  35 2.45
  48  0.333  0.666  0.000-  57 2.43  35 2.43  59 2.43  21 2.43  58 2.44  69 2.44  28 2.44  33 2.44
                            39 2.44  45 2.44  47 2.45  53 2.45
  49  0.333  0.000  0.334-  60 2.43  36 2.43  54 2.43  19 2.43  65 2.44  61 2.44  30 2.44  29 2.44
                            38 2.44  39 2.44  50 2.45  51 2.45
  50  0.333  0.169  0.500-  62 2.42  22 2.42  40 2.42  43 2.42  61 2.44  67 2.44  29 2.44  31 2.44
                            49 2.45  52 2.45  60 2.45  36 2.45
  51  0.333  0.831  0.500-  64 2.42  44 2.42  24 2.42  41 2.42  65 2.44  70 2.44  30 2.44  34 2.44
                            49 2.45  52 2.45  60 2.45  36 2.45
  52  0.333  1.000  0.666-  60 2.43  36 2.43  66 2.43  25 2.43  70 2.44  67 2.44  34 2.44  31 2.44
                            45 2.44  42 2.44  50 2.45  51 2.45
  53  0.333  0.500  0.831-  26 2.42 107 2.42  43 2.42  44 2.42  68 2.44  69 2.44  33 2.44  32 2.44
                            57 2.45  48 2.45  46 2.45  35 2.45
  54  0.500  0.000  0.167-  65 2.43  61 2.43  37 2.43  49 2.43  55 2.44  59 2.44  79 2.44  80 2.44
                            74 2.44  87 2.44  39 2.45  38 2.45
  55  0.500  0.167  0.000-  56 2.43  68 2.43  37 2.43  46 2.43  54 2.44  66 2.44  79 2.44  83 2.44
                            71 2.44  87 2.44  38 2.45  42 2.45
  56  0.500  0.333  0.167-  72 2.42  38 2.42  71 2.43  55 2.43  61 2.44  81 2.44  46 2.44  57 2.44
                            79 2.44  47 2.44  40 2.44  63 2.44
  57  0.500  0.500  0.000-  46 2.43  48 2.43  71 2.43  73 2.43  56 2.44  58 2.44  68 2.44  69 2.44
                            72 2.44  78 2.44  47 2.45  53 2.45
  58  0.500  0.667  0.167-  72 2.42  39 2.42  73 2.43  59 2.43  82 2.44  65 2.44  48 2.44  57 2.44
                            80 2.44  47 2.44  63 2.44  41 2.44
  59  0.500  0.833  0.000-  58 2.43  69 2.43  37 2.43  48 2.43  54 2.44  66 2.44  80 2.44  86 2.44
                            73 2.44  87 2.44  39 2.45  45 2.45
  60  0.500  1.000  0.500-  49 2.43  52 2.43  74 2.43  77 2.43  65 2.44  61 2.44  70 2.44  67 2.44
                            75 2.44  76 2.44  51 2.45  50 2.45
  61  0.500  0.167  0.333-  75 2.42  38 2.42  54 2.43  74 2.43  56 2.44  81 2.44  60 2.44  49 2.44
                            79 2.44  50 2.44  62 2.44  40 2.44
  62  0.499  0.334  0.500-  75 2.42  63 2.42 107 2.42  40 2.42  43 2.42  50 2.42  88 2.42  61 2.44
                            81 2.44  67 2.44  84 2.44
  63  0.499  0.500  0.334-  72 2.42  64 2.42  62 2.42  41 2.42  40 2.42  47 2.42  88 2.42  58 2.44
                            82 2.44  56 2.44  81 2.44
  64  0.499  0.666  0.500-  76 2.42  63 2.42 107 2.42  41 2.42  44 2.42  51 2.42  88 2.42  65 2.44
                            82 2.44  70 2.44  85 2.44
  65  0.500  0.833  0.333-  76 2.42  39 2.42  54 2.43  74 2.43  58 2.44  82 2.44  60 2.44  49 2.44
                            80 2.44  51 2.44  64 2.44  41 2.44
  66  0.500  1.000  0.833-  70 2.43  67 2.43  37 2.43  52 2.43  59 2.44  55 2.44  86 2.44  83 2.44
                            77 2.44  87 2.44  45 2.45  42 2.45
  67  0.500  0.167  0.667-  75 2.42  42 2.42  77 2.43  66 2.43  84 2.44  68 2.44  60 2.44  52 2.44
                            83 2.44  50 2.44  62 2.44  43 2.44
  68  0.500  0.333  0.833-  78 2.42  42 2.42  71 2.43  55 2.43  67 2.44  84 2.44  46 2.44  57 2.44
                            83 2.44  53 2.44  43 2.44 107 2.44
  69  0.500  0.667  0.833-  78 2.42  45 2.42  73 2.43  59 2.43  85 2.44  70 2.44  48 2.44  57 2.44
                            86 2.44  53 2.44  44 2.44 107 2.44
  70  0.500  0.833  0.667-  76 2.42  45 2.42  77 2.43  66 2.43  85 2.44  69 2.44  60 2.44  52 2.44
                            86 2.44  51 2.44  64 2.44  44 2.44
  71  0.666  0.334  0.000-  56 2.43  68 2.43  89 2.43  57 2.43  91 2.44  96 2.44  79 2.44  83 2.44
                            55 2.44 100 2.44  72 2.45  78 2.45
  72  0.665  0.500  0.169-  63 2.42  56 2.42  58 2.42  82 2.42  81 2.42  57 2.44 103 2.44  91 2.45
                            92 2.45  71 2.45  73 2.45  89 2.47
  73  0.666  0.666  0.000-  58 2.43  69 2.43  89 2.43  57 2.43  92 2.44  97 2.44  80 2.44  86 2.44
                            59 2.44 101 2.44  72 2.45  78 2.45
  74  0.666  1.000  0.334-  65 2.43  61 2.43  90 2.43  60 2.43  94 2.44  93 2.44  80 2.44  79 2.44
                            54 2.44  99 2.44  75 2.45  76 2.45
  75  0.665  0.169  0.500-  62 2.42  61 2.42  67 2.42  81 2.42  84 2.42  60 2.44 102 2.44  74 2.45
                            77 2.45  93 2.45  95 2.45  90 2.47
  76  0.665  0.831  0.500-  64 2.42  65 2.42  70 2.42  82 2.42  85 2.42  60 2.44 104 2.44  94 2.45
                            74 2.45  98 2.45  77 2.45  90 2.47
  77  0.666  1.000  0.666-  70 2.43  67 2.43  90 2.43  60 2.43  98 2.44  95 2.44  86 2.44  83 2.44
                            66 2.44 105 2.44  75 2.45  76 2.45
  78  0.665  0.500  0.831- 107 2.42  68 2.42  69 2.42  85 2.42  84 2.42 106 2.44  57 2.44  96 2.45
                            97 2.45  71 2.45  73 2.45  89 2.47
  79  0.667  0.166  0.166-  99 2.43 100 2.43  87 2.43  61 2.44  56 2.44  81 2.44  93 2.44  91 2.44
                            54 2.44  74 2.44  55 2.44  71 2.44
  80  0.667  0.834  0.166-  99 2.43 101 2.43  87 2.43  65 2.44  58 2.44  82 2.44  94 2.44  92 2.44
                            54 2.44  74 2.44  59 2.44  73 2.44
  81  0.667  0.333  0.333-  75 2.42  72 2.42  91 2.43  93 2.43  56 2.44  61 2.44 102 2.44 103 2.44
                            79 2.44  88 2.44  62 2.44  63 2.44
  82  0.667  0.667  0.333-  76 2.42  72 2.42  92 2.43  94 2.43  58 2.44  65 2.44 104 2.44 103 2.44
                            80 2.44  88 2.44  64 2.44  63 2.44
  83  0.667  0.166  0.834- 105 2.43 100 2.43  87 2.43  68 2.44  67 2.44  84 2.44  96 2.44  95 2.44
                            66 2.44  77 2.44  55 2.44  71 2.44
  84  0.667  0.333  0.667-  78 2.42  75 2.42  95 2.43  96 2.43  67 2.44  68 2.44 102 2.44 106 2.44
                            83 2.44  88 2.44  62 2.44 107 2.44
  85  0.667  0.667  0.667-  76 2.42  78 2.42  98 2.43  97 2.43  70 2.44  69 2.44 104 2.44 106 2.44
                            86 2.44  88 2.44  64 2.44 107 2.44
  86  0.667  0.834  0.834- 105 2.43 101 2.43  87 2.43  69 2.44  70 2.44  85 2.44  97 2.44  98 2.44
                            66 2.44  77 2.44  59 2.44  73 2.44
  87  0.667  1.000  0.000-  80 2.43  79 2.43  86 2.43  83 2.43 101 2.43 100 2.43  99 2.43 105 2.43
                            59 2.44  55 2.44  54 2.44  66 2.44
  88  0.665  0.500  0.500- 107 2.42  63 2.42  62 2.42  64 2.42  81 2.44  82 2.44  84 2.44  85 2.44
                           103 2.45 106 2.45 102 2.45 104 2.45
  89  0.833  0.500  0.000-  71 2.43  73 2.43   5 2.43   3 2.43  92 2.43  91 2.43  96 2.43  97 2.43
                            72 2.47   4 2.47  16 2.47  78 2.47
  90  0.833  1.000  0.500-  74 2.43  77 2.43  94 2.43  93 2.43  98 2.43   7 2.43  95 2.43  13 2.43
                            75 2.47  12 2.47   8 2.47  76 2.47
  91  0.833  0.334  0.167-  81 2.43   9 2.43  89 2.43 103 2.43  71 2.44   3 2.44  79 2.44   2 2.44
                            93 2.44 100 2.44  72 2.45   4 2.45
  92  0.833  0.666  0.167-  82 2.43  11 2.43  89 2.43 103 2.43  73 2.44   5 2.44  80 2.44   6 2.44
                            94 2.44 101 2.44  72 2.45   4 2.45
  93  0.833  0.167  0.334-  81 2.43   9 2.43  90 2.43 102 2.43  74 2.44   7 2.44  79 2.44   2 2.44
                            91 2.44  99 2.44  75 2.45   8 2.45
  94  0.833  0.833  0.334-  82 2.43  11 2.43  90 2.43 104 2.43  74 2.44   7 2.44  80 2.44   6 2.44
                            92 2.44  99 2.44  76 2.45  12 2.45
  95  0.833  0.167  0.666-  84 2.43  15 2.43  90 2.43 102 2.43  77 2.44  13 2.44  83 2.44  14 2.44
                            96 2.44 105 2.44  75 2.45   8 2.45
  96  0.833  0.334  0.833-  84 2.43  15 2.43  89 2.43 106 2.43  71 2.44   3 2.44  83 2.44  14 2.44
                            95 2.44 100 2.44  78 2.45  16 2.45
  97  0.833  0.666  0.833-  85 2.43  17 2.43  89 2.43 106 2.43  73 2.44   5 2.44  86 2.44  18 2.44
                            98 2.44 101 2.44  78 2.45  16 2.45
  98  0.833  0.833  0.666-  85 2.43  17 2.43  90 2.43 104 2.43  77 2.44  13 2.44  86 2.44  18 2.44
                            97 2.44 105 2.44  76 2.45  12 2.45
  99  0.833  0.000  0.167-  79 2.43  80 2.43   6 2.43   2 2.43  87 2.43 101 2.43 100 2.43   1 2.43
                            74 2.44  93 2.44  94 2.44   7 2.44
 100  0.833  0.167  0.000-  79 2.43  83 2.43   2 2.43  14 2.43  87 2.43   1 2.43  99 2.43 105 2.43
                            71 2.44   3 2.44  91 2.44  96 2.44
 101  0.833  0.833  0.000-  80 2.43  86 2.43   6 2.43  18 2.43  87 2.43   1 2.43  99 2.43 105 2.43
                            73 2.44   5 2.44  92 2.44  97 2.44
 102  0.833  0.334  0.500- 103 2.43 106 2.43  93 2.43  95 2.43  81 2.44  84 2.44   9 2.44  15 2.44
                            75 2.44   8 2.44  88 2.45  10 2.45
 103  0.833  0.500  0.334- 102 2.43 104 2.43  91 2.43  92 2.43  81 2.44  82 2.44   9 2.44  11 2.44
                            72 2.44   4 2.44  88 2.45  10 2.45
 104  0.833  0.666  0.500- 103 2.43 106 2.43  94 2.43  98 2.43  82 2.44  11 2.44  85 2.44  17 2.44
                            76 2.44  12 2.44  88 2.45  10 2.45
 105  0.833  1.000  0.833-  83 2.43  86 2.43  18 2.43  14 2.43  87 2.43 101 2.43 100 2.43   1 2.43
                            77 2.44  95 2.44  98 2.44  13 2.44
 106  0.833  0.500  0.666- 102 2.43 104 2.43  96 2.43  97 2.43  84 2.44  85 2.44  15 2.44  17 2.44
                            78 2.44  16 2.44  88 2.45  10 2.45
 107  0.499  0.500  0.666-  78 2.42  64 2.42  62 2.42  44 2.42  43 2.42  88 2.42  53 2.42  84 2.44
                            85 2.44  68 2.44  69 2.44
 

IMPORTANT INFORMATION: All symmetrisations will be switched off!
NOSYMM: (Re-)initialisation of all symmetry stuff for point group C_1.

 
 
 KPOINTS: pymatgen generated KPOINTS with grid den

Automatic generation of k-mesh.
Space group operators:
 irot       det(A)        alpha          n_x          n_y          n_z        tau_x        tau_y        tau_z
    1     1.000000     0.000000     1.000000     0.000000     0.000000     0.000000     0.000000     0.000000
 
 Subroutine IBZKPT returns following result:
 ===========================================
 
 Found     32 irreducible k-points:
 
 Following reciprocal coordinates:
            Coordinates               Weight
  0.125000  0.125000  0.125000      2.000000
  0.375000  0.125000  0.125000      2.000000
 -0.375000  0.125000  0.125000      2.000000
 -0.125000  0.125000  0.125000      2.000000
  0.125000  0.375000  0.125000      2.000000
  0.375000  0.375000  0.125000      2.000000
 -0.375000  0.375000  0.125000      2.000000
 -0.125000  0.375000  0.125000      2.000000
  0.125000 -0.375000  0.125000      2.000000
  0.375000 -0.375000  0.125000      2.000000
 -0.375000 -0.375000  0.125000      2.000000
 -0.125000 -0.375000  0.125000      2.000000
  0.125000 -0.125000  0.125000      2.000000
  0.375000 -0.125000  0.125000      2.000000
 -0.375000 -0.125000  0.125000      2.000000
 -0.125000 -0.125000  0.125000      2.000000
  0.125000  0.125000  0.375000      2.000000
  0.375000  0.125000  0.375000      2.000000
 -0.375000  0.125000  0.375000      2.000000
 -0.125000  0.125000  0.375000      2.000000
  0.125000  0.375000  0.375000      2.000000
  0.375000  0.375000  0.375000      2.000000
 -0.375000  0.375000  0.375000      2.000000
 -0.125000  0.375000  0.375000      2.000000
  0.125000 -0.375000  0.375000      2.000000
  0.375000 -0.375000  0.375000      2.000000
 -0.375000 -0.375000  0.375000      2.000000
 -0.125000 -0.375000  0.375000      2.000000
  0.125000 -0.125000  0.375000      2.000000
  0.375000 -0.125000  0.375000      2.000000
 -0.375000 -0.125000  0.375000      2.000000
 -0.125000 -0.125000  0.375000      2.000000
 
 Following cartesian coordinates:
            Coordinates               Weight
  0.012095  0.012095  0.012095      2.000000
  0.036285  0.012095  0.012095      2.000000
 -0.036285  0.012095  0.012095      2.000000
 -0.012095  0.012095  0.012095      2.000000
  0.012095  0.036285  0.012095      2.000000
  0.036285  0.036285  0.012095      2.000000
 -0.036285  0.036285  0.012095      2.000000
 -0.012095  0.036285  0.012095      2.000000
  0.012095 -0.036285  0.012095      2.000000
  0.036285 -0.036285  0.012095      2.000000
 -0.036285 -0.036285  0.012095      2.000000
 -0.012095 -0.036285  0.012095      2.000000
  0.012095 -0.012095  0.012095      2.000000
  0.036285 -0.012095  0.012095      2.000000
 -0.036285 -0.012095  0.012095      2.000000
 -0.012095 -0.012095  0.012095      2.000000
  0.012095  0.012095  0.036285      2.000000
  0.036285  0.012095  0.036285      2.000000
 -0.036285  0.012095  0.036285      2.000000
 -0.012095  0.012095  0.036285      2.000000
  0.012095  0.036285  0.036285      2.000000
  0.036285  0.036285  0.036285      2.000000
 -0.036285  0.036285  0.036285      2.000000
 -0.012095  0.036285  0.036285      2.000000
  0.012095 -0.036285  0.036285      2.000000
  0.036285 -0.036285  0.036285      2.000000
 -0.036285 -0.036285  0.036285      2.000000
 -0.012095 -0.036285  0.036285      2.000000
  0.012095 -0.012095  0.036285      2.000000
  0.036285 -0.012095  0.036285      2.000000
 -0.036285 -0.012095  0.036285      2.000000
 -0.012095 -0.012095  0.036285      2.000000
 


--------------------------------------------------------------------------------------------------------




 Dimension of arrays:
   k-points           NKPTS =     32   k-points in BZ     NKDIM =     32   number of bands    NBANDS=    514
   number of dos      NEDOS =    301   number of ions     NIONS =    107
   non local maximal  LDIM  =      6   non local SUM 2l+1 LMDIM =     18
   total plane-waves  NPLWV = 373248
   max r-space proj   IRMAX =   4912   max aug-charges    IRDMAX=  12243
   dimension x,y,z NGX =    72 NGY =   72 NGZ =   72
   dimension x,y,z NGXF=   144 NGYF=  144 NGZF=  144
   support grid    NGXF=   144 NGYF=  144 NGZF=  144
   ions per type =             107
   NGX,Y,Z   is equivalent  to a cutoff of  11.58, 11.58, 11.58 a.u.
   NGXF,Y,Z  is equivalent  to a cutoff of  23.16, 23.16, 23.16 a.u.

 Based on PREC, I would recommend the following setting:
   dimension x,y,z NGX =    54 NGY =   54 NGZ =   54

 SYSTEM =  Static                                  
 POSCAR =  fcc_Fe_CON_333                          

 Startparameter for this run:
   NWRITE =      2    write-flag & timer
   PREC   = normal    normal or accurate (medium, high low for compatibility)
   ISTART =      0    job   : 0-new  1-cont  2-samecut
   ICHARG =      2    charge: 1-file 2-atom 10-const
   ISPIN  =      1    spin polarized calculation?
   LNONCOLLINEAR =      F non collinear calculations
   LSORBIT =      F    spin-orbit coupling
   INIWAV =      1    electr: 0-lowe 1-rand  2-diag
   LASPH  =      F    aspherical Exc in radial PAW
   METAGGA=      F    non-selfconsistent MetaGGA calc.

 Electronic Relaxation 1
   ENCUT  =  400.0 eV  29.40 Ry    5.42 a.u.  16.85 16.85 16.85*2*pi/ulx,y,z
   ENINI  =  400.0     initial cutoff
   ENAUG  =  511.4 eV  augmentation charge cutoff
   NELM   =    400;   NELMIN=  2; NELMDL= -5     # of ELM steps 
   EDIFF  = 0.1E-05   stopping-criterion for ELM
   LREAL  =      T    real-space projection
   NLSPLINE    = F    spline interpolate recip. space projectors
   LCOMPAT=      F    compatible to vasp.4.4
   GGA_COMPAT  = T    GGA compatible to vasp.4.4-vasp.4.6
   LMAXPAW     = -100 max onsite density
   LMAXMIX     =    2 max onsite mixed and CHGCAR
   VOSKOWN=      0    Vosko Wilk Nusair interpolation
   ROPT   =   -0.00050
 Ionic relaxation
   EDIFFG = 0.1E-04   stopping-criterion for IOM
   NSW    =      1    number of steps for IOM
   NBLOCK =      1;   KBLOCK =      1    inner block; outer block 
   IBRION =     -1    ionic relax: 0-MD 1-quasi-New 2-CG
   NFREE  =      0    steps in history (QN), initial steepest desc. (CG)
   ISIF   =      2    stress and relaxation
   IWAVPR =     10    prediction:  0-non 1-charg 2-wave 3-comb
   ISYM   =      0    0-nonsym 1-usesym 2-fastsym
   LCORR  =      T    Harris-Foulkes like correction to forces

   POTIM  = 0.5000    time-step for ionic-motion
   TEIN   =    0.0    initial temperature
   TEBEG  =    0.0;   TEEND  =   0.0 temperature during run
   SMASS  =  -3.00    Nose mass-parameter (am)
   estimated Nose-frequenzy (Omega)   =  0.10E-29 period in steps =****** mass=  -0.244E-26a.u.
   SCALEE = 1.0000    scale energy and forces
   NPACO  =    256;   APACO  = 16.0  distance and # of slots for P.C.
   PSTRESS=    0.0 pullay stress

  Mass of Ions in am
   POMASS =  55.85
  Ionic Valenz
   ZVAL   =   8.00
  Atomic Wigner-Seitz radii
   RWIGS  =  -1.00
  virtual crystal weights 
   VCA    =   1.00
   NELECT =     856.0000    total number of electrons
   NUPDOWN=      -1.0000    fix difference up-down

 DOS related values:
   EMIN   =  10.00;   EMAX   =-10.00  energy-range for DOS
   EFERMI =   0.00
   ISMEAR =     1;   SIGMA  =   0.20  broadening in eV -4-tet -1-fermi 0-gaus

 Electronic relaxation 2 (details)
   IALGO  =     68    algorithm
   LDIAG  =      T    sub-space diagonalisation (order eigenvalues)
   LSUBROT=      F    optimize rotation matrix (better conditioning)
   TURBO    =      0    0=normal 1=particle mesh
   IRESTART =      0    0=no restart 2=restart with 2 vectors
   NREBOOT  =      0    no. of reboots
   NMIN     =      0    reboot dimension
   EREF     =   0.00    reference energy to select bands
   IMIX   =      4    mixing-type and parameters
     AMIX     =   0.40;   BMIX     =  1.00
     AMIX_MAG =   1.60;   BMIX_MAG =  1.00
     AMIN     =   0.10
     WC   =   100.;   INIMIX=   1;  MIXPRE=   1;  MAXMIX= -45

 Intra band minimization:
   WEIMIN = 0.0000     energy-eigenvalue tresh-hold
   EBREAK =  0.49E-09  absolut break condition
   DEPER  =   0.30     relativ break condition  

   TIME   =   0.40     timestep for ELM

  volume/ion in A,a.u.               =      10.32        69.62
  Fermi-wavevector in a.u.,A,eV,Ry     =   1.504049  2.842241 30.778608  2.262164
  Thomas-Fermi vector in A             =   2.615080
 
 Write flags
   LWAVE        =      F    write WAVECAR
   LDOWNSAMPLE  =      F    k-point downsampling of WAVECAR
   LCHARG       =      F    write CHGCAR
   LVTOT        =      F    write LOCPOT, total local potential
   LVHAR        =      F    write LOCPOT, Hartree potential only
   LELF         =      F    write electronic localiz. function (ELF)
   LORBIT       =      0    0 simple, 1 ext, 2 COOP (PROOUT), +10 PAW based schemes


 Dipole corrections
   LMONO  =      F    monopole corrections only (constant potential shift)
   LDIPOL =      F    correct potential (dipole corrections)
   IDIPOL =      0    1-x, 2-y, 3-z, 4-all directions 
   EPSILON=  1.0000000 bulk dielectric constant

 Exchange correlation treatment:
   GGA     =    --    GGA type
   LEXCH   =     8    internal setting for exchange type
   VOSKOWN=      0    Vosko Wilk Nusair interpolation
   LHFCALC =     F    Hartree Fock is set to
   LHFONE  =     F    Hartree Fock one center treatment
   AEXX    =    0.0000 exact exchange contribution

 Linear response parameters
   LEPSILON=     F    determine dielectric tensor
   LRPA    =     F    only Hartree local field effects (RPA)
   LNABLA  =     F    use nabla operator in PAW spheres
   LVEL    =     F    velocity operator in full k-point grid
   LINTERFAST=   F  fast interpolation
   KINTER  =     0    interpolate to denser k-point grid
   CSHIFT  =0.1000    complex shift for real part using Kramers Kronig
   OMEGAMAX=  -1.0    maximum frequency
   DEG_THRESHOLD= 0.2000000E-02 threshold for treating states as degnerate
   RTIME   =   -0.100 relaxation time in fs
  (WPLASMAI=    0.000 imaginary part of plasma frequency in eV, 0.658/RTIME)
   DFIELD  = 0.0000000 0.0000000 0.0000000 field for delta impulse in time
 
 Orbital magnetization related:
   ORBITALMAG=     F  switch on orbital magnetization
   LCHIMAG   =     F  perturbation theory with respect to B field
   DQ        =  0.001000  dq finite difference perturbation B field
   LLRAUG    =     F  two centre corrections for induced B field



--------------------------------------------------------------------------------------------------------


 Static calculation
 charge density and potential will be updated during run
 non-spin polarized calculation
 RMM-DIIS sequential band-by-band and
  variant of blocked Davidson during initial phase
 perform sub-space diagonalisation
    before iterative eigenvector-optimisation
 modified Broyden-mixing scheme, WC =      100.0
 initial mixing is a Kerker type mixing with AMIX =  0.4000 and BMIX =      1.0000
 Hartree-type preconditioning will be used
 using additional bands           86
 real space projection scheme for non local part
 use partial core corrections
 calculate Harris-corrections to forces 
   (improved forces if not selfconsistent)
 use gradient corrections 
 use of overlap-Matrix (Vanderbilt PP)
 Methfessel and Paxton  Order N= 1 SIGMA  =   0.20


--------------------------------------------------------------------------------------------------------


  energy-cutoff  :      400.00
  volume of cell :     1103.86
      direct lattice vectors                 reciprocal lattice vectors
    10.334847047  0.000000000  0.000000000     0.096760019  0.000000000  0.000000000
     0.000000000 10.334847047  0.000000000     0.000000000  0.096760019  0.000000000
     0.000000000  0.000000000 10.334847047     0.000000000  0.000000000  0.096760019

  length of vectors
    10.334847047 10.334847047 10.334847047     0.096760019  0.096760019  0.096760019


 
 k-points in units of 2pi/SCALE and weight: pymatgen generated KPOINTS with grid den
   0.01209500  0.01209500  0.01209500       0.031
   0.03628501  0.01209500  0.01209500       0.031
  -0.03628501  0.01209500  0.01209500       0.031
  -0.01209500  0.01209500  0.01209500       0.031
   0.01209500  0.03628501  0.01209500       0.031
   0.03628501  0.03628501  0.01209500       0.031
  -0.03628501  0.03628501  0.01209500       0.031
  -0.01209500  0.03628501  0.01209500       0.031
   0.01209500 -0.03628501  0.01209500       0.031
   0.03628501 -0.03628501  0.01209500       0.031
  -0.03628501 -0.03628501  0.01209500       0.031
  -0.01209500 -0.03628501  0.01209500       0.031
   0.01209500 -0.01209500  0.01209500       0.031
   0.03628501 -0.01209500  0.01209500       0.031
  -0.03628501 -0.01209500  0.01209500       0.031
  -0.01209500 -0.01209500  0.01209500       0.031
   0.01209500  0.01209500  0.03628501       0.031
   0.03628501  0.01209500  0.03628501       0.031
  -0.03628501  0.01209500  0.03628501       0.031
  -0.01209500  0.01209500  0.03628501       0.031
   0.01209500  0.03628501  0.03628501       0.031
   0.03628501  0.03628501  0.03628501       0.031
  -0.03628501  0.03628501  0.03628501       0.031
  -0.01209500  0.03628501  0.03628501       0.031
   0.01209500 -0.03628501  0.03628501       0.031
   0.03628501 -0.03628501  0.03628501       0.031
  -0.03628501 -0.03628501  0.03628501       0.031
  -0.01209500 -0.03628501  0.03628501       0.031
   0.01209500 -0.01209500  0.03628501       0.031
   0.03628501 -0.01209500  0.03628501       0.031
  -0.03628501 -0.01209500  0.03628501       0.031
  -0.01209500 -0.01209500  0.03628501       0.031
 
 k-points in reciprocal lattice and weights: pymatgen generated KPOINTS with grid den
   0.12500000  0.12500000  0.12500000       0.031
   0.37500000  0.12500000  0.12500000       0.031
  -0.37500000  0.12500000  0.12500000       0.031
  -0.12500000  0.12500000  0.12500000       0.031
   0.12500000  0.37500000  0.12500000       0.031
   0.37500000  0.37500000  0.12500000       0.031
  -0.37500000  0.37500000  0.12500000       0.031
  -0.12500000  0.37500000  0.12500000       0.031
   0.12500000 -0.37500000  0.12500000       0.031
   0.37500000 -0.37500000  0.12500000       0.031
  -0.37500000 -0.37500000  0.12500000       0.031
  -0.12500000 -0.37500000  0.12500000       0.031
   0.12500000 -0.12500000  0.12500000       0.031
   0.37500000 -0.12500000  0.12500000       0.031
  -0.37500000 -0.12500000  0.12500000       0.031
  -0.12500000 -0.12500000  0.12500000       0.031
   0.12500000  0.12500000  0.37500000       0.031
   0.37500000  0.12500000  0.37500000       0.031
  -0.37500000  0.12500000  0.37500000       0.031
  -0.12500000  0.12500000  0.37500000       0.031
   0.12500000  0.37500000  0.37500000       0.031
   0.37500000  0.37500000  0.37500000       0.031
  -0.37500000  0.37500000  0.37500000       0.031
  -0.12500000  0.37500000  0.37500000       0.031
   0.12500000 -0.37500000  0.37500000       0.031
   0.37500000 -0.37500000  0.37500000       0.031
  -0.37500000 -0.37500000  0.37500000       0.031
  -0.12500000 -0.37500000  0.37500000       0.031
   0.12500000 -0.12500000  0.37500000       0.031
   0.37500000 -0.12500000  0.37500000       0.031
  -0.37500000 -0.12500000  0.37500000       0.031
  -0.12500000 -0.12500000  0.37500000       0.031
 
 position of ions in fractional coordinates (direct lattice) 
   0.99983409  0.99999999  0.00000049
   0.99974703  0.16641495  0.16641669
   0.00019330  0.33376715  0.00000051
   0.00199492  0.50000001  0.16866278
   0.00019329  0.66623288  0.00000049
   0.99974700  0.83358516  0.16641672
   0.00019331  0.99999999  0.33376843
   0.00199487  0.16866091  0.49999975
   0.99988839  0.33319187  0.33319311
   0.00183714  0.49999992  0.49999958
   0.99988840  0.66680819  0.33319313
   0.00199497  0.83133904  0.49999965
   0.00019332  0.99999998  0.66623130
   0.99974708  0.16641498  0.83358388
   0.99988838  0.33319187  0.66680660
   0.00199497  0.50000002  0.83133788
   0.99988839  0.66680820  0.66680659
   0.99974700  0.83358510  0.83358386
   0.16710058  0.00000002  0.16686275
   0.16710061  0.16686100  0.00000051
   0.16710061  0.83313909  0.00000048
   0.16764265  0.33430571  0.49999860
   0.16764252  0.50000107  0.33430716
   0.16764272  0.66569435  0.49999855
   0.16710061  0.00000000  0.83313784
   0.16764288  0.50000003  0.66569166
   0.16652588  0.33319123  0.16655777
   0.16652587  0.66680878  0.16655779
   0.16652594  0.16655601  0.33319258
   0.16652597  0.83344403  0.33319260
   0.16652593  0.16655594  0.66680714
   0.16652587  0.33319122  0.83344285
   0.16652589  0.66680881  0.83344282
   0.16652596  0.83344408  0.66680712
   0.16712475  0.50000001  0.00000044
   0.16712482  0.99999998  0.49999966
   0.33333455  0.00000001  0.00000051
   0.33333537  0.16865970  0.16866155
   0.33333535  0.83134040  0.16866144
   0.33333109  0.33430542  0.33430705
   0.33333100  0.66569460  0.33430700
   0.33333534  0.16865969  0.83133917
   0.33333104  0.33430531  0.66569277
   0.33333173  0.66569460  0.66569142
   0.33333538  0.83134035  0.83133901
   0.33333459  0.33379056  0.00000046
   0.33333467  0.50000000  0.16850700
   0.33333459  0.66620946  0.00000039
   0.33333459  0.00000002  0.33379199
   0.33333473  0.16850505  0.49999963
   0.33333461  0.83149489  0.49999961
   0.33333459  0.99999997  0.66620769
   0.33333463  0.50000004  0.83149365
   0.49956762  0.00000002  0.16686269
   0.49956760  0.16686101  0.00000048
   0.50014224  0.33319150  0.16655784
   0.49954350  0.49999999  0.00000033
   0.50014224  0.66680855  0.16655779
   0.49956760  0.83313907  0.00000040
   0.49954334  0.99999987  0.49999962
   0.50014220  0.16655602  0.33319288
   0.49902523  0.33430582  0.49999847
   0.49902459  0.50000065  0.33430987
   0.49902495  0.66569402  0.49999846
   0.50014214  0.83344403  0.33319285
   0.49956760  0.99999995  0.83313781
   0.50014220  0.16655599  0.66680681
   0.50014225  0.33319151  0.83344279
   0.50014228  0.66680859  0.83344278
   0.50014217  0.83344399  0.66680690
   0.66647261  0.33376746  0.00000043
   0.66467074  0.49999997  0.16866328
   0.66647262  0.66623264  0.00000034
   0.66647262  0.99999991  0.33376867
   0.66467100  0.16866056  0.49999954
   0.66467054  0.83133762  0.49999949
   0.66647262  0.99999985  0.66623104
   0.66467043  0.49999994  0.83133618
   0.66691917  0.16641496  0.16641672
   0.66691918  0.83358502  0.16641659
   0.66677726  0.33319189  0.33319335
   0.66677732  0.66680813  0.33319318
   0.66691913  0.16641492  0.83358381
   0.66677728  0.33319181  0.66680632
   0.66677731  0.66680825  0.66680657
   0.66691912  0.83358500  0.83358390
   0.66683203  0.99999995  0.00000050
   0.66482839  0.49999988  0.49999952
   0.83333213  0.50000001  0.00000043
   0.83333223  0.99999990  0.49999966
   0.83333231  0.33376724  0.16686260
   0.83333231  0.66623281  0.16686255
   0.83333231  0.16686084  0.33376851
   0.83333230  0.83313917  0.33376856
   0.83333228  0.16686081  0.66623117
   0.83333227  0.33376728  0.83313795
   0.83333222  0.66623279  0.83313791
   0.83333224  0.83313915  0.66623114
   0.83333215  0.00000000  0.16650328
   0.83333214  0.16650160  0.00000053
   0.83333215  0.83349846  0.00000053
   0.83333258  0.33379061  0.49999960
   0.83333265  0.49999995  0.33379200
   0.83333267  0.66620945  0.49999961
   0.83333213  0.99999997  0.83349725
   0.83333266  0.49999999  0.66620770
   0.49902436  0.49999997  0.66568839
 
 position of ions in cartesian coordinates  (Angst):
  10.33313238 10.33484693  0.00000508
  10.33223268  1.71987308  1.71989106
   0.00199776  3.44943245  0.00000527
   0.02061716  5.16742360  1.74310406
   0.00199762  6.88541494  0.00000504
  10.33223228  8.61497516  1.71989136
   0.00199786 10.33484698  3.44944564
   0.02061671  1.74308468  5.16742097
  10.33369361  3.44348700  3.44349987
   0.01898655  5.16742268  5.16741921
  10.33369372  6.89136069  3.44350008
   0.02061768  8.59176179  5.16741990
   0.00199798 10.33484685  6.88539863
  10.33223315  1.71987337  8.61496189
  10.33369352  3.44348699  6.89134420
   0.02061769  5.16742374  8.59174980
  10.33369358  6.89136077  6.89134408
  10.33223231  8.61497450  8.61496172
   1.72695896  0.00000022  1.72450104
   1.72695921  1.72448293  0.00000528
   1.72695922  8.61036511  0.00000496
   1.73256110  3.45499834  5.16740902
   1.73255975  5.16743457  3.45501338
   1.73256192  6.87984929  5.16740857
   1.72695925  0.00000003  8.61035219
   1.73256353  5.16742385  6.87982148
   1.72101946  3.44348045  1.72134909
   1.72101939  6.89136675  1.72134924
   1.72102016  1.72133088  3.44349431
   1.72102048  8.61351655  3.44349460
   1.72102002  1.72133012  6.89134983
   1.72101944  3.44348035  8.61350439
   1.72101965  6.89136705  8.61350407
   1.72102034  8.61351711  6.89134963
   1.72720870  5.16742363  0.00000455
   1.72720949 10.33484679  5.16741999
   3.44496160  0.00000011  0.00000527
   3.44497008  1.74307217  1.74309127
   3.44496983  8.59177588  1.74309022
   3.44492580  3.45499538  3.45501221
   3.44492487  6.87985187  3.45501173
   3.44496977  1.74307212  8.59176321
   3.44492528  3.45499426  6.87983298
   3.44493241  6.87985186  6.87981903
   3.44497016  8.59177536  8.59176153
   3.44496205  3.44967440  0.00000477
   3.44496283  5.16742353  1.74149406
   3.44496200  6.88517283  0.00000407
   3.44496196  0.00000020  3.44968916
   3.44496346  1.74147396  5.16741973
   3.44496219  8.59337250  5.16741946
   3.44496196 10.33484676  6.88515459
   3.44496246  5.16742392  8.59335967
   5.16295494  0.00000022  1.72450039
   5.16295469  1.72448298  0.00000493
   5.16889353  3.44348322  1.72134979
   5.16270569  5.16742347  0.00000345
   5.16889354  6.89136434  1.72134931
   5.16295473  8.61036483  0.00000412
   5.16270404 10.33484573  5.16741963
   5.16889311  1.72133103  3.44349748
   5.15734937  3.45499950  5.16740774
   5.15734280  5.16743022  3.45504140
   5.15734656  6.87984589  5.16740764
   5.16889248  8.61351654  3.44349716
   5.16295478 10.33484658  8.61035184
   5.16889313  1.72133071  6.89134640
   5.16889361  3.44348332  8.61350373
   5.16889393  6.89136481  8.61350366
   5.16889286  8.61351619  6.89134737
   6.88789248  3.44943566  0.00000439
   6.86927046  5.16742317  1.74310923
   6.88789263  6.88541247  0.00000347
   6.88789257 10.33484607  3.44944814
   6.86927311  1.74308111  5.16741881
   6.86926839  8.59174715  5.16741830
   6.88789259 10.33484548  6.88539586
   6.86926726  5.16742286  8.59173226
   6.89250758  1.71987319  1.71989131
   6.89250770  8.61497363  1.71989005
   6.89104095  3.44348719  3.44350236
   6.89104159  6.89136002  3.44350052
   6.89250721  1.71987277  8.61496116
   6.89104123  3.44348639  6.89134131
   6.89104149  6.89136131  6.89134390
   6.89250711  8.61497347  8.61496211
   6.89160699 10.33484657  0.00000521
   6.87089974  5.16742229  5.16741852
   8.61236006  5.16742367  0.00000440
   8.61236109 10.33484596  5.16741997
   8.61236198  3.44943333  1.72449945
   8.61236197  6.88541423  1.72449893
   8.61236191  1.72448124  3.44944653
   8.61236189  8.61036585  3.44944700
   8.61236168  1.72448098  6.88539722
   8.61236154  3.44943384  8.61035327
   8.61236100  6.88541402  8.61035290
   8.61236126  8.61036567  6.88539688
   8.61236034  0.00000005  1.72078588
   8.61236020  1.72076853  0.00000546
   8.61236030  8.61407905  0.00000547
   8.61236471  3.44967485  5.16741939
   8.61236545  5.16742301  3.44968922
   8.61236571  6.88517281  5.16741944
   8.61236008 10.33484672  8.61406657
   8.61236558  5.16742343  6.88515473
   5.15734043  5.16742321  6.87978774
 


--------------------------------------------------------------------------------------------------------


 k-point  1 :   0.1250 0.1250 0.1250  plane waves:   19996
 k-point  2 :   0.3750 0.1250 0.1250  plane waves:   20056
 k-point  3 :  -0.3750 0.1250 0.1250  plane waves:   20056
 k-point  4 :  -0.1250 0.1250 0.1250  plane waves:   19996
 k-point  5 :   0.1250 0.3750 0.1250  plane waves:   20056
 k-point  6 :   0.3750 0.3750 0.1250  plane waves:   20045
 k-point  7 :  -0.3750 0.3750 0.1250  plane waves:   20045
 k-point  8 :  -0.1250 0.3750 0.1250  plane waves:   20056
 k-point  9 :   0.1250-0.3750 0.1250  plane waves:   20056
 k-point 10 :   0.3750-0.3750 0.1250  plane waves:   20045
 k-point 11 :  -0.3750-0.3750 0.1250  plane waves:   20045
 k-point 12 :  -0.1250-0.3750 0.1250  plane waves:   20056
 k-point 13 :   0.1250-0.1250 0.1250  plane waves:   19996
 k-point 14 :   0.3750-0.1250 0.1250  plane waves:   20056
 k-point 15 :  -0.3750-0.1250 0.1250  plane waves:   20056
 k-point 16 :  -0.1250-0.1250 0.1250  plane waves:   19996
 k-point 17 :   0.1250 0.1250 0.3750  plane waves:   20056
 k-point 18 :   0.3750 0.1250 0.3750  plane waves:   20045
 k-point 19 :  -0.3750 0.1250 0.3750  plane waves:   20045
 k-point 20 :  -0.1250 0.1250 0.3750  plane waves:   20056
 k-point 21 :   0.1250 0.3750 0.3750  plane waves:   20045
 k-point 22 :   0.3750 0.3750 0.3750  plane waves:   20078
 k-point 23 :  -0.3750 0.3750 0.3750  plane waves:   20078
 k-point 24 :  -0.1250 0.3750 0.3750  plane waves:   20045
 k-point 25 :   0.1250-0.3750 0.3750  plane waves:   20045
 k-point 26 :   0.3750-0.3750 0.3750  plane waves:   20078
 k-point 27 :  -0.3750-0.3750 0.3750  plane waves:   20078
 k-point 28 :  -0.1250-0.3750 0.3750  plane waves:   20045
 k-point 29 :   0.1250-0.1250 0.3750  plane waves:   20056
 k-point 30 :   0.3750-0.1250 0.3750  plane waves:   20045
 k-point 31 :  -0.3750-0.1250 0.3750  plane waves:   20045
 k-point 32 :  -0.1250-0.1250 0.3750  plane waves:   20056

 maximum and minimum number of plane-waves per node :      5066     4975

 maximum number of plane-waves:     20078
 maximum index in each direction: 
   IXMAX=   17   IYMAX=   17   IZMAX=   16
   IXMIN=  -17   IYMIN=  -17   IZMIN=  -17


 real space projection operators:
  total allocation   :      71135.30 KBytes
  max/ min on nodes  :      18089.30      17500.78


 parallel 3D FFT for wavefunctions:
    minimum data exchange during FFTs selected (reduces bandwidth)
 parallel 3D FFT for charge:
    minimum data exchange during FFTs selected (reduces bandwidth)


 total amount of memory used by VASP MPI-rank0   822563. kBytes
=======================================================================

   base      :      30000. kBytes
   nonlr-proj:      31162. kBytes
   fftplans  :      15435. kBytes
   grid      :      21835. kBytes
   one-center:        419. kBytes
   wavefun   :     723712. kBytes
 
     INWAV:  cpu time    0.0000: real time    0.0001
 Broyden mixing: mesh for mixing (old mesh)
   NGX = 33   NGY = 33   NGZ = 33
  (NGX  =144   NGY  =144   NGZ  =144)
  gives a total of  35937 points

 initial charge density was supplied:
 charge density of overlapping atoms calculated
 number of electron     856.0000000 magnetization 
 keeping initial charge density in first step


--------------------------------------------------------------------------------------------------------


 Maximum index for non-local projection operator         1209
 Maximum index for augmentation-charges         1470 (set IRDMAX)


--------------------------------------------------------------------------------------------------------


 First call to EWALD:  gamma=   0.172
 Maximum number of real-space cells 3x 3x 3
 Maximum number of reciprocal cells 3x 3x 3

    FEWALD:  cpu time    0.0110: real time    0.0114


--------------------------------------- Iteration      1(   1)  ---------------------------------------


    POTLOK:  cpu time    0.3284: real time    0.3293
    SETDIJ:  cpu time    0.0538: real time    0.0537
     EDDAV:  cpu time  341.4802: real time  341.5748
       DOS:  cpu time    0.0317: real time    0.0317
    --------------------------------------------
      LOOP:  cpu time  341.8941: real time  341.9896

 eigenvalue-minimisations  : 32944
 total energy-change (2. order) : 0.7506500E+04  (-0.2862279E+05)
 number of electron     856.0000000 magnetization 
 augmentation part      856.0000000 magnetization 

 Free energy of the ion-electron system (eV)
  ---------------------------------------------------
  alpha Z        PSCENC =      7165.75404585
  Ewald energy   TEWEN  =    -65169.07515156
  -Hartree energ DENC   =    -11387.27950999
  -exchange      EXHF   =         0.00000000
  -V(xc)+E(xc)   XCENC  =       440.37528034
  PAW double counting   =     51244.96395782   -52061.72305433
  entropy T*S    EENTRO =        -0.00137438
  eigenvalues    EBANDS =     13666.27504703
  atomic energy  EATOM  =     63607.21096501
  Solvation  Ediel_sol  =         0.00000000
  ---------------------------------------------------
  free energy    TOTEN  =      7506.50020580 eV

  energy without entropy =     7506.50158018  energy(sigma->0) =     7506.50066393


--------------------------------------------------------------------------------------------------------




--------------------------------------- Iteration      1(   2)  ---------------------------------------


     EDDAV:  cpu time  338.3007: real time  338.3730
       DOS:  cpu time    0.0500: real time    0.0500
    --------------------------------------------
      LOOP:  cpu time  338.3507: real time  338.4230

 eigenvalue-minimisations  : 32896
 total energy-change (2. order) :-0.7531859E+04  (-0.7363743E+04)
 number of electron     856.0000000 magnetization 
 augmentation part      856.0000000 magnetization 

 Free energy of the ion-electron system (eV)
  ---------------------------------------------------
  alpha Z        PSCENC =      7165.75404585
  Ewald energy   TEWEN  =    -65169.07515156
  -Hartree energ DENC   =    -11387.27950999
  -exchange      EXHF   =         0.00000000
  -V(xc)+E(xc)   XCENC  =       440.37528034
  PAW double counting   =     51244.96395782   -52061.72305433
  entropy T*S    EENTRO =         0.00941536
  eigenvalues    EBANDS =      6134.40504343
  atomic energy  EATOM  =     63607.21096501
  Solvation  Ediel_sol  =         0.00000000
  ---------------------------------------------------
  free energy    TOTEN  =       -25.35900806 eV

  energy without entropy =      -25.36842342  energy(sigma->0) =      -25.36214651


--------------------------------------------------------------------------------------------------------




--------------------------------------- Iteration      1(   3)  ---------------------------------------


     EDDAV:  cpu time  341.7857: real time  341.8575
       DOS:  cpu time    0.0612: real time    0.0612
    --------------------------------------------
      LOOP:  cpu time  341.8469: real time  341.9187

 eigenvalue-minimisations  : 33144
 total energy-change (2. order) :-0.8167474E+03  (-0.6974145E+03)
 number of electron     856.0000000 magnetization 
 augmentation part      856.0000000 magnetization 

 Free energy of the ion-electron system (eV)
  ---------------------------------------------------
  alpha Z        PSCENC =      7165.75404585
  Ewald energy   TEWEN  =    -65169.07515156
  -Hartree energ DENC   =    -11387.27950999
  -exchange      EXHF   =         0.00000000
  -V(xc)+E(xc)   XCENC  =       440.37528034
  PAW double counting   =     51244.96395782   -52061.72305433
  entropy T*S    EENTRO =         0.01274914
  eigenvalues    EBANDS =      5317.65432723
  atomic energy  EATOM  =     63607.21096501
  Solvation  Ediel_sol  =         0.00000000
  ---------------------------------------------------
  free energy    TOTEN  =      -842.10639049 eV

  energy without entropy =     -842.11913962  energy(sigma->0) =     -842.11064020


--------------------------------------------------------------------------------------------------------




--------------------------------------- Iteration      1(   4)  ---------------------------------------


     EDDAV:  cpu time  555.4512: real time  555.5841
       DOS:  cpu time    0.0634: real time    0.0634
    --------------------------------------------
      LOOP:  cpu time  555.5146: real time  555.6475

 eigenvalue-minimisations  : 59888
 total energy-change (2. order) :-0.1754259E+03  (-0.1645416E+03)
 number of electron     856.0000000 magnetization 
 augmentation part      856.0000000 magnetization 

 Free energy of the ion-electron system (eV)
  ---------------------------------------------------
  alpha Z        PSCENC =      7165.75404585
  Ewald energy   TEWEN  =    -65169.07515156
  -Hartree energ DENC   =    -11387.27950999
  -exchange      EXHF   =         0.00000000
  -V(xc)+E(xc)   XCENC  =       440.37528034
  PAW double counting   =     51244.96395782   -52061.72305433
  entropy T*S    EENTRO =        -0.02203715
  eigenvalues    EBANDS =      5142.26325030
  atomic energy  EATOM  =     63607.21096501
  Solvation  Ediel_sol  =         0.00000000
  ---------------------------------------------------
  free energy    TOTEN  =     -1017.53225370 eV

  energy without entropy =    -1017.51021655  energy(sigma->0) =    -1017.52490798


--------------------------------------------------------------------------------------------------------




--------------------------------------- Iteration      1(   5)  ---------------------------------------


     EDDAV:  cpu time  498.4808: real time  498.5874
       DOS:  cpu time    0.0630: real time    0.0631
    CHARGE:  cpu time   15.0258: real time   15.0262
    MIXING:  cpu time    0.0081: real time    0.0081
    --------------------------------------------
      LOOP:  cpu time  513.5778: real time  513.6848

 eigenvalue-minimisations  : 52592
 total energy-change (2. order) :-0.1502625E+02  (-0.1416326E+02)
 number of electron     856.0000596 magnetization 
 augmentation part      379.2757718 magnetization 

 Broyden mixing:
  rms(total) = 0.93040E+01    rms(broyden)= 0.93035E+01
  rms(prec ) = 0.11626E+02
  weight for this iteration     100.00

 Free energy of the ion-electron system (eV)
  ---------------------------------------------------
  alpha Z        PSCENC =      7165.75404585
  Ewald energy   TEWEN  =    -65169.07515156
  -Hartree energ DENC   =    -11387.27950999
  -exchange      EXHF   =         0.00000000
  -V(xc)+E(xc)   XCENC  =       440.37528034
  PAW double counting   =     51244.96395782   -52061.72305433
  entropy T*S    EENTRO =        -0.05238405
  eigenvalues    EBANDS =      5127.26734949
  atomic energy  EATOM  =     63607.21096501
  Solvation  Ediel_sol  =         0.00000000
  ---------------------------------------------------
  free energy    TOTEN  =     -1032.55850142 eV

  energy without entropy =    -1032.50611737  energy(sigma->0) =    -1032.54104007


--------------------------------------------------------------------------------------------------------




--------------------------------------- Iteration      1(   6)  ---------------------------------------


    POTLOK:  cpu time    0.2952: real time    0.2964
    SETDIJ:  cpu time    0.0544: real time    0.0544
    EDDIAG:  cpu time   42.8652: real time   42.8754
  RMM-DIIS:  cpu time  203.2666: real time  203.2672
    ORTHCH:  cpu time    8.4233: real time    8.4229
       DOS:  cpu time    0.0710: real time    0.0710
    CHARGE:  cpu time   15.9120: real time   15.9114
    MIXING:  cpu time    0.0082: real time    0.0082
    --------------------------------------------
      LOOP:  cpu time  270.8958: real time  270.9069

 eigenvalue-minimisations  : 32956
 total energy-change (2. order) : 0.1530219E+03  (-0.1397352E+03)
 number of electron     856.0000652 magnetization 
 augmentation part      444.0961530 magnetization 

 Broyden mixing:
  rms(total) = 0.37811E+01    rms(broyden)= 0.37799E+01
  rms(prec ) = 0.62505E+01
  weight for this iteration     100.00

 eigenvalues of (default mixing * dielectric matrix)
  average eigenvalue GAMMA=   0.8258
  0.8258

 Free energy of the ion-electron system (eV)
  ---------------------------------------------------
  alpha Z        PSCENC =      7165.75404585
  Ewald energy   TEWEN  =    -65169.07515156
  -Hartree energ DENC   =     -9550.16623929
  -exchange      EXHF   =         0.00000000
  -V(xc)+E(xc)   XCENC  =       350.30724824
  PAW double counting   =     51912.75306169   -52487.50455028
  entropy T*S    EENTRO =         0.02258112
  eigenvalues    EBANDS =      3291.16139876
  atomic energy  EATOM  =     63607.21096501
  Solvation  Ediel_sol  =         0.00000000
  ---------------------------------------------------
  free energy    TOTEN  =      -879.53664045 eV

  energy without entropy =     -879.55922156  energy(sigma->0) =     -879.54416749


--------------------------------------------------------------------------------------------------------




--------------------------------------- Iteration      1(   7)  ---------------------------------------


    POTLOK:  cpu time    0.3152: real time    0.3161
    SETDIJ:  cpu time    0.0550: real time    0.0550
    EDDIAG:  cpu time   42.7171: real time   42.7163
  RMM-DIIS:  cpu time  257.8811: real time  257.8746
    ORTHCH:  cpu time    8.1565: real time    8.1563
       DOS:  cpu time    0.0592: real time    0.0592
    CHARGE:  cpu time   14.5886: real time   14.5880
    MIXING:  cpu time    0.0077: real time    0.0077
    --------------------------------------------
      LOOP:  cpu time  323.7804: real time  323.7732

 eigenvalue-minimisations  : 44580
 total energy-change (2. order) :-0.2612648E+03  (-0.3740357E+02)
 number of electron     856.0000758 magnetization 
 augmentation part      461.6445153 magnetization 

 Broyden mixing:
  rms(total) = 0.16802E+02    rms(broyden)= 0.16801E+02
  rms(prec ) = 0.33052E+02
  weight for this iteration     100.00

 eigenvalues of (default mixing * dielectric matrix)
  average eigenvalue GAMMA=   0.5190
  0.9016  0.1364

 Free energy of the ion-electron system (eV)
  ---------------------------------------------------
  alpha Z        PSCENC =      7165.75404585
  Ewald energy   TEWEN  =    -65169.07515156
  -Hartree energ DENC   =     -9579.20406557
  -exchange      EXHF   =         0.00000000
  -V(xc)+E(xc)   XCENC  =       354.58713967
  PAW double counting   =     53365.63220056   -54095.14874380
  entropy T*S    EENTRO =        -0.02164442
  eigenvalues    EBANDS =      3209.46382693
  atomic energy  EATOM  =     63607.21096501
  Solvation  Ediel_sol  =         0.00000000
  ---------------------------------------------------
  free energy    TOTEN  =     -1140.80142731 eV

  energy without entropy =    -1140.77978289  energy(sigma->0) =    -1140.79421251


--------------------------------------------------------------------------------------------------------




--------------------------------------- Iteration      1(   8)  ---------------------------------------


    POTLOK:  cpu time    0.2943: real time    0.2947
    SETDIJ:  cpu time    0.0536: real time    0.0535
    EDDIAG:  cpu time   41.7248: real time   41.7244
  RMM-DIIS:  cpu time  192.2123: real time  192.2100
    ORTHCH:  cpu time    8.1618: real time    8.1616
       DOS:  cpu time    0.0716: real time    0.0716
    CHARGE:  cpu time   14.5800: real time   14.5797
    MIXING:  cpu time    0.0092: real time    0.0092
    --------------------------------------------
      LOOP:  cpu time  257.1077: real time  257.1047

 eigenvalue-minimisations  : 32915
 total energy-change (2. order) : 0.2619122E+03  (-0.1835501E+02)
 number of electron     856.0000649 magnetization 
 augmentation part      442.6768575 magnetization 

 Broyden mixing:
  rms(total) = 0.44347E+01    rms(broyden)= 0.44312E+01
  rms(prec ) = 0.68114E+01
  weight for this iteration     100.00

 eigenvalues of (default mixing * dielectric matrix)
  average eigenvalue GAMMA=   0.3842
  0.9073  0.1541  0.0913

 Free energy of the ion-electron system (eV)
  ---------------------------------------------------
  alpha Z        PSCENC =      7165.75404585
  Ewald energy   TEWEN  =    -65169.07515156
  -Hartree energ DENC   =     -9650.91212039
  -exchange      EXHF   =         0.00000000
  -V(xc)+E(xc)   XCENC  =       357.73615644
  PAW double counting   =     53940.61147650   -54729.84516220
  entropy T*S    EENTRO =        -0.10126968
  eigenvalues    EBANDS =      3599.73188096
  atomic energy  EATOM  =     63607.21096501
  Solvation  Ediel_sol  =         0.00000000
  ---------------------------------------------------
  free energy    TOTEN  =      -878.88917905 eV

  energy without entropy =     -878.78790937  energy(sigma->0) =     -878.85542249


--------------------------------------------------------------------------------------------------------




--------------------------------------- Iteration      1(   9)  ---------------------------------------


    POTLOK:  cpu time    0.2936: real time    0.2947
    SETDIJ:  cpu time    0.0538: real time    0.0539
    EDDIAG:  cpu time   40.9757: real time   40.9744
  RMM-DIIS:  cpu time  229.3690: real time  229.3646
    ORTHCH:  cpu time    8.1673: real time    8.1670
       DOS:  cpu time    0.0711: real time    0.0711
    CHARGE:  cpu time   14.6089: real time   14.6082
    MIXING:  cpu time    0.0073: real time    0.0073
    --------------------------------------------
      LOOP:  cpu time  293.5467: real time  293.5411

 eigenvalue-minimisations  : 40169
 total energy-change (2. order) : 0.8815822E+01  (-0.5665264E+01)
 number of electron     856.0000653 magnetization 
 augmentation part      441.8173210 magnetization 

 Broyden mixing:
  rms(total) = 0.13286E+01    rms(broyden)= 0.13240E+01
  rms(prec ) = 0.21396E+01
  weight for this iteration     100.00

 eigenvalues of (default mixing * dielectric matrix)
  average eigenvalue GAMMA=   0.3952
  0.9138  0.4398  0.1135  0.1135

 Free energy of the ion-electron system (eV)
  ---------------------------------------------------
  alpha Z        PSCENC =      7165.75404585
  Ewald energy   TEWEN  =    -65169.07515156
  -Hartree energ DENC   =     -9651.29591552
  -exchange      EXHF   =         0.00000000
  -V(xc)+E(xc)   XCENC  =       357.80814150
  PAW double counting   =     54136.29624854   -54936.28327720
  entropy T*S    EENTRO =        -0.05480174
  eigenvalues    EBANDS =      3619.56638773
  atomic energy  EATOM  =     63607.21096501
  Solvation  Ediel_sol  =         0.00000000
  ---------------------------------------------------
  free energy    TOTEN  =      -870.07335737 eV

  energy without entropy =     -870.01855564  energy(sigma->0) =     -870.05509013


--------------------------------------------------------------------------------------------------------




--------------------------------------- Iteration      1(  10)  ---------------------------------------


    POTLOK:  cpu time    0.2820: real time    0.2826
    SETDIJ:  cpu time    0.0545: real time    0.0545
    EDDIAG:  cpu time   41.7542: real time   41.7538
  RMM-DIIS:  cpu time  254.1818: real time  254.1894
    ORTHCH:  cpu time    8.3073: real time    8.3074
       DOS:  cpu time    0.0696: real time    0.0696
    CHARGE:  cpu time   15.0072: real time   15.0068
    MIXING:  cpu time    0.0092: real time    0.0092
    --------------------------------------------
      LOOP:  cpu time  319.6658: real time  319.6732

 eigenvalue-minimisations  : 43343
 total energy-change (2. order) :-0.2067558E+01  (-0.2301061E+01)
 number of electron     856.0000646 magnetization 
 augmentation part      441.2318569 magnetization 

 Broyden mixing:
  rms(total) = 0.21500E+01    rms(broyden)= 0.21489E+01
  rms(prec ) = 0.32979E+01
  weight for this iteration     100.00

 eigenvalues of (default mixing * dielectric matrix)
  average eigenvalue GAMMA=   0.4368
  0.9993  0.8435  0.1221  0.1097  0.1097

 Free energy of the ion-electron system (eV)
  ---------------------------------------------------
  alpha Z        PSCENC =      7165.75404585
  Ewald energy   TEWEN  =    -65169.07515156
  -Hartree energ DENC   =     -9646.42397513
  -exchange      EXHF   =         0.00000000
  -V(xc)+E(xc)   XCENC  =       357.86886617
  PAW double counting   =     54663.11404664   -55488.98653830
  entropy T*S    EENTRO =        -0.02761581
  eigenvalues    EBANDS =      3638.42444165
  atomic energy  EATOM  =     63607.21096501
  Solvation  Ediel_sol  =         0.00000000
  ---------------------------------------------------
  free energy    TOTEN  =      -872.14091547 eV

  energy without entropy =     -872.11329965  energy(sigma->0) =     -872.13171019


--------------------------------------------------------------------------------------------------------




--------------------------------------- Iteration      1(  11)  ---------------------------------------


    POTLOK:  cpu time    0.3054: real time    0.3066
    SETDIJ:  cpu time    0.0543: real time    0.0543
    EDDIAG:  cpu time   42.3821: real time   42.3833
  RMM-DIIS:  cpu time  220.5961: real time  220.6020
    ORTHCH:  cpu time    8.4419: real time    8.4416
       DOS:  cpu time    0.0693: real time    0.0693
    CHARGE:  cpu time   15.4925: real time   15.4924
    MIXING:  cpu time    0.0095: real time    0.0095
    --------------------------------------------
      LOOP:  cpu time  287.3511: real time  287.3590

 eigenvalue-minimisations  : 36857
 total energy-change (2. order) : 0.2545645E+01  (-0.6173600E+00)
 number of electron     856.0000650 magnetization 
 augmentation part      440.3955637 magnetization 

 Broyden mixing:
  rms(total) = 0.84964E+00    rms(broyden)= 0.84820E+00
  rms(prec ) = 0.15437E+01
  weight for this iteration     100.00

 eigenvalues of (default mixing * dielectric matrix)
  average eigenvalue GAMMA=   0.4149
  1.0879  0.8580  0.1955  0.1281  0.1281  0.0921

 Free energy of the ion-electron system (eV)
  ---------------------------------------------------
  alpha Z        PSCENC =      7165.75404585
  Ewald energy   TEWEN  =    -65169.07515156
  -Hartree energ DENC   =     -9641.49710441
  -exchange      EXHF   =         0.00000000
  -V(xc)+E(xc)   XCENC  =       357.94679274
  PAW double counting   =     55222.38890873   -56075.19222216
  entropy T*S    EENTRO =        -0.04603101
  eigenvalues    EBANDS =      3662.91452636
  atomic energy  EATOM  =     63607.21096501
  Solvation  Ediel_sol  =         0.00000000
  ---------------------------------------------------
  free energy    TOTEN  =      -869.59527044 eV

  energy without entropy =     -869.54923942  energy(sigma->0) =     -869.57992676


--------------------------------------------------------------------------------------------------------




--------------------------------------- Iteration      1(  12)  ---------------------------------------


    POTLOK:  cpu time    0.3126: real time    0.3138
    SETDIJ:  cpu time    0.0549: real time    0.0549
    EDDIAG:  cpu time   43.5451: real time   43.5439
  RMM-DIIS:  cpu time  297.7200: real time  297.7261
    ORTHCH:  cpu time    8.2859: real time    8.2856
       DOS:  cpu time    0.0703: real time    0.0703
    CHARGE:  cpu time   14.7125: real time   14.7331
    MIXING:  cpu time    0.0088: real time    0.0088
    --------------------------------------------
      LOOP:  cpu time  364.7100: real time  364.7365

 eigenvalue-minimisations  : 49874
 total energy-change (2. order) :-0.1973813E+00  (-0.5531185E+00)
 number of electron     856.0000647 magnetization 
 augmentation part      440.1575430 magnetization 

 Broyden mixing:
  rms(total) = 0.88672E+00    rms(broyden)= 0.88615E+00
  rms(prec ) = 0.17053E+01
  weight for this iteration     100.00

 eigenvalues of (default mixing * dielectric matrix)
  average eigenvalue GAMMA=   0.5154
  1.5103  0.8352  0.8352  0.1212  0.1212  0.0979  0.0872

 Free energy of the ion-electron system (eV)
  ---------------------------------------------------
  alpha Z        PSCENC =      7165.75404585
  Ewald energy   TEWEN  =    -65169.07515156
  -Hartree energ DENC   =     -9637.49919523
  -exchange      EXHF   =         0.00000000
  -V(xc)+E(xc)   XCENC  =       357.87649727
  PAW double counting   =     55444.46712619   -56306.98172070
  entropy T*S    EENTRO =        -0.04910389
  eigenvalues    EBANDS =      3668.50388527
  atomic energy  EATOM  =     63607.21096501
  Solvation  Ediel_sol  =         0.00000000
  ---------------------------------------------------
  free energy    TOTEN  =      -869.79265177 eV

  energy without entropy =     -869.74354788  energy(sigma->0) =     -869.77628381


--------------------------------------------------------------------------------------------------------




--------------------------------------- Iteration      1(  13)  ---------------------------------------


    POTLOK:  cpu time    0.2966: real time    0.2973
    SETDIJ:  cpu time    0.0539: real time    0.0539
    EDDIAG:  cpu time   43.4080: real time   43.4110
  RMM-DIIS:  cpu time  233.9453: real time  233.9830
    ORTHCH:  cpu time    8.4307: real time    8.4303
       DOS:  cpu time    0.0723: real time    0.0723
    CHARGE:  cpu time   15.5436: real time   15.5435
    MIXING:  cpu time    0.0114: real time    0.0114
    --------------------------------------------
      LOOP:  cpu time  301.7619: real time  301.8027

 eigenvalue-minimisations  : 38279
 total energy-change (2. order) : 0.5062695E+00  (-0.1545483E+00)
 number of electron     856.0000653 magnetization 
 augmentation part      439.5695103 magnetization 

 Broyden mixing:
  rms(total) = 0.62248E+00    rms(broyden)= 0.62139E+00
  rms(prec ) = 0.95371E+00
  weight for this iteration     100.00

 eigenvalues of (default mixing * dielectric matrix)
  average eigenvalue GAMMA=   0.4857
  1.6196  0.8531  0.8531  0.1332  0.1332  0.1111  0.1022  0.0803

 Free energy of the ion-electron system (eV)
  ---------------------------------------------------
  alpha Z        PSCENC =      7165.75404585
  Ewald energy   TEWEN  =    -65169.07515156
  -Hartree energ DENC   =     -9615.87786030
  -exchange      EXHF   =         0.00000000
  -V(xc)+E(xc)   XCENC  =       357.32589022
  PAW double counting   =     56410.82396122   -57313.51961699
  entropy T*S    EENTRO =        -0.06287582
  eigenvalues    EBANDS =      3688.13426004
  atomic energy  EATOM  =     63607.21096501
  Solvation  Ediel_sol  =         0.00000000
  ---------------------------------------------------
  free energy    TOTEN  =      -869.28638230 eV

  energy without entropy =     -869.22350649  energy(sigma->0) =     -869.26542370


--------------------------------------------------------------------------------------------------------




--------------------------------------- Iteration      1(  14)  ---------------------------------------


    POTLOK:  cpu time    0.3147: real time    0.3159
    SETDIJ:  cpu time    0.0560: real time    0.0560
    EDDIAG:  cpu time   42.2447: real time   42.2440
  RMM-DIIS:  cpu time  278.1088: real time  278.1147
    ORTHCH:  cpu time    8.4333: real time    8.4330
       DOS:  cpu time    0.0725: real time    0.0725
    CHARGE:  cpu time   15.3271: real time   15.3264
    MIXING:  cpu time    0.0107: real time    0.0107
    --------------------------------------------
      LOOP:  cpu time  344.5677: real time  344.5732

 eigenvalue-minimisations  : 45917
 total energy-change (2. order) : 0.4350679E-01  (-0.9293331E-01)
 number of electron     856.0000650 magnetization 
 augmentation part      439.6381214 magnetization 

 Broyden mixing:
  rms(total) = 0.57556E+00    rms(broyden)= 0.57541E+00
  rms(prec ) = 0.94882E+00
  weight for this iteration     100.00

 eigenvalues of (default mixing * dielectric matrix)
  average eigenvalue GAMMA=   0.4966
  1.7785  0.9040  0.9040  0.3532  0.1260  0.1116  0.1116  0.0864  0.0943

 Free energy of the ion-electron system (eV)
  ---------------------------------------------------
  alpha Z        PSCENC =      7165.75404585
  Ewald energy   TEWEN  =    -65169.07515156
  -Hartree energ DENC   =     -9607.71959055
  -exchange      EXHF   =         0.00000000
  -V(xc)+E(xc)   XCENC  =       357.01064660
  PAW double counting   =     56566.73162668   -57474.70785516
  entropy T*S    EENTRO =        -0.06089242
  eigenvalues    EBANDS =      3685.61333003
  atomic energy  EATOM  =     63607.21096501
  Solvation  Ediel_sol  =         0.00000000
  ---------------------------------------------------
  free energy    TOTEN  =      -869.24287551 eV

  energy without entropy =     -869.18198309  energy(sigma->0) =     -869.22257804


--------------------------------------------------------------------------------------------------------




--------------------------------------- Iteration      1(  15)  ---------------------------------------


    POTLOK:  cpu time    0.2930: real time    0.2940
    SETDIJ:  cpu time    0.0559: real time    0.0559
    EDDIAG:  cpu time   42.0745: real time   42.0741
  RMM-DIIS:  cpu time  240.0830: real time  240.0867
    ORTHCH:  cpu time    8.1194: real time    8.1191
       DOS:  cpu time    0.0681: real time    0.0681
    CHARGE:  cpu time   14.9782: real time   14.9777
    MIXING:  cpu time    0.0113: real time    0.0113
    --------------------------------------------
      LOOP:  cpu time  305.6832: real time  305.6869

 eigenvalue-minimisations  : 39748
 total energy-change (2. order) : 0.9495675E-01  (-0.2552246E-01)
 number of electron     856.0000649 magnetization 
 augmentation part      440.0352429 magnetization 

 Broyden mixing:
  rms(total) = 0.46348E+00    rms(broyden)= 0.46336E+00
  rms(prec ) = 0.79242E+00
  weight for this iteration     100.00

 eigenvalues of (default mixing * dielectric matrix)
  average eigenvalue GAMMA=   0.4925
  1.9287  0.9564  0.9564  0.4421  0.1395  0.1174  0.1174  0.1006  0.0891  0.0777

 Free energy of the ion-electron system (eV)
  ---------------------------------------------------
  alpha Z        PSCENC =      7165.75404585
  Ewald energy   TEWEN  =    -65169.07515156
  -Hartree energ DENC   =     -9590.34662881
  -exchange      EXHF   =         0.00000000
  -V(xc)+E(xc)   XCENC  =       356.28377477
  PAW double counting   =     56780.26114154   -57693.77977500
  entropy T*S    EENTRO =        -0.06099362
  eigenvalues    EBANDS =      3674.60470305
  atomic energy  EATOM  =     63607.21096501
  Solvation  Ediel_sol  =         0.00000000
  ---------------------------------------------------
  free energy    TOTEN  =      -869.14791876 eV

  energy without entropy =     -869.08692514  energy(sigma->0) =     -869.12758755


--------------------------------------------------------------------------------------------------------




--------------------------------------- Iteration      1(  16)  ---------------------------------------


    POTLOK:  cpu time    0.2897: real time    0.2903
    SETDIJ:  cpu time    0.0571: real time    0.0571
    EDDIAG:  cpu time   43.5433: real time   43.5520
  RMM-DIIS:  cpu time  222.6923: real time  222.7005
    ORTHCH:  cpu time    8.1098: real time    8.1095
       DOS:  cpu time    0.0720: real time    0.0720
    CHARGE:  cpu time   14.9491: real time   14.9487
    MIXING:  cpu time    0.0100: real time    0.0100
    --------------------------------------------
      LOOP:  cpu time  289.7235: real time  289.7401

 eigenvalue-minimisations  : 36542
 total energy-change (2. order) : 0.1059792E+00  (-0.2604224E-01)
 number of electron     856.0000651 magnetization 
 augmentation part      440.5452137 magnetization 

 Broyden mixing:
  rms(total) = 0.18906E+00    rms(broyden)= 0.18876E+00
  rms(prec ) = 0.33010E+00
  weight for this iteration     100.00

 eigenvalues of (default mixing * dielectric matrix)
  average eigenvalue GAMMA=   0.5592
  2.1800  0.9828  0.9162  0.9162  0.5401  0.1216  0.1179  0.1179  0.0981  0.0849
  0.0756

 Free energy of the ion-electron system (eV)
  ---------------------------------------------------
  alpha Z        PSCENC =      7165.75404585
  Ewald energy   TEWEN  =    -65169.07515156
  -Hartree energ DENC   =     -9569.78244502
  -exchange      EXHF   =         0.00000000
  -V(xc)+E(xc)   XCENC  =       355.42222242
  PAW double counting   =     57031.96254385   -57951.68860556
  entropy T*S    EENTRO =        -0.06294489
  eigenvalues    EBANDS =      3661.21743035
  atomic energy  EATOM  =     63607.21096501
  Solvation  Ediel_sol  =         0.00000000
  ---------------------------------------------------
  free energy    TOTEN  =      -869.04193953 eV

  energy without entropy =     -868.97899465  energy(sigma->0) =     -869.02095790


--------------------------------------------------------------------------------------------------------




--------------------------------------- Iteration      1(  17)  ---------------------------------------


    POTLOK:  cpu time    0.3056: real time    0.3061
    SETDIJ:  cpu time    0.0537: real time    0.0536
    EDDIAG:  cpu time   43.2423: real time   43.2425
  RMM-DIIS:  cpu time  270.4154: real time  270.4232
    ORTHCH:  cpu time    8.4014: real time    8.4011
       DOS:  cpu time    0.0725: real time    0.0725
    CHARGE:  cpu time   15.7287: real time   15.7282
    MIXING:  cpu time    0.0125: real time    0.0125
    --------------------------------------------
      LOOP:  cpu time  338.2320: real time  338.2398

 eigenvalue-minimisations  : 44848
 total energy-change (2. order) :-0.2693369E-01  (-0.2598593E-01)
 number of electron     856.0000650 magnetization 
 augmentation part      440.6902922 magnetization 

 Broyden mixing:
  rms(total) = 0.27406E+00    rms(broyden)= 0.27394E+00
  rms(prec ) = 0.42682E+00
  weight for this iteration     100.00

 eigenvalues of (default mixing * dielectric matrix)
  average eigenvalue GAMMA=   0.5470
[...]
   0.112E-01 -.872E+01 0.870E+01   -.112E-01 0.855E+01 -.854E+01   0.982E-05 0.166E+00 -.166E+00   -.176E-03 0.113E-02 0.142E-02
   -.300E-02 -.958E+02 0.958E+02   0.354E-02 0.959E+02 -.959E+02   -.815E-04 -.684E-01 0.682E-01   -.217E-03 0.455E-03 0.266E-02
   -.191E-03 0.958E+02 0.958E+02   0.500E-03 -.959E+02 -.959E+02   -.741E-04 0.683E-01 0.683E-01   -.671E-04 0.251E-05 0.245E-02
   0.115E-01 0.872E+01 0.870E+01   -.122E-01 -.855E+01 -.854E+01   0.506E-05 -.166E+00 -.166E+00   0.489E-03 -.347E-03 0.110E-02
   0.965E-02 -.924E+01 0.507E-02   -.100E-01 0.925E+01 -.497E-02   -.214E-04 -.634E-02 0.552E-05   0.315E-03 -.456E-04 -.131E-03
   0.526E-02 0.220E-02 -.496E+02   -.585E-02 -.105E-02 0.497E+02   -.689E-04 0.797E-04 -.126E+00   0.565E-03 -.120E-02 -.130E-02
   0.938E-02 0.924E+01 0.604E-02   -.103E-01 -.925E+01 -.563E-02   0.923E-06 0.633E-02 0.236E-04   0.771E-03 0.170E-03 -.461E-03
   0.101E-01 -.643E-03 -.923E+01   -.109E-01 0.737E-03 0.923E+01   -.268E-05 0.200E-04 -.631E-02   0.700E-03 -.119E-03 -.239E-02
   0.806E-02 -.496E+02 -.638E-02   -.888E-02 0.497E+02 0.618E-02   -.172E-04 -.126E+00 -.841E-05   0.712E-03 0.116E-02 0.240E-03
   0.836E-02 0.496E+02 -.664E-02   -.885E-02 -.497E+02 0.599E-02   -.301E-04 0.126E+00 -.806E-05   0.408E-03 -.417E-03 0.696E-03
   0.101E-01 -.288E-03 0.922E+01   -.109E-01 0.737E-03 -.923E+01   0.241E-05 0.274E-04 0.629E-02   0.675E-03 -.478E-03 0.301E-02
   0.558E-02 -.129E-03 0.496E+02   -.589E-02 0.901E-03 -.497E+02   -.539E-04 0.437E-04 0.126E+00   0.272E-03 -.781E-03 0.129E-02
   0.805E+01 -.364E-03 -.406E+01   -.806E+01 0.409E-03 0.400E+01   0.154E-01 0.714E-05 0.713E-01   0.297E-02 -.586E-04 -.160E-02
   0.805E+01 -.409E+01 0.507E-02   -.806E+01 0.402E+01 -.496E-02   0.155E-01 0.712E-01 0.420E-05   0.261E-02 0.125E-02 -.146E-03
   0.151E+02 -.151E+02 -.244E+02   -.151E+02 0.151E+02 0.244E+02   -.236E-02 0.237E-02 0.121E-01   0.241E-02 0.171E-03 -.128E-02
   0.924E+01 0.774E-03 0.543E-02   -.925E+01 -.964E-04 -.547E-02   0.636E-02 0.798E-04 0.121E-04   0.250E-02 -.730E-03 -.464E-05
   0.151E+02 0.151E+02 -.244E+02   -.151E+02 -.151E+02 0.244E+02   -.236E-02 -.239E-02 0.121E-01   0.272E-02 -.104E-03 -.190E-02
   0.805E+01 0.409E+01 0.527E-02   -.806E+01 -.402E+01 -.469E-02   0.154E-01 -.713E-01 0.168E-04   0.296E-02 -.512E-03 -.619E-03
   0.924E+01 -.400E-03 -.580E-02   -.925E+01 0.455E-03 0.540E-02   0.634E-02 0.510E-04 -.644E-05   0.291E-02 -.112E-03 0.442E-03
   0.151E+02 -.244E+02 -.150E+02   -.151E+02 0.244E+02 0.150E+02   -.240E-02 0.121E-01 0.247E-02   0.297E-02 0.141E-02 -.243E-02
   0.958E+02 -.958E+02 -.878E-02   -.959E+02 0.959E+02 0.917E-02   0.683E-01 -.684E-01 -.441E-06   0.229E-02 -.196E-03 -.244E-03
   0.958E+02 0.460E-02 -.958E+02   -.959E+02 -.338E-02 0.959E+02   0.683E-01 0.673E-04 -.682E-01   0.176E-02 -.132E-02 -.283E-02
   0.958E+02 0.958E+02 -.938E-02   -.959E+02 -.959E+02 0.921E-02   0.683E-01 0.684E-01 -.166E-04   0.162E-02 0.283E-03 0.323E-03
   0.151E+02 0.244E+02 -.150E+02   -.151E+02 -.244E+02 0.150E+02   -.238E-02 -.122E-01 0.244E-02   0.274E-02 -.838E-04 -.238E-02
   0.805E+01 -.260E-03 0.407E+01   -.806E+01 0.797E-03 -.400E+01   0.154E-01 0.202E-04 -.713E-01   0.259E-02 -.544E-03 0.116E-02
   0.151E+02 -.244E+02 0.150E+02   -.151E+02 0.244E+02 -.150E+02   -.237E-02 0.121E-01 -.247E-02   0.280E-02 0.831E-03 0.258E-02
   0.151E+02 -.151E+02 0.244E+02   -.151E+02 0.151E+02 -.244E+02   -.235E-02 0.236E-02 -.121E-01   0.237E-02 -.599E-04 0.151E-02
   0.151E+02 0.151E+02 0.244E+02   -.151E+02 -.151E+02 -.244E+02   -.236E-02 -.238E-02 -.121E-01   0.237E-02 0.613E-03 0.157E-02
   0.151E+02 0.244E+02 0.150E+02   -.151E+02 -.244E+02 -.150E+02   -.239E-02 -.122E-01 -.245E-02   0.226E-02 -.616E-04 0.300E-02
   0.408E+01 -.805E+01 0.542E-02   -.401E+01 0.806E+01 -.537E-02   -.712E-01 -.155E-01 0.466E-05   0.187E-02 -.122E-03 -.922E-04
   0.871E+01 0.126E-02 -.870E+01   -.855E+01 -.485E-03 0.853E+01   -.166E+00 0.708E-04 0.166E+00   0.136E-02 -.828E-03 -.184E-02
   0.408E+01 0.805E+01 0.519E-02   -.401E+01 -.806E+01 -.506E-02   -.712E-01 0.155E-01 0.370E-04   0.192E-02 0.602E-03 -.186E-03
   0.408E+01 -.544E-04 -.803E+01   -.401E+01 -.140E-03 0.805E+01   -.712E-01 0.225E-04 -.154E-01   0.200E-02 0.164E-03 -.238E-02
   0.871E+01 -.872E+01 -.590E-02   -.854E+01 0.856E+01 0.582E-02   -.166E+00 0.166E+00 0.102E-04   0.186E-02 0.946E-03 0.111E-03
   0.871E+01 0.872E+01 -.600E-02   -.854E+01 -.855E+01 0.584E-02   -.166E+00 -.166E+00 -.262E-04   0.137E-02 0.471E-03 0.210E-03
   0.408E+01 -.193E-03 0.803E+01   -.401E+01 0.793E-04 -.804E+01   -.712E-01 0.628E-04 0.154E-01   0.168E-02 0.570E-04 0.262E-02
   0.871E+01 0.109E-02 0.870E+01   -.855E+01 -.364E-03 -.854E+01   -.166E+00 0.311E-04 -.166E+00   0.166E-02 -.743E-03 0.192E-02
   0.707E+01 -.708E+01 -.706E+01   -.708E+01 0.708E+01 0.706E+01   0.877E-02 -.875E-02 -.873E-02   0.210E-02 0.891E-03 -.158E-02
   0.707E+01 0.708E+01 -.706E+01   -.708E+01 -.708E+01 0.706E+01   0.875E-02 0.867E-02 -.872E-02   0.244E-02 -.876E-04 -.224E-02
   0.244E+02 -.151E+02 -.150E+02   -.244E+02 0.151E+02 0.150E+02   -.121E-01 0.236E-02 0.242E-02   0.147E-02 -.537E-03 -.253E-02
   0.244E+02 0.151E+02 -.150E+02   -.244E+02 -.151E+02 0.150E+02   -.121E-01 -.236E-02 0.238E-02   0.171E-02 0.381E-03 -.310E-02
   0.707E+01 -.708E+01 0.706E+01   -.708E+01 0.708E+01 -.707E+01   0.876E-02 -.874E-02 0.869E-02   0.241E-02 0.767E-03 0.146E-02
   0.244E+02 -.151E+02 0.150E+02   -.244E+02 0.151E+02 -.150E+02   -.121E-01 0.234E-02 -.239E-02   0.210E-02 -.722E-03 0.262E-02
   0.244E+02 0.151E+02 0.150E+02   -.244E+02 -.151E+02 -.150E+02   -.121E-01 -.237E-02 -.240E-02   0.134E-02 0.674E-03 0.329E-02
   0.707E+01 0.708E+01 0.706E+01   -.708E+01 -.708E+01 -.707E+01   0.874E-02 0.870E-02 0.872E-02   0.182E-02 -.297E-04 0.204E-02
   0.836E+01 -.282E-03 0.517E-02   -.842E+01 0.776E-03 -.497E-02   0.636E-01 0.220E-04 0.527E-05   0.317E-02 -.489E-03 -.248E-03
   0.496E+02 0.184E-02 -.595E-02   -.497E+02 -.397E-03 0.606E-02   0.126E+00 0.326E-04 -.615E-05   0.213E-02 -.143E-02 -.695E-04
   -.923E-02 0.789E-03 0.571E-02   0.983E-02 -.176E-03 -.560E-02   -.193E-04 0.503E-04 0.247E-04   -.487E-03 -.656E-03 -.186E-03
   -.104E-01 -.637E-04 -.501E-02   0.113E-01 -.426E-03 0.495E-02   -.223E-04 0.396E-04 0.719E-05   -.803E-03 0.449E-03 0.930E-04
   -.996E-02 -.805E+01 -.406E+01   0.103E-01 0.806E+01 0.400E+01   -.405E-05 -.155E-01 0.712E-01   -.230E-03 -.453E-03 -.179E-02
   -.103E-01 0.805E+01 -.406E+01   0.106E-01 -.806E+01 0.400E+01   -.188E-04 0.155E-01 0.713E-01   -.116E-03 0.797E-03 -.212E-02
   -.107E-01 -.409E+01 -.803E+01   0.113E-01 0.402E+01 0.805E+01   -.225E-04 0.712E-01 -.155E-01   -.483E-03 0.900E-03 -.245E-02
   -.109E-01 0.408E+01 -.803E+01   0.111E-01 -.402E+01 0.805E+01   -.159E-04 -.713E-01 -.155E-01   -.139E-03 0.129E-03 -.327E-02
   -.110E-01 -.409E+01 0.803E+01   0.112E-01 0.402E+01 -.804E+01   -.450E-04 0.712E-01 0.155E-01   -.499E-04 0.119E-02 0.288E-02
   -.106E-01 -.805E+01 0.407E+01   0.105E-01 0.806E+01 -.400E+01   -.306E-04 -.155E-01 -.712E-01   0.253E-03 -.714E-03 0.141E-02
   -.107E-01 0.805E+01 0.407E+01   0.113E-01 -.806E+01 -.400E+01   -.179E-04 0.155E-01 -.712E-01   -.393E-03 0.610E-03 0.226E-02
   -.109E-01 0.408E+01 0.803E+01   0.115E-01 -.402E+01 -.804E+01   -.147E-04 -.713E-01 0.155E-01   -.463E-03 0.346E-03 0.327E-02
   -.126E-01 -.102E-03 -.834E+01   0.125E-01 0.442E-03 0.841E+01   -.741E-04 0.251E-04 -.635E-01   0.251E-03 -.348E-03 -.286E-02
   -.126E-01 -.836E+01 0.564E-02   0.123E-01 0.842E+01 -.526E-02   -.649E-04 -.635E-01 0.811E-05   0.476E-03 -.153E-03 -.433E-03
   -.127E-01 0.836E+01 0.508E-02   0.128E-01 -.842E+01 -.516E-02   -.850E-04 0.635E-01 0.251E-04   0.727E-04 0.813E-03 0.284E-05
   -.939E-02 -.924E+01 -.578E-02   0.937E-02 0.924E+01 0.545E-02   -.352E-04 -.632E-02 -.157E-04   0.175E-03 -.337E-03 0.383E-03
   -.900E-02 0.124E-02 -.922E+01   0.878E-02 -.247E-03 0.923E+01   -.106E-04 0.582E-04 -.632E-02   0.334E-03 -.102E-02 -.238E-02
   -.103E-01 0.924E+01 -.536E-02   0.100E-01 -.924E+01 0.556E-02   -.251E-04 0.632E-02 -.274E-04   0.332E-03 -.126E-03 -.135E-03
   -.129E-01 -.678E-03 0.835E+01   0.128E-01 0.561E-03 -.841E+01   -.832E-04 0.433E-04 0.635E-01   0.276E-03 0.896E-04 0.277E-02
   -.100E-01 0.176E-02 0.922E+01   0.967E-02 -.238E-03 -.922E+01   -.378E-04 0.443E-04 0.630E-02   0.504E-03 -.154E-02 0.257E-02
   0.958E+02 0.195E-02 0.958E+02   -.959E+02 -.120E-02 -.959E+02   0.683E-01 0.336E-04 0.682E-01   0.164E-02 -.769E-03 0.283E-02
 -----------------------------------------------------------------------------------------------
   -.731E-03 -.625E-03 0.599E-06   0.298E-11 0.338E-12 -.711E-13   -.485E-04 0.497E-05 -.118E-04   0.734E-03 0.626E-03 0.265E-04
 
 
 POSITION                                       TOTAL-FORCE (eV/Angst)
 -----------------------------------------------------------------------------------
     10.33313     10.33485      0.00001        -0.002029      0.000014     -0.000042
     10.33223      1.71987      1.71989        -0.001172     -0.001289     -0.001421
      0.00200      3.44943      0.00001         0.003474     -0.003197     -0.000023
      0.02062      5.16742      1.74310        -0.000316      0.000013     -0.000481
      0.00200      6.88541      0.00001         0.003501      0.003185     -0.000056
     10.33223      8.61498      1.71989        -0.001155      0.001271     -0.001410
      0.00200     10.33485      3.44945         0.003477     -0.000000     -0.003279
      0.02062      1.74308      5.16742        -0.000312     -0.000360      0.000029
     10.33369      3.44349      3.44350         0.002774     -0.000011     -0.000096
      0.01899      5.16742      5.16742        -0.004331      0.000025      0.000043
     10.33369      6.89136      3.44350         0.002756      0.000015     -0.000092
      0.02062      8.59176      5.16742        -0.000316      0.000338      0.000049
      0.00200     10.33485      6.88540         0.003472     -0.000016      0.003317
     10.33223      1.71987      8.61496        -0.001183     -0.001302      0.001377
     10.33369      3.44349      6.89134         0.002786     -0.000001      0.000105
      0.02062      5.16742      8.59175        -0.000291      0.000034      0.000410
     10.33369      6.89136      6.89134         0.002800      0.000010      0.000112
     10.33223      8.61497      8.61496        -0.001159      0.001264      0.001351
      1.72696      0.00000      1.72450        -0.003193     -0.000001      0.003215
      1.72696      1.72448      0.00001        -0.003205      0.003351     -0.000019
      1.72696      8.61037      0.00000        -0.003198     -0.003371     -0.000036
      1.73256      3.45500      5.16741         0.005717      0.006097      0.000141
      1.73256      5.16743      3.45501         0.005760     -0.000088      0.006046
      1.73256      6.87985      5.16741         0.005673     -0.006091      0.000159
      1.72696      0.00000      8.61035        -0.003213     -0.000011     -0.003265
      1.73256      5.16742      6.87982         0.005746      0.000027     -0.005943
      1.72102      3.44348      1.72135        -0.000074      0.000027      0.002450
      1.72102      6.89137      1.72135        -0.000072     -0.000019      0.002429
      1.72102      1.72133      3.44349        -0.000085      0.002580     -0.000078
      1.72102      8.61352      3.44349        -0.000096     -0.002580     -0.000084
      1.72102      1.72133      6.89135        -0.000086      0.002603      0.000077
      1.72102      3.44348      8.61350        -0.000069      0.000049     -0.002511
      1.72102      6.89137      8.61350        -0.000075     -0.000044     -0.002528
      1.72102      8.61352      6.89135        -0.000109     -0.002623      0.000095
      1.72721      5.16742      0.00000        -0.003100      0.000027     -0.000041
      1.72721     10.33485      5.16742        -0.003153     -0.000006      0.000034
      3.44496      0.00000      0.00001        -0.000058      0.000002     -0.000029
      3.44497      1.74307      1.74309        -0.000186     -0.000272     -0.000402
      3.44497      8.59178      1.74309        -0.000180      0.000250     -0.000398
      3.44493      3.45500      3.45501         0.000230      0.006001      0.005897
      3.44492      6.87985      3.45501         0.000254     -0.005975      0.005858
      3.44497      1.74307      8.59176        -0.000172     -0.000267      0.000348
      3.44493      3.45499      6.87983         0.000241      0.006000     -0.005884
      3.44493      6.87985      6.87982         0.000168     -0.006016     -0.005748
      3.44497      8.59178      8.59176        -0.000188      0.000231      0.000336
      3.44496      3.44967      0.00000        -0.000098     -0.003072     -0.000026
      3.44496      5.16742      1.74149        -0.000097      0.000023     -0.004729
      3.44496      6.88517      0.00000        -0.000103      0.003066     -0.000028
      3.44496      0.00000      3.44969        -0.000105     -0.000005     -0.003205
      3.44496      1.74147      5.16742        -0.000128     -0.004590      0.000034
      3.44496      8.59337      5.16742        -0.000110      0.004604      0.000031
      3.44496     10.33485      6.88515        -0.000105     -0.000001      0.003221
      3.44496      5.16742      8.59336        -0.000097      0.000035      0.004654
      5.16295      0.00000      1.72450         0.003094     -0.000006      0.003195
      5.16295      1.72448      0.00000         0.003105      0.003337     -0.000033
      5.16889      3.44348      1.72135        -0.000084      0.000030      0.002511
      5.16271      5.16742      0.00000         0.002998      0.000027     -0.000035
      5.16889      6.89136      1.72135        -0.000078     -0.000027      0.002528
      5.16295      8.61036      0.00000         0.003085     -0.003362     -0.000021
      5.16270     10.33485      5.16742         0.003022     -0.000005      0.000029
      5.16889      1.72133      3.44350        -0.000084      0.002622     -0.000111
      5.15735      3.45500      5.16741        -0.005896      0.006059      0.000147
      5.15734      5.16743      3.45504        -0.005911     -0.000036      0.005822
      5.15735      6.87985      5.16741        -0.005847     -0.006053      0.000131
      5.16889      8.61352      3.44350        -0.000064     -0.002652     -0.000123
      5.16295     10.33485      8.61035         0.003105      0.000014     -0.003244
      5.16889      1.72133      6.89135        -0.000072      0.002659      0.000117
      5.16889      3.44348      8.61350        -0.000082      0.000040     -0.002592
      5.16889      6.89136      8.61350        -0.000091     -0.000066     -0.002600
      5.16889      8.61352      6.89135        -0.000062     -0.002667      0.000112
      6.88789      3.44944      0.00000        -0.003425     -0.003221     -0.000032
      6.86927      5.16742      1.74311         0.000391      0.000018     -0.000456
      6.88789      6.88541      0.00000        -0.003441      0.003192     -0.000027
      6.88789     10.33485      3.44945        -0.003415     -0.000008     -0.003321
      6.86927      1.74308      5.16742         0.000417     -0.000315      0.000038
      6.86927      8.59175      5.16742         0.000448      0.000439      0.000031
      6.88789     10.33485      6.88540        -0.003405      0.000006      0.003353
      6.86927      5.16742      8.59173         0.000389      0.000018      0.000472
      6.89251      1.71987      1.71989         0.001254     -0.001308     -0.001441
      6.89251      8.61497      1.71989         0.001232      0.001285     -0.001412
      6.89104      3.44349      3.44350        -0.002729      0.000044     -0.000082
      6.89104      6.89136      3.44350        -0.002732     -0.000035     -0.000086
      6.89251      1.71987      8.61496         0.001249     -0.001314      0.001391
      6.89104      3.44349      6.89134        -0.002748      0.000032      0.000099
      6.89104      6.89136      6.89134        -0.002757     -0.000050      0.000080
      6.89251      8.61497      8.61496         0.001248      0.001295      0.001369
      6.89161     10.33485      0.00001         0.002090      0.000027     -0.000041
      6.87090      5.16742      5.16742         0.004469      0.000041      0.000037
      8.61236      5.16742      0.00000         0.000088      0.000006     -0.000046
      8.61236     10.33485      5.16742         0.000120     -0.000001      0.000036
      8.61236      3.44943      1.72450         0.000121     -0.003191      0.003255
      8.61236      6.88541      1.72450         0.000112      0.003174      0.003276
      8.61236      1.72448      3.44945         0.000129      0.003392     -0.003285
      8.61236      8.61037      3.44945         0.000116     -0.003410     -0.003270
      8.61236      1.72448      6.88540         0.000121      0.003378      0.003326
      8.61236      3.44943      8.61035         0.000114     -0.003193     -0.003310
      8.61236      6.88541      8.61035         0.000133      0.003174     -0.003332
      8.61236      8.61037      6.88540         0.000138     -0.003416      0.003305
      8.61236      0.00000      1.72079         0.000099      0.000016     -0.002245
      8.61236      1.72077      0.00001         0.000106     -0.002132     -0.000040
      8.61236      8.61408      0.00001         0.000112      0.002121     -0.000043
      8.61236      3.44967      5.16742         0.000116     -0.003055      0.000033
      8.61237      5.16742      3.44969         0.000100      0.000027     -0.003167
      8.61237      6.88517      5.16742         0.000105      0.003051      0.000038
      8.61236     10.33485      8.61407         0.000109      0.000016      0.002205
      8.61237      5.16742      6.88515         0.000101      0.000033      0.003190
      5.15734      5.16742      6.87979        -0.005923      0.000018     -0.005696
 -----------------------------------------------------------------------------------
    total drift:                               -0.000046      0.000006      0.000015


--------------------------------------------------------------------------------------------------------



  FREE ENERGIE OF THE ION-ELECTRON SYSTEM (eV)
  ---------------------------------------------------
  free  energy   TOTEN  =      -869.03182995 eV

  energy  without entropy=     -868.96942504  energy(sigma->0) =     -869.01102832
 


--------------------------------------------------------------------------------------------------------


    POTLOK:  cpu time    0.3629: real time    0.3629


--------------------------------------------------------------------------------------------------------


     LOOP+:  cpu time10995.5628: real time10997.3910
    4ORBIT:  cpu time    0.0000: real time    0.0000

 total amount of memory used by VASP MPI-rank0   822563. kBytes
=======================================================================

   base      :      30000. kBytes
   nonlr-proj:      31162. kBytes
   fftplans  :      15435. kBytes
   grid      :      21835. kBytes
   one-center:        419. kBytes
   wavefun   :     723712. kBytes
 
  
  
 General timing and accounting informations for this job:
 ========================================================
  
                  Total CPU time used (sec):    11059.669
                            User time (sec):    11042.937
                          System time (sec):       16.731
                         Elapsed time (sec):    11061.516
  
                   Maximum memory used (kb):      934504.
                   Average memory used (kb):           0.
  
                          Minor page faults:       567389
                          Major page faults:            0
                 Voluntary context switches:          711
