 108 108   0   0
  0.1022088E+02  0.1033485E-08  0.1033485E-08  0.1033485E-08  0.5000000E-15
  1.000000000000000E-004
  CAR 
 Opt                                     
      9.69690009     -3.93789703  301      6.77609527      1.00000000
     -3.938  0.0000E+00  0.0000E+00
     -3.892  0.0000E+00  0.0000E+00
     -3.847  0.0000E+00  0.0000E+00
     -3.802  0.0000E+00  0.0000E+00
     -3.756  0.0000E+00  0.0000E+00
     -3.711  0.0000E+00  0.0000E+00
     -3.665  0.0000E+00  0.0000E+00
     -3.620  0.0000E+00  0.0000E+00
     -3.574 -0.1070E-29 -0.4865E-31
     -3.529 -0.3966E-28 -0.1851E-29
     -3.483 -0.1356E-26 -0.6347E-28
     -3.438 -0.4175E-25 -0.1961E-26
     -3.393 -0.1158E-23 -0.5459E-25
     -3.347 -0.2893E-22 -0.1369E-23
     -3.302 -0.6507E-21 -0.3094E-22
     -3.256 -0.1318E-19 -0.6299E-21
     -3.211 -0.2403E-18 -0.1155E-19
     -3.165 -0.3944E-17 -0.1908E-18
     -3.120 -0.5520E-16 -0.2700E-17
     -3.074 -0.7528E-15 -0.3691E-16
     -3.029 -0.8947E-14 -0.4436E-15
     -2.983 -0.9590E-13 -0.4802E-14
     -2.938 -0.9238E-12 -0.4679E-13
     -2.893 -0.7993E-11 -0.4101E-12
     -2.847 -0.6210E-10 -0.3232E-11
     -2.802 -0.4328E-09 -0.2290E-10
     -2.756 -0.2705E-08 -0.1458E-09
     -2.711 -0.1514E-07 -0.8341E-09
     -2.665 -0.7586E-07 -0.4282E-08
     -2.620 -0.3396E-06 -0.1972E-07
     -2.574 -0.1356E-05 -0.8136E-07
     -2.529 -0.4822E-05 -0.3005E-06
     -2.484 -0.1521E-04 -0.9920E-06
     -2.438 -0.4244E-04 -0.2921E-05
     -2.393 -0.1041E-03 -0.7651E-05
     -2.347 -0.2225E-03 -0.1776E-04
     -2.302 -0.4086E-03 -0.3633E-04
     -2.256 -0.6284E-03 -0.6489E-04
     -2.211 -0.7609E-03 -0.9948E-04
     -2.165 -0.5855E-03 -0.1261E-03
     -2.120  0.1677E-03 -0.1185E-03
     -2.074  0.1711E-02 -0.4071E-04
     -2.029  0.4119E-02  0.1465E-03
     -1.984  0.7368E-02  0.4813E-03
     -1.938  0.1145E-01  0.1002E-02
     -1.893  0.1639E-01  0.1747E-02
     -1.847  0.2208E-01  0.2750E-02
     -1.802  0.2796E-01  0.4021E-02
     -1.756  0.3313E-01  0.5526E-02
     -1.711  0.3677E-01  0.7198E-02
     -1.665  0.3868E-01  0.8955E-02
     -1.620  0.3935E-01  0.1074E-01
     -1.575  0.3966E-01  0.1255E-01
     -1.529  0.4037E-01  0.1438E-01
     -1.484  0.4201E-01  0.1629E-01
     -1.438  0.4485E-01  0.1833E-01
     -1.393  0.4900E-01  0.2056E-01
     -1.347  0.5441E-01  0.2303E-01
     -1.302  0.6073E-01  0.2579E-01
     -1.256  0.6708E-01  0.2884E-01
     -1.211  0.7186E-01  0.3210E-01
     -1.165  0.7325E-01  0.3543E-01
     -1.120  0.7023E-01  0.3862E-01
     -1.075  0.6362E-01  0.4152E-01
     -1.029  0.5608E-01  0.4406E-01
     -0.984  0.5100E-01  0.4638E-01
     -0.938  0.5094E-01  0.4870E-01
     -0.893  0.5671E-01  0.5128E-01
     -0.847  0.6742E-01  0.5434E-01
     -0.802  0.8107E-01  0.5802E-01
     -0.756  0.9521E-01  0.6235E-01
     -0.711  0.1071E+00  0.6722E-01
     -0.666  0.1137E+00  0.7238E-01
     -0.620  0.1125E+00  0.7750E-01
     -0.575  0.1032E+00  0.8219E-01
     -0.529  0.8837E-01  0.8620E-01
     -0.484  0.7354E-01  0.8954E-01
     -0.438  0.6438E-01  0.9247E-01
     -0.393  0.6435E-01  0.9539E-01
     -0.347  0.7334E-01  0.9873E-01
     -0.302  0.8818E-01  0.1027E+00
     -0.257  0.1044E+00  0.1075E+00
     -0.211  0.1177E+00  0.1128E+00
     -0.166  0.1253E+00  0.1185E+00
     -0.120  0.1265E+00  0.1243E+00
     -0.075  0.1225E+00  0.1298E+00
     -0.029  0.1165E+00  0.1351E+00
      0.016  0.1123E+00  0.1402E+00
      0.062  0.1123E+00  0.1453E+00
      0.107  0.1167E+00  0.1506E+00
      0.153  0.1238E+00  0.1563E+00
      0.198  0.1312E+00  0.1622E+00
      0.243  0.1369E+00  0.1685E+00
      0.289  0.1404E+00  0.1748E+00
      0.334  0.1416E+00  0.1813E+00
      0.380  0.1405E+00  0.1877E+00
      0.425  0.1371E+00  0.1939E+00
      0.471  0.1317E+00  0.1999E+00
      0.516  0.1254E+00  0.2056E+00
      0.562  0.1207E+00  0.2111E+00
      0.607  0.1213E+00  0.2166E+00
      0.652  0.1303E+00  0.2225E+00
      0.698  0.1488E+00  0.2293E+00
      0.743  0.1733E+00  0.2371E+00
      0.789  0.1971E+00  0.2461E+00
      0.834  0.2126E+00  0.2558E+00
      0.880  0.2165E+00  0.2656E+00
      0.925  0.2107E+00  0.2752E+00
      0.971  0.2011E+00  0.2843E+00
      1.016  0.1925E+00  0.2931E+00
      1.062  0.1857E+00  0.3015E+00
      1.107  0.1786E+00  0.3096E+00
      1.152  0.1697E+00  0.3173E+00
      1.198  0.1622E+00  0.3247E+00
      1.243  0.1634E+00  0.3321E+00
      1.289  0.1801E+00  0.3403E+00
      1.334  0.2138E+00  0.3500E+00
      1.380  0.2582E+00  0.3618E+00
      1.425  0.3013E+00  0.3755E+00
      1.471  0.3299E+00  0.3905E+00
      1.516  0.3357E+00  0.4057E+00
      1.561  0.3189E+00  0.4202E+00
      1.607  0.2890E+00  0.4333E+00
      1.652  0.2620E+00  0.4453E+00
      1.698  0.2557E+00  0.4569E+00
      1.743  0.2838E+00  0.4698E+00
      1.789  0.3516E+00  0.4858E+00
      1.834  0.4541E+00  0.5064E+00
      1.880  0.5779E+00  0.5327E+00
      1.925  0.7064E+00  0.5648E+00
      1.971  0.8252E+00  0.6023E+00
      2.016  0.9243E+00  0.6443E+00
      2.061  0.9979E+00  0.6896E+00
      2.107  0.1042E+01  0.7370E+00
      2.152  0.1057E+01  0.7850E+00
      2.198  0.1048E+01  0.8327E+00
      2.243  0.1027E+01  0.8793E+00
      2.289  0.1011E+01  0.9253E+00
      2.334  0.1015E+01  0.9714E+00
      2.380  0.1040E+01  0.1019E+01
      2.425  0.1079E+01  0.1068E+01
      2.470  0.1118E+01  0.1119E+01
      2.516  0.1149E+01  0.1171E+01
      2.561  0.1171E+01  0.1224E+01
      2.607  0.1196E+01  0.1278E+01
      2.652  0.1236E+01  0.1334E+01
      2.698  0.1294E+01  0.1393E+01
      2.743  0.1360E+01  0.1455E+01
      2.789  0.1422E+01  0.1520E+01
      2.834  0.1474E+01  0.1587E+01
      2.880  0.1520E+01  0.1656E+01
      2.925  0.1569E+01  0.1727E+01
      2.970  0.1623E+01  0.1801E+01
      3.016  0.1675E+01  0.1877E+01
      3.061  0.1708E+01  0.1955E+01
      3.107  0.1712E+01  0.2032E+01
      3.152  0.1689E+01  0.2109E+01
      3.198  0.1649E+01  0.2184E+01
      3.243  0.1605E+01  0.2257E+01
      3.289  0.1566E+01  0.2328E+01
      3.334  0.1533E+01  0.2398E+01
      3.379  0.1508E+01  0.2466E+01
      3.425  0.1494E+01  0.2534E+01
      3.470  0.1494E+01  0.2602E+01
      3.516  0.1505E+01  0.2671E+01
      3.561  0.1515E+01  0.2740E+01
      3.607  0.1508E+01  0.2808E+01
      3.652  0.1479E+01  0.2875E+01
      3.698  0.1431E+01  0.2940E+01
      3.743  0.1380E+01  0.3003E+01
      3.788  0.1342E+01  0.3064E+01
      3.834  0.1327E+01  0.3124E+01
      3.879  0.1330E+01  0.3185E+01
      3.925  0.1335E+01  0.3246E+01
      3.970  0.1326E+01  0.3306E+01
      4.016  0.1299E+01  0.3365E+01
      4.061  0.1265E+01  0.3422E+01
      4.107  0.1250E+01  0.3479E+01
      4.152  0.1270E+01  0.3537E+01
      4.198  0.1324E+01  0.3597E+01
      4.243  0.1398E+01  0.3661E+01
      4.288  0.1479E+01  0.3728E+01
      4.334  0.1562E+01  0.3799E+01
      4.379  0.1652E+01  0.3874E+01
      4.425  0.1747E+01  0.3953E+01
      4.470  0.1833E+01  0.4037E+01
      4.516  0.1884E+01  0.4122E+01
      4.561  0.1885E+01  0.4208E+01
      4.607  0.1837E+01  0.4291E+01
      4.652  0.1766E+01  0.4372E+01
      4.697  0.1709E+01  0.4449E+01
      4.743  0.1703E+01  0.4527E+01
      4.788  0.1767E+01  0.4607E+01
      4.834  0.1894E+01  0.4693E+01
      4.879  0.2053E+01  0.4786E+01
      4.925  0.2201E+01  0.4886E+01
      4.970  0.2302E+01  0.4991E+01
      5.016  0.2341E+01  0.5097E+01
      5.061  0.2328E+01  0.5203E+01
      5.107  0.2288E+01  0.5307E+01
      5.152  0.2247E+01  0.5409E+01
      5.197  0.2230E+01  0.5511E+01
      5.243  0.2250E+01  0.5613E+01
      5.288  0.2317E+01  0.5718E+01
      5.334  0.2426E+01  0.5829E+01
      5.379  0.2554E+01  0.5945E+01
      5.425  0.2659E+01  0.6065E+01
      5.470  0.2693E+01  0.6188E+01
      5.516  0.2627E+01  0.6307E+01
      5.561  0.2464E+01  0.6419E+01
      5.606  0.2245E+01  0.6521E+01
      5.652  0.2026E+01  0.6613E+01
      5.697  0.1850E+01  0.6697E+01
      5.743  0.1726E+01  0.6776E+01
      5.788  0.1639E+01  0.6850E+01
      5.834  0.1565E+01  0.6921E+01
      5.879  0.1493E+01  0.6989E+01
      5.925  0.1431E+01  0.7054E+01
      5.970  0.1398E+01  0.7118E+01
      6.016  0.1411E+01  0.7182E+01
      6.061  0.1469E+01  0.7249E+01
      6.106  0.1559E+01  0.7320E+01
      6.152  0.1657E+01  0.7395E+01
      6.197  0.1745E+01  0.7474E+01
      6.243  0.1814E+01  0.7557E+01
      6.288  0.1872E+01  0.7642E+01
      6.334  0.1932E+01  0.7730E+01
      6.379  0.2001E+01  0.7821E+01
      6.425  0.2070E+01  0.7915E+01
      6.470  0.2119E+01  0.8011E+01
      6.515  0.2132E+01  0.8108E+01
      6.561  0.2110E+01  0.8204E+01
      6.606  0.2073E+01  0.8298E+01
      6.652  0.2045E+01  0.8391E+01
      6.697  0.2029E+01  0.8483E+01
      6.743  0.2007E+01  0.8574E+01
      6.788  0.1957E+01  0.8663E+01
      6.834  0.1868E+01  0.8748E+01
      6.879  0.1763E+01  0.8828E+01
      6.924  0.1680E+01  0.8905E+01
      6.970  0.1648E+01  0.8980E+01
      7.015  0.1673E+01  0.9056E+01
      7.061  0.1730E+01  0.9134E+01
      7.106  0.1789E+01  0.9216E+01
      7.152  0.1828E+01  0.9299E+01
      7.197  0.1848E+01  0.9383E+01
      7.243  0.1860E+01  0.9467E+01
      7.288  0.1881E+01  0.9553E+01
      7.334  0.1923E+01  0.9640E+01
      7.379  0.1987E+01  0.9730E+01
      7.424  0.2064E+01  0.9824E+01
      7.470  0.2128E+01  0.9921E+01
      7.515  0.2139E+01  0.1002E+02
      7.561  0.2055E+01  0.1011E+02
      7.606  0.1849E+01  0.1020E+02
      7.652  0.1526E+01  0.1026E+02
      7.697  0.1129E+01  0.1032E+02
      7.743  0.7234E+00  0.1035E+02
      7.788  0.3762E+00  0.1037E+02
      7.833  0.1288E+00  0.1037E+02
      7.879 -0.1193E-01  0.1037E+02
      7.924 -0.6731E-01  0.1037E+02
      7.970 -0.7085E-01  0.1037E+02
      8.015 -0.5271E-01  0.1036E+02
      8.061 -0.3194E-01  0.1036E+02
      8.106 -0.1651E-01  0.1036E+02
      8.152 -0.7439E-02  0.1036E+02
      8.197 -0.2953E-02  0.1036E+02
      8.243 -0.1040E-02  0.1036E+02
      8.288 -0.3263E-03  0.1036E+02
      8.333 -0.9149E-04  0.1036E+02
      8.379 -0.2297E-04  0.1036E+02
      8.424 -0.5174E-05  0.1036E+02
      8.470 -0.1047E-05  0.1036E+02
      8.515 -0.1903E-06  0.1036E+02
      8.561 -0.3114E-07  0.1036E+02
      8.606 -0.4586E-08  0.1036E+02
      8.652 -0.6083E-09  0.1036E+02
      8.697 -0.7271E-10  0.1036E+02
      8.742 -0.7835E-11  0.1036E+02
      8.788 -0.7611E-12  0.1036E+02
      8.833 -0.6665E-13  0.1036E+02
      8.879 -0.5350E-14  0.1036E+02
      8.924 -0.3786E-15  0.1036E+02
      8.970  0.0000E+00  0.1036E+02
      9.015  0.0000E+00  0.1036E+02
      9.061  0.0000E+00  0.1036E+02
      9.106  0.0000E+00  0.1036E+02
      9.152  0.0000E+00  0.1036E+02
      9.197  0.0000E+00  0.1036E+02
      9.242  0.0000E+00  0.1036E+02
      9.288  0.0000E+00  0.1036E+02
      9.333  0.0000E+00  0.1036E+02
      9.379  0.0000E+00  0.1036E+02
      9.424  0.0000E+00  0.1036E+02
      9.470  0.0000E+00  0.1036E+02
      9.515  0.0000E+00  0.1036E+02
      9.561  0.0000E+00  0.1036E+02
      9.606  0.0000E+00  0.1036E+02
      9.651  0.0000E+00  0.1036E+02
      9.697  0.0000E+00  0.1036E+02
