  108  108  100    1
  0.1022088E+02  0.1033485E-08  0.1033485E-08  0.1033485E-08  0.5000000E-15
  1.000000000000000E-004
  CAR 
 Opt                                     
    864      4    518
 
  0.1250000E+00  0.1250000E+00  0.1250000E+00  0.1250000E+00
    1       -1.937897   1.000000
    2       -0.807243   1.000000
    3       -0.807243   1.000000
    4       -0.807243   1.000000
    5       -0.124661   1.000000
    6       -0.124661   1.000000
    7       -0.124661   1.000000
    8        0.207481   1.000000
    9        0.207481   1.000000
   10        0.207481   1.000000
   11        0.813653   1.000000
   12        0.813653   1.000000
   13        0.813653   1.000000
   14        0.813653   1.000000
   15        0.813653   1.000000
   16        0.813653   1.000000
   17        0.920487   1.000000
   18        1.316105   1.000000
   19        1.316105   1.000000
   20        1.316105   1.000000
   21        1.362577   1.000000
   22        1.362577   1.000000
   23        1.362577   1.000000
   24        1.584386   1.000000
   25        1.584386   1.000000
   26        1.584386   1.000000
   27        1.718039   1.000000
   28        1.789623   1.000000
   29        1.789623   1.000000
   30        1.789623   1.000000
   31        1.890903   1.000000
   32        1.890907   1.000000
   33        1.890907   1.000000
   34        1.985808   1.000000
   35        1.985808   1.000000
   36        1.985808   1.000000
   37        2.342675   1.000000
   38        2.342676   1.000000
   39        2.342676   1.000000
   40        2.464918   1.000000
   41        2.464918   1.000000
   42        2.464918   1.000000
   43        2.464919   1.000000
   44        2.464919   1.000000
   45        2.464919   1.000000
   46        2.479576   1.000000
   47        2.479576   1.000000
   48        2.479576   1.000000
   49        2.524879   1.000000
   50        2.524879   1.000000
   51        2.524880   1.000000
   52        2.524883   1.000000
   53        2.524883   1.000000
   54        2.524883   1.000000
   55        2.548329   1.000000
   56        2.548329   1.000000
   57        2.548329   1.000000
   58        2.548329   1.000000
   59        2.548329   1.000000
   60        2.548329   1.000000
   61        2.625086   1.000000
   62        2.625086   1.000000
   63        2.625086   1.000000
   64        2.627594   1.000000
   65        2.627594   1.000000
   66        2.627594   1.000000
   67        2.719468   1.000000
   68        2.719468   1.000000
   69        2.719468   1.000000
   70        2.719470   1.000000
   71        2.719470   1.000000
   72        2.719470   1.000000
   73        2.758794   1.000000
   74        2.758794   1.000000
   75        2.758794   1.000000
   76        2.758796   1.000000
   77        2.758796   1.000000
   78        2.758796   1.000000
   79        2.761726   1.000000
   80        2.761728   1.000000
   81        2.761728   1.000000
   82        2.816854   1.000000
   83        2.816854   1.000000
   84        2.816854   1.000000
   85        2.816858   1.000000
   86        2.816858   1.000000
   87        2.816858   1.000000
   88        2.927218   1.000000
   89        2.927218   1.000000
   90        2.927218   1.000000
   91        2.927218   1.000000
   92        2.927218   1.000000
   93        2.927218   1.000000
   94        3.042064   1.000000
   95        3.042064   1.000000
   96        3.042064   1.000000
   97        3.059667   1.000000
   98        3.059667   1.000000
   99        3.059668   1.000000
  100        3.091454   1.000000
  101        3.091454   1.000000
  102        3.091454   1.000000
  103        3.091454   1.000000
  104        3.091454   1.000000
  105        3.091454   1.000000
  106        3.153224   1.000000
  107        3.153224   1.000000
  108        3.153224   1.000000
  109        3.153224   1.000000
  110        3.153224   1.000000
  111        3.153224   1.000000
  112        3.317347   1.000000
  113        3.317347   1.000000
  114        3.317347   1.000000
  115        3.317351   1.000000
  116        3.317351   1.000000
  117        3.317351   1.000000
  118        3.326036   1.000000
  119        3.326036   1.000000
  120        3.326036   1.000000
  121        3.429247   1.000000
  122        3.429247   1.000000
  123        3.429247   1.000000
  124        3.432256   1.000000
  125        3.432256   1.000000
  126        3.432256   1.000000
  127        3.477399   1.000000
  128        3.477399   1.000000
  129        3.477399   1.000000
  130        3.477401   1.000000
  131        3.477401   1.000000
  132        3.477401   1.000000
  133        3.501898   1.000000
  134        3.501898   1.000000
  135        3.501898   1.000000
  136        3.501899   1.000000
  137        3.501899   1.000000
  138        3.501899   1.000000
  139        3.555567   1.000000
  140        3.555567   1.000000
  141        3.555567   1.000000
  142        3.555569   1.000000
  143        3.555569   1.000000
  144        3.555569   1.000000
  145        3.674274   1.000000
  146        3.674274   1.000000
  147        3.674274   1.000000
  148        3.674274   1.000000
  149        3.674274   1.000000
  150        3.674274   1.000000
  151        3.712788   1.000000
  152        3.712788   1.000000
  153        3.712788   1.000000
  154        3.736486   1.000000
  155        3.736486   1.000000
  156        3.736486   1.000000
  157        3.736486   1.000000
  158        3.736486   1.000000
  159        3.736486   1.000000
  160        3.889440   1.000000
  161        3.889440   1.000000
  162        3.889440   1.000000
  163        3.889443   1.000000
  164        3.889443   1.000000
  165        3.889443   1.000000
  166        3.906320   1.000000
  167        3.906324   1.000000
  168        3.906324   1.000000
  169        4.097168   1.000000
  170        4.097168   1.000000
  171        4.097168   1.000000
  172        4.097171   1.000000
  173        4.097171   1.000000
  174        4.097172   1.000000
  175        4.236871   1.000000
  176        4.236871   1.000000
  177        4.236871   1.000000
  178        4.255269   1.000000
  179        4.255269   1.000000
  180        4.255269   1.000000
  181        4.288356   1.000000
  182        4.288356   1.000000
  183        4.288356   1.000000
  184        4.302972   1.000000
  185        4.302972   1.000000
  186        4.302972   1.000000
  187        4.302973   1.000000
  188        4.302973   1.000000
  189        4.302973   1.000000
  190        4.311307   1.000000
  191        4.311307   1.000000
  192        4.311307   1.000000
  193        4.435664   1.000000
  194        4.435664   1.000000
  195        4.435664   1.000000
  196        4.435665   1.000000
  197        4.435665   1.000000
  198        4.435665   1.000000
  199        4.456138   1.000000
  200        4.456138   1.000000
  201        4.456138   1.000000
  202        4.462586   1.000000
  203        4.462587   1.000000
  204        4.462587   1.000000
  205        4.462590   1.000000
  206        4.462590   1.000000
  207        4.462590   1.000000
  208        4.474878   1.000000
  209        4.474878   1.000000
  210        4.474878   1.000000
  211        4.474879   1.000000
  212        4.474879   1.000000
  213        4.474879   1.000000
  214        4.592895   1.000000
  215        4.592895   1.000000
  216        4.592895   1.000000
  217        4.617686   1.000000
  218        4.617688   1.000000
  219        4.617688   1.000000
  220        4.631798   1.000000
  221        4.631798   1.000000
  222        4.631798   1.000000
  223        4.722493   1.000000
  224        4.803798   1.000000
  225        4.803798   1.000000
  226        4.803798   1.000000
  227        4.803799   1.000000
  228        4.803799   1.000000
  229        4.803799   1.000000
  230        4.811724   1.000000
  231        4.811724   1.000000
  232        4.811725   1.000000
  233        4.811726   1.000000
  234        4.811727   1.000000
  235        4.811727   1.000000
  236        4.817837   1.000000
  237        4.817837   1.000000
  238        4.817838   1.000000
  239        4.953934   1.000000
  240        4.953934   1.000000
  241        4.953934   1.000000
  242        4.953938   1.000000
  243        4.953938   1.000000
  244        4.953939   1.000000
  245        5.048661   1.000000
  246        5.048661   1.000000
  247        5.048661   1.000000
  248        5.053784   1.000000
  249        5.053784   1.000000
  250        5.053790   1.000000
  251        5.058020   1.000000
  252        5.058020   1.000000
  253        5.058020   1.000000
  254        5.058020   1.000000
  255        5.058020   1.000000
  256        5.058020   1.000000
  257        5.084162   1.000000
  258        5.084162   1.000000
  259        5.084162   1.000000
  260        5.111374   1.000000
  261        5.111375   1.000000
  262        5.111375   1.000000
  263        5.111378   1.000000
  264        5.111378   1.000000
  265        5.111379   1.000000
  266        5.126140   1.000000
  267        5.154603   1.000000
  268        5.154603   1.000000
  269        5.154603   1.000000
  270        5.155032   1.000000
  271        5.155032   1.000000
  272        5.155033   1.000000
  273        5.176268   1.000000
  274        5.176268   1.000000
  275        5.194364   1.000000
  276        5.194364   1.000000
  277        5.211478   1.000000
  278        5.211478   1.000000
  279        5.211478   1.000000
  280        5.211480   1.000000
  281        5.211480   1.000000
  282        5.211480   1.000000
  283        5.227333   1.000000
  284        5.227335   1.000000
  285        5.227335   1.000000
  286        5.273250   1.000000
  287        5.273250   1.000000
  288        5.273277   1.000000
  289        5.275219   1.000000
  290        5.275245   1.000000
  291        5.275245   1.000000
  292        5.292647   1.000000
  293        5.292647   1.000000
  294        5.292647   1.000000
  295        5.292647   1.000000
  296        5.292647   1.000000
  297        5.292647   1.000000
  298        5.320724   1.000000
  299        5.320724   1.000000
  300        5.320724   1.000000
  301        5.351472   1.000000
  302        5.351472   1.000000
  303        5.351473   1.000000
  304        5.364195   1.000000
  305        5.364195   1.000000
  306        5.404802   1.000000
  307        5.404806   1.000000
  308        5.404806   1.000000
  309        5.406895   1.000000
  310        5.406895   1.000000
  311        5.406895   1.000000
  312        5.542912   1.000000
  313        5.559001   1.000000
  314        5.559001   1.000000
  315        5.559004   1.000000
  316        5.574847   1.000000
  317        5.574847   1.000000
  318        5.574847   1.000000
  319        5.582333   1.000000
  320        5.582333   1.000000
  321        5.582333   1.000000
  322        5.582335   1.000000
  323        5.582335   1.000000
  324        5.582336   1.000000
  325        5.584309   1.000000
  326        5.584309   1.000000
  327        5.584309   1.000000
  328        5.608826   1.000000
  329        5.608826   1.000000
  330        5.608826   1.000000
  331        5.724161   1.000000
  332        5.724161   1.000000
  333        5.724161   1.000000
  334        5.727116   1.000000
  335        5.727116   1.000000
  336        5.727116   1.000000
  337        5.733552   1.000000
  338        5.733552   1.000000
  339        5.733552   1.000000
  340        5.733553   1.000000
  341        5.733553   1.000000
  342        5.733553   1.000000
  343        5.751173   1.000000
  344        5.751173   1.000000
  345        5.751173   1.000000
  346        5.800861   1.000000
  347        5.800862   1.000000
  348        5.800862   1.000000
  349        5.800865   1.000000
  350        5.800865   1.000000
  351        5.800866   1.000000
  352        5.845191   1.000000
  353        5.845191   1.000000
  354        5.845191   1.000000
  355        5.882616   1.000000
  356        5.882616   1.000000
  357        5.882616   1.000000
  358        5.882618   1.000000
  359        5.882618   1.000000
  360        5.882618   1.000000
  361        5.914885   1.000000
  362        5.914885   1.000000
  363        5.914885   1.000000
  364        5.961001   1.000000
  365        5.961005   1.000000
  366        5.961005   1.000000
  367        6.063063   1.000003
  368        6.063063   1.000003
  369        6.063064   1.000003
  370        6.089961   1.000007
  371        6.089961   1.000007
  372        6.089961   1.000007
  373        6.224006   1.000335
  374        6.224006   1.000335
  375        6.224006   1.000335
  376        6.224128   1.000336
  377        6.224128   1.000336
  378        6.224128   1.000336
  379        6.225556   1.000348
  380        6.225556   1.000348
  381        6.225556   1.000348
  382        6.228885   1.000378
  383        6.228885   1.000378
  384        6.228885   1.000378
  385        6.230524   1.000394
  386        6.230524   1.000394
  387        6.230524   1.000394
  388        6.307801   1.002283
  389        6.307802   1.002283
  390        6.307802   1.002283
  391        6.410696   1.013415
  392        6.410696   1.013415
  393        6.410697   1.013416
  394        6.410698   1.013416
  395        6.410699   1.013416
  396        6.410699   1.013416
  397        6.478482   1.028180
  398        6.478482   1.028180
  399        6.478482   1.028180
  400        6.478483   1.028180
  401        6.478483   1.028180
  402        6.478483   1.028180
  403        6.602853   1.005102
  404        6.602853   1.005102
  405        6.602853   1.005102
  406        6.602853   1.005101
  407        6.602853   1.005101
  408        6.602853   1.005101
  409        6.622836   0.980915
  410        6.622836   0.980915
  411        6.622836   0.980915
  412        6.622837   0.980914
  413        6.622837   0.980914
  414        6.622837   0.980914
  415        6.668865   0.889303
  416        6.668865   0.889303
  417        6.668880   0.889264
  418        6.679176   0.861520
  419        6.679190   0.861481
  420        6.679190   0.861481
  421        6.697815   0.804777
  422        6.697815   0.804777
  423        6.783312   0.469485
  424        6.783312   0.469485
  425        6.783312   0.469485
  426        6.783317   0.469465
  427        6.783317   0.469465
  428        6.783317   0.469465
  429        6.855660   0.191054
  430        6.855660   0.191054
  431        6.855660   0.191053
  432        6.855661   0.191051
  433        6.855661   0.191050
  434        6.855661   0.191050
  435        6.865151   0.161420
  436        6.865152   0.161418
  437        6.865152   0.161418
  438        6.901619   0.067978
  439        6.901619   0.067978
  440        6.901619   0.067978
  441        7.013123  -0.035203
  442        7.013123  -0.035203
  443        7.013123  -0.035203
  444        7.013126  -0.035203
  445        7.013126  -0.035203
  446        7.013127  -0.035203
  447        7.023753  -0.035430
  448        7.023753  -0.035430
  449        7.023753  -0.035430
  450        7.027832  -0.035288
  451        7.027832  -0.035288
  452        7.052005  -0.032493
  453        7.052005  -0.032493
  454        7.052005  -0.032493
  455        7.052006  -0.032493
  456        7.052006  -0.032493
  457        7.052006  -0.032493
  458        7.077692  -0.027294
  459        7.077692  -0.027294
  460        7.077692  -0.027294
  461        7.077696  -0.027293
  462        7.077696  -0.027293
  463        7.077696  -0.027293
  464        7.115693  -0.018635
  465        7.115693  -0.018635
  466        7.115694  -0.018635
  467        7.127901  -0.016055
  468        7.127901  -0.016055
  469        7.127902  -0.016055
  470        7.190396  -0.006302
  471        7.190398  -0.006302
  472        7.190398  -0.006302
  473        7.209969  -0.004454
  474        7.209969  -0.004454
  475        7.209969  -0.004454
  476        7.238078  -0.002594
  477        7.238078  -0.002594
  478        7.238078  -0.002594
  479        7.243087  -0.002344
  480        7.243087  -0.002344
  481        7.243087  -0.002344
  482        7.300841  -0.000655
  483        7.300844  -0.000654
  484        7.300846  -0.000654
  485        7.339536  -0.000250
  486        7.339537  -0.000250
  487        7.339546  -0.000250
  488        7.339550  -0.000250
  489        7.339563  -0.000250
  490        7.339593  -0.000250
  491        7.371772  -0.000105
  492        7.371777  -0.000105
  493        7.371788  -0.000105
  494        7.371817  -0.000105
  495        7.371873  -0.000105
  496        7.371893  -0.000105
  497        7.434161  -0.000017
  498        7.434162  -0.000017
  499        7.434172  -0.000017
  500        7.434181  -0.000017
  501        7.434237  -0.000017
  502        7.434340  -0.000017
  503        7.451672  -0.000010
  504        7.451806  -0.000010
  505        7.454183  -0.000009
  506        7.454227  -0.000009
  507        7.454328  -0.000009
  508        7.543737  -0.000000
  509        7.544758  -0.000000
  510        7.545403  -0.000000
  511        7.546887  -0.000000
  512        7.546935  -0.000000
  513        7.547027  -0.000000
  514        7.547105  -0.000000
  515        7.547503  -0.000000
  516        7.548827  -0.000000
  517        7.552126  -0.000000
  518        7.556963  -0.000000
 
  0.3750000E+00  0.1250000E+00  0.1250000E+00  0.3750000E+00
    1       -1.741908   1.000000
    2       -1.358526   1.000000
    3       -0.630275   1.000000
    4       -0.630275   1.000000
    5       -0.285413   1.000000
    6       -0.285413   1.000000
    7        0.040559   1.000000
    8        0.040559   1.000000
    9        0.336659   1.000000
   10        0.360702   1.000000
   11        0.360702   1.000000
   12        0.582521   1.000000
   13        0.621696   1.000000
   14        0.907759   1.000000
   15        0.907759   1.000000
   16        1.082704   1.000000
   17        1.082704   1.000000
   18        1.312280   1.000000
   19        1.403703   1.000000
   20        1.475480   1.000000
   21        1.475480   1.000000
   22        1.479634   1.000000
   23        1.730556   1.000000
   24        1.870531   1.000000
   25        1.870534   1.000000
   26        1.885904   1.000000
   27        1.930097   1.000000
   28        1.930097   1.000000
   29        1.935849   1.000000
   30        1.952561   1.000000
   31        1.952561   1.000000
   32        1.993063   1.000000
   33        2.010913   1.000000
   34        2.010916   1.000000
   35        2.093615   1.000000
   36        2.099253   1.000000
   37        2.099253   1.000000
   38        2.121324   1.000000
   39        2.121324   1.000000
   40        2.128007   1.000000
   41        2.165835   1.000000
   42        2.165836   1.000000
   43        2.194990   1.000000
   44        2.194990   1.000000
   45        2.234470   1.000000
   46        2.234473   1.000000
   47        2.278079   1.000000
   48        2.278080   1.000000
   49        2.377063   1.000000
   50        2.377063   1.000000
   51        2.479414   1.000000
   52        2.479414   1.000000
   53        2.508143   1.000000
   54        2.508143   1.000000
   55        2.508397   1.000000
   56        2.508397   1.000000
   57        2.532648   1.000000
   58        2.532648   1.000000
   59        2.534745   1.000000
   60        2.534745   1.000000
   61        2.589538   1.000000
   62        2.589538   1.000000
   63        2.622655   1.000000
   64        2.622655   1.000000
   65        2.628737   1.000000
   66        2.628738   1.000000
   67        2.684133   1.000000
   68        2.684133   1.000000
   69        2.700394   1.000000
   70        2.713423   1.000000
   71        2.713423   1.000000
   72        2.738768   1.000000
   73        2.738769   1.000000
   74        2.755597   1.000000
   75        2.755598   1.000000
   76        2.756761   1.000000
   77        2.756762   1.000000
   78        2.802607   1.000000
   79        2.802607   1.000000
   80        2.803407   1.000000
   81        2.803408   1.000000
   82        2.847576   1.000000
   83        2.889801   1.000000
   84        2.889801   1.000000
   85        2.897620   1.000000
   86        2.897620   1.000000
   87        2.907365   1.000000
   88        2.907365   1.000000
   89        2.918008   1.000000
   90        2.918009   1.000000
   91        2.933002   1.000000
   92        2.953284   1.000000
   93        3.010685   1.000000
   94        3.010690   1.000000
   95        3.024161   1.000000
   96        3.024161   1.000000
   97        3.028380   1.000000
   98        3.028380   1.000000
   99        3.032693   1.000000
  100        3.032693   1.000000
  101        3.037725   1.000000
  102        3.102341   1.000000
  103        3.102341   1.000000
  104        3.130392   1.000000
  105        3.130392   1.000000
  106        3.200468   1.000000
  107        3.200468   1.000000
  108        3.209153   1.000000
  109        3.209153   1.000000
  110        3.225958   1.000000
  111        3.234667   1.000000
  112        3.234675   1.000000
  113        3.241274   1.000000
  114        3.241274   1.000000
  115        3.270798   1.000000
  116        3.270798   1.000000
  117        3.295600   1.000000
  118        3.295600   1.000000
  119        3.318752   1.000000
  120        3.318752   1.000000
  121        3.385502   1.000000
  122        3.385502   1.000000
  123        3.409063   1.000000
  124        3.409063   1.000000
  125        3.410161   1.000000
  126        3.410162   1.000000
  127        3.479543   1.000000
  128        3.501493   1.000000
  129        3.501493   1.000000
  130        3.502885   1.000000
  131        3.502886   1.000000
  132        3.510204   1.000000
  133        3.510205   1.000000
  134        3.541531   1.000000
  135        3.541531   1.000000
  136        3.548452   1.000000
  137        3.548453   1.000000
  138        3.574575   1.000000
  139        3.574575   1.000000
  140        3.615763   1.000000
  141        3.615764   1.000000
  142        3.619009   1.000000
  143        3.619009   1.000000
  144        3.624718   1.000000
  145        3.624718   1.000000
  146        3.632256   1.000000
  147        3.638501   1.000000
  148        3.699297   1.000000
  149        3.699299   1.000000
  150        3.760161   1.000000
  151        3.760161   1.000000
  152        3.781576   1.000000
  153        3.781576   1.000000
  154        3.809062   1.000000
  155        3.809063   1.000000
  156        3.822688   1.000000
  157        3.888672   1.000000
  158        3.888672   1.000000
  159        3.890482   1.000000
  160        3.890482   1.000000
  161        3.904172   1.000000
  162        3.904173   1.000000
  163        3.927594   1.000000
  164        3.927595   1.000000
  165        3.934353   1.000000
  166        3.934354   1.000000
  167        3.960186   1.000000
  168        3.985662   1.000000
  169        3.985662   1.000000
  170        4.012703   1.000000
  171        4.012704   1.000000
  172        4.031510   1.000000
  173        4.038871   1.000000
  174        4.038871   1.000000
  175        4.079715   1.000000
  176        4.079716   1.000000
  177        4.106764   1.000000
  178        4.106764   1.000000
  179        4.164238   1.000000
  180        4.164238   1.000000
  181        4.199608   1.000000
  182        4.199609   1.000000
  183        4.199643   1.000000
  184        4.199647   1.000000
  185        4.213990   1.000000
  186        4.213991   1.000000
  187        4.245396   1.000000
  188        4.245396   1.000000
  189        4.300148   1.000000
  190        4.300148   1.000000
  191        4.311802   1.000000
  192        4.311802   1.000000
  193        4.388473   1.000000
  194        4.388479   1.000000
  195        4.393102   1.000000
  196        4.416175   1.000000
  197        4.416175   1.000000
  198        4.457768   1.000000
  199        4.457768   1.000000
  200        4.460827   1.000000
  201        4.460827   1.000000
  202        4.461178   1.000000
  203        4.461178   1.000000
  204        4.505951   1.000000
  205        4.508578   1.000000
  206        4.508578   1.000000
  207        4.548825   1.000000
  208        4.548825   1.000000
  209        4.563635   1.000000
  210        4.563635   1.000000
  211        4.569192   1.000000
  212        4.585630   1.000000
  213        4.585630   1.000000
  214        4.601387   1.000000
  215        4.618805   1.000000
  216        4.618808   1.000000
  217        4.637802   1.000000
  218        4.637802   1.000000
  219        4.662860   1.000000
  220        4.662860   1.000000
  221        4.673836   1.000000
  222        4.676589   1.000000
  223        4.676589   1.000000
  224        4.718661   1.000000
  225        4.718664   1.000000
  226        4.772650   1.000000
  227        4.772650   1.000000
  228        4.795976   1.000000
  229        4.814862   1.000000
  230        4.849217   1.000000
  231        4.850459   1.000000
  232        4.850459   1.000000
  233        4.870484   1.000000
  234        4.870484   1.000000
  235        4.879849   1.000000
  236        4.879849   1.000000
  237        4.882734   1.000000
  238        4.882736   1.000000
  239        4.884189   1.000000
  240        4.884190   1.000000
  241        4.893291   1.000000
  242        4.909544   1.000000
  243        4.909544   1.000000
  244        4.933116   1.000000
  245        4.933116   1.000000
  246        4.934982   1.000000
  247        4.934982   1.000000
  248        4.941982   1.000000
  249        4.941982   1.000000
  250        4.978270   1.000000
  251        4.978274   1.000000
  252        4.994845   1.000000
  253        4.994846   1.000000
  254        5.014418   1.000000
  255        5.014422   1.000000
  256        5.021565   1.000000
  257        5.021565   1.000000
  258        5.034256   1.000000
  259        5.046219   1.000000
  260        5.046222   1.000000
  261        5.065478   1.000000
  262        5.068590   1.000000
  263        5.082897   1.000000
  264        5.089080   1.000000
  265        5.089080   1.000000
  266        5.089778   1.000000
  267        5.124479   1.000000
  268        5.138812   1.000000
  269        5.178558   1.000000
  270        5.184075   1.000000
  271        5.184079   1.000000
  272        5.189942   1.000000
  273        5.211003   1.000000
  274        5.214243   1.000000
  275        5.214244   1.000000
  276        5.241324   1.000000
  277        5.245495   1.000000
  278        5.252185   1.000000
  279        5.252185   1.000000
  280        5.253474   1.000000
  281        5.253475   1.000000
  282        5.261715   1.000000
  283        5.270391   1.000000
  284        5.270393   1.000000
  285        5.297171   1.000000
  286        5.297171   1.000000
  287        5.298230   1.000000
  288        5.298230   1.000000
  289        5.311585   1.000000
  290        5.311585   1.000000
  291        5.312590   1.000000
  292        5.312594   1.000000
  293        5.379389   1.000000
  294        5.380980   1.000000
  295        5.380980   1.000000
  296        5.382554   1.000000
  297        5.398220   1.000000
  298        5.406437   1.000000
  299        5.409405   1.000000
  300        5.417180   1.000000
  301        5.417180   1.000000
  302        5.418389   1.000000
  303        5.418390   1.000000
  304        5.428485   1.000000
  305        5.442106   1.000000
  306        5.442115   1.000000
  307        5.442733   1.000000
  308        5.442733   1.000000
  309        5.444121   1.000000
  310        5.466117   1.000000
  311        5.466117   1.000000
  312        5.470725   1.000000
  313        5.470726   1.000000
  314        5.503804   1.000000
  315        5.503804   1.000000
  316        5.505343   1.000000
  317        5.505343   1.000000
  318        5.513077   1.000000
  319        5.513077   1.000000
  320        5.524819   1.000000
  321        5.524819   1.000000
  322        5.536013   1.000000
  323        5.548964   1.000000
  324        5.548964   1.000000
  325        5.576091   1.000000
  326        5.576091   1.000000
  327        5.579224   1.000000
  328        5.588972   1.000000
  329        5.588972   1.000000
  330        5.627710   1.000000
  331        5.627710   1.000000
  332        5.638002   1.000000
  333        5.638003   1.000000
  334        5.646075   1.000000
  335        5.653067   1.000000
  336        5.653076   1.000000
  337        5.666150   1.000000
  338        5.666151   1.000000
  339        5.706548   1.000000
  340        5.709119   1.000000
  341        5.709124   1.000000
  342        5.732965   1.000000
  343        5.755841   1.000000
  344        5.808077   1.000000
  345        5.808908   1.000000
  346        5.808910   1.000000
  347        5.828002   1.000000
  348        5.828002   1.000000
  349        5.836325   1.000000
  350        5.836325   1.000000
  351        5.848284   1.000000
  352        5.848284   1.000000
  353        5.855750   1.000000
  354        5.949551   1.000000
  355        5.949551   1.000000
  356        5.988602   1.000000
  357        5.988602   1.000000
  358        6.052263   1.000002
  359        6.052263   1.000002
  360        6.064405   1.000003
  361        6.064405   1.000003
  362        6.075530   1.000004
  363        6.075530   1.000004
  364        6.106953   1.000012
  365        6.106954   1.000012
  366        6.112874   1.000014
  367        6.123406   1.000020
  368        6.123407   1.000020
  369        6.156146   1.000053
  370        6.171214   1.000081
  371        6.171214   1.000081
  372        6.201469   1.000187
  373        6.201469   1.000187
  374        6.203518   1.000197
  375        6.203520   1.000197
  376        6.225913   1.000351
  377        6.242195   1.000525
  378        6.242196   1.000525
  379        6.251546   1.000658
  380        6.251546   1.000658
  381        6.252511   1.000673