       N       E                     dE             d eps       ncg     rms          rms(c)
DAV:   1     0.105478832850E+05    0.10548E+05   -0.47332E+05  4144   0.321E+03
DAV:   2     0.532079999616E+03   -0.10016E+05   -0.98779E+04  4144   0.623E+02
DAV:   3    -0.801167849614E+03   -0.13332E+04   -0.11482E+04  4144   0.287E+02
DAV:   4    -0.102510415562E+04   -0.22394E+03   -0.21106E+03  7528   0.743E+01
DAV:   5    -0.104516143205E+04   -0.20057E+02   -0.19035E+02  6728   0.269E+01    0.935E+01
RMM:   6    -0.877091422480E+03    0.16807E+03   -0.13547E+03  4144   0.112E+02    0.885E+00
RMM:   7    -0.880295695658E+03   -0.32043E+01   -0.11220E+02  4555   0.243E+01    0.509E+00
RMM:   8    -0.882069633783E+03   -0.17739E+01   -0.18550E+01  4632   0.963E+00    0.195E+01
RMM:   9    -0.879519018645E+03    0.25506E+01   -0.56441E+00  4384   0.654E+00    0.276E+00
RMM:  10    -0.879545049994E+03   -0.26031E-01   -0.36919E+00  5986   0.174E+00    0.272E+00
RMM:  11    -0.879536362133E+03    0.86879E-02   -0.27126E-01  5333   0.654E-01    0.835E-01
RMM:  12    -0.879538439819E+03   -0.20777E-02   -0.76432E-02  5428   0.312E-01    0.331E-01
RMM:  13    -0.879537742043E+03    0.69778E-03   -0.13264E-02  4909   0.220E-01    0.952E-02
RMM:  14    -0.879538037273E+03   -0.29523E-03   -0.40212E-03  6148   0.525E-02    0.399E-02
RMM:  15    -0.879538022197E+03    0.15076E-04    0.10960E-04  4985   0.317E-02    0.610E-03
RMM:  16    -0.879537973329E+03    0.48869E-04    0.25702E-04  5742   0.657E-03    0.105E-02
RMM:  17    -0.879537944330E+03    0.28998E-04    0.27210E-04  3474   0.457E-03    0.182E-03
RMM:  18    -0.879537921137E+03    0.23193E-04    0.23160E-04  2849   0.199E-03    0.997E-04
RMM:  19    -0.879537904171E+03    0.16966E-04    0.15710E-04  2740   0.208E-03    0.664E-04
RMM:  20    -0.879537891662E+03    0.12509E-04    0.11551E-04  2650   0.145E-03    0.341E-04
RMM:  21    -0.879537878859E+03    0.12803E-04    0.11869E-04  2600   0.134E-03    0.157E-04
RMM:  22    -0.879537869630E+03    0.92288E-05    0.86371E-05  2329   0.946E-04    0.102E-04
RMM:  23    -0.879537859696E+03    0.99342E-05    0.94299E-05  2215   0.955E-04    0.251E-04
RMM:  24    -0.879537852032E+03    0.76633E-05    0.70489E-05  1861   0.725E-04    0.799E-05
RMM:  25    -0.879537845721E+03    0.63109E-05    0.59698E-05  1754   0.700E-04    0.208E-04
RMM:  26    -0.879537840050E+03    0.56714E-05    0.54374E-05  1551   0.588E-04    0.510E-05
RMM:  27    -0.879537834982E+03    0.50678E-05    0.49046E-05  1478   0.563E-04    0.198E-04
RMM:  28    -0.879537830240E+03    0.47421E-05    0.46129E-05  1320   0.498E-04    0.940E-05
RMM:  29    -0.879537825911E+03    0.43293E-05    0.42274E-05  1263   0.478E-04    0.181E-04
RMM:  30    -0.879537821840E+03    0.40709E-05    0.39740E-05  1171   0.440E-04    0.107E-04
RMM:  31    -0.879537818102E+03    0.37380E-05    0.36530E-05  1078   0.422E-04    0.175E-04
RMM:  32    -0.879537814603E+03    0.34993E-05    0.34246E-05  1042   0.398E-04    0.117E-04
RMM:  33    -0.879537811384E+03    0.32188E-05    0.31509E-05   984   0.385E-04    0.170E-04
RMM:  34    -0.879537808381E+03    0.30028E-05    0.29436E-05   929   0.369E-04    0.128E-04
RMM:  35    -0.879537805619E+03    0.27622E-05    0.27085E-05   867   0.358E-04    0.166E-04
RMM:  36    -0.879537803051E+03    0.25680E-05    0.25218E-05   830   0.348E-04    0.138E-04
RMM:  37    -0.879537800689E+03    0.23621E-05    0.23191E-05   791   0.340E-04    0.160E-04
RMM:  38    -0.879537798498E+03    0.21912E-05    0.21530E-05   752   0.333E-04    0.147E-04
RMM:  39    -0.879537796478E+03    0.20196E-05    0.19784E-05   828   0.333E-04    0.143E-04
RMM:  40    -0.879537794605E+03    0.18731E-05    0.18315E-05   858   0.331E-04    0.110E-04
RMM:  41    -0.879537792894E+03    0.17106E-05    0.16820E-05   746   0.317E-04    0.104E-04
RMM:  42    -0.879537791318E+03    0.15767E-05    0.15537E-05   659   0.311E-04    0.103E-04
RMM:  43    -0.879537789874E+03    0.14438E-05    0.14255E-05   657   0.307E-04    0.113E-04
RMM:  44    -0.879537788539E+03    0.13344E-05    0.13142E-05   660   0.306E-04    0.104E-04
RMM:  45    -0.879537787321E+03    0.12190E-05    0.12048E-05   609   0.299E-04    0.115E-04
RMM:  46    -0.879537786197E+03    0.11235E-05    0.11089E-05   595   0.298E-04    0.118E-04
RMM:  47    -0.879537785167E+03    0.10298E-05    0.10157E-05   585   0.297E-04    0.121E-04
RMM:  48    -0.879537784219E+03    0.94809E-06    0.93340E-06   653   0.296E-04
   1 F= -.87953778E+03 E0= -.87951389E+03  d E =-.879538E+03
       N       E                     dE             d eps       ncg     rms          rms(c)
DAV:   1    -0.879783099890E+03   -0.24531E+00   -0.64553E+00  4728   0.808E+00    0.379E+00
RMM:   2    -0.879539526372E+03    0.24357E+00   -0.21141E+00  4153   0.402E+00    0.468E-01
RMM:   3    -0.879538329831E+03    0.11965E-02   -0.17059E-01  4614   0.755E-01    0.376E-01
RMM:   4    -0.879534733891E+03    0.35959E-02   -0.70674E-02  4144   0.881E-01    0.354E-01
RMM:   5    -0.879534938629E+03   -0.20474E-03   -0.14876E-02  4153   0.351E-01    0.651E-01
RMM:   6    -0.879533016442E+03    0.19222E-02   -0.45372E-03  4217   0.169E-01    0.841E-02
RMM:   7    -0.879532942012E+03    0.74429E-04   -0.62089E-04  4675   0.456E-02    0.584E-02
RMM:   8    -0.879532922743E+03    0.19270E-04   -0.13270E-04  4194   0.304E-02    0.322E-02
RMM:   9    -0.879532937651E+03   -0.14908E-04   -0.12659E-04  4205   0.272E-02    0.485E-03
RMM:  10    -0.879532943324E+03   -0.56731E-05   -0.30527E-05  4749   0.521E-03    0.663E-03
RMM:  11    -0.879532939595E+03    0.37282E-05   -0.11963E-06  2287   0.369E-03    0.691E-04
RMM:  12    -0.879532940595E+03   -0.99994E-06   -0.58747E-08  2213   0.130E-03
   2 F= -.87953294E+03 E0= -.87951033E+03  d E =0.484362E-02
       N       E                     dE             d eps       ncg     rms          rms(c)
DAV:   1    -0.879627431840E+03   -0.94492E-01   -0.22081E+00  4648   0.472E+00    0.221E+00
RMM:   2    -0.879544390264E+03    0.83042E-01   -0.71557E-01  4153   0.235E+00    0.275E-01
RMM:   3    -0.879544470285E+03   -0.80021E-04   -0.59565E-02  4619   0.439E-01    0.218E-01
RMM:   4    -0.879543215331E+03    0.12550E-02   -0.23592E-02  4144   0.510E-01    0.206E-01
RMM:   5    -0.879543417929E+03   -0.20260E-03   -0.51088E-03  4160   0.202E-01    0.403E-01
RMM:   6    -0.879542668284E+03    0.74964E-03   -0.17089E-03  4217   0.107E-01    0.493E-02
RMM:   7    -0.879542621955E+03    0.46330E-04   -0.24878E-04  4816   0.254E-02    0.373E-02
RMM:   8    -0.879542589469E+03    0.32485E-04   -0.45628E-05  4174   0.183E-02    0.214E-02
RMM:   9    -0.879542564985E+03    0.24484E-04   -0.55090E-05  4186   0.183E-02    0.319E-03
RMM:  10    -0.879542564325E+03    0.66027E-06   -0.10068E-05  3537   0.323E-03    0.308E-03
RMM:  11    -0.879542566080E+03   -0.17546E-05   -0.81977E-07  2235   0.247E-03    0.614E-04
RMM:  12    -0.879542565717E+03    0.36312E-06   -0.30000E-07  2199   0.106E-03
   3 F= -.87954257E+03 E0= -.87951924E+03  d E =-.478150E-02
