 vasp.5.4.4.18Apr17-6-g9f103f2a35 (build Aug 17 2017 06:00:38) complex          
  
 executed on             LinuxIFC date 2019.07.12  15:31:05
 running on    8 total cores
 distrk:  each k-point on    8 cores,    1 groups
 distr:  one band on NCORES_PER_BAND=   4 cores,    2 groups


--------------------------------------------------------------------------------------------------------


 INCAR:
 POTCAR:   PAW_PBE Fe 06Sep2000                   
 POTCAR:   PAW_PBE Fe 06Sep2000                   
   VRHFIN =Fe:  d7 s1                                                           
   LEXCH  = PE                                                                  
   EATOM  =   594.4687 eV,   43.6922 Ry                                         
                                                                                
   TITEL  = PAW_PBE Fe 06Sep2000                                                
   LULTRA =        F    use ultrasoft PP ?                                      
   IUNSCR =        1    unscreen: 0-lin 1-nonlin 2-no                           
   RPACOR =    2.000    partial core radius                                     
   POMASS =   55.847; ZVAL   =    8.000    mass and valenz                      
   RCORE  =    2.300    outmost cutoff radius                                   
   RWIGS  =    2.460; RWIGS  =    1.302    wigner-seitz radius (au A)           
   ENMAX  =  267.883; ENMIN  =  200.912 eV                                      
   RCLOC  =    1.701    cutoff for local pot                                    
   LCOR   =        T    correct aug charges                                     
   LPAW   =        T    paw PP                                                  
   EAUG   =  511.368                                                            
   DEXC   =    -.022                                                            
   RMAX   =    2.817    core radius for proj-oper                               
   RAUG   =    1.300    factor for augmentation sphere                          
   RDEP   =    2.442    radius for radial grids                                 
   QCUT   =   -4.437; QGAM   =    8.874    optimization parameters              
                                                                                
   Description                                                                  
     l     E      TYP  RCUT    TYP  RCUT                                        
     2   .000     23  2.300                                                     
     2   .000     23  2.300                                                     
     0   .000     23  2.300                                                     
     0   .000     23  2.300                                                     
     1  -.200     23  2.300                                                     
     1   .000     23  2.300                                                     
     3   .000      7   .000                                                     
  local pseudopotential read in
  partial core-charges read in
  atomic valenz-charges read in
  non local Contribution for L=           2  read in
    real space projection operators read in
  non local Contribution for L=           2  read in
    real space projection operators read in
  non local Contribution for L=           0  read in
    real space projection operators read in
  non local Contribution for L=           0  read in
    real space projection operators read in
  non local Contribution for L=           1  read in
    real space projection operators read in
  non local Contribution for L=           1  read in
    real space projection operators read in
    PAW grid and wavefunctions read in
 
   number of l-projection  operators is LMAX  =           6
   number of lm-projection operators is LMMAX =          18
 
 Optimization of the real space projectors (new method)

 maximal supplied QI-value         = 16.25
 optimisation between [QCUT,QGAM] = [ 14.79, 29.74] = [ 61.25,247.68] Ry 
 Optimized for a Real-space Cutoff    1.31 Angstroem

   l    n(q)    QCUT    max X(q) W(low)/X(q) W(high)/X(q)  e(spline) 
   2     11    14.789     4.378    0.27E-04    0.18E-04    0.57E-07
   2     11    14.789    23.237    0.44E-03    0.92E-04    0.12E-05
   0     12    14.789    17.641    0.14E-04    0.59E-05    0.60E-07
   0     12    14.789    50.908    0.30E-04    0.45E-04    0.92E-06
   1     11    14.789     6.148    0.18E-04    0.14E-04    0.82E-07
   1     11    14.789     8.345    0.67E-04    0.86E-04    0.17E-06
 PAW_PBE Fe 06Sep2000                   :
 energy of atom  1       EATOM= -594.4687
 kinetic energy error for atom=    0.0004 (will be added to EATOM!!)
 
 
 POSCAR: fcc_Fe_CON_333                          
  positions in direct lattice
  velocities in cartesian coordinates
 exchange correlation table for  LEXCH =        8
   RHO(1)=    0.500       N(1)  =     2000
   RHO(2)=  100.500       N(2)  =     4000
 


--------------------------------------------------------------------------------------------------------


 ion  position               nearest neighbor table
   1  0.000  0.000  0.000-   2 2.44   3 2.44   4 2.44  11 2.44  12 2.44  26 2.44  28 2.44  74 2.44
                            75 2.44  36 2.44  83 2.44  98 2.44
   2  0.000  0.167  0.167-  49 2.44  37 2.44  13 2.44  40 2.44  15 2.44  48 2.44  23 2.44   3 2.44
                             4 2.44   1 2.44  12 2.44  11 2.44
   3  0.167  0.000  0.167-  41 2.44  37 2.44   5 2.44  40 2.44   6 2.44  30 2.44  64 2.44   2 2.44
                             4 2.44   1 2.44  28 2.44  26 2.44
   4  0.167  0.167  0.000-  17 2.44  13 2.44   5 2.44  15 2.44   6 2.44  78 2.44  87 2.44   2 2.44
                             3 2.44   1 2.44  74 2.44  75 2.44
   5  0.333  0.000  0.000-   3 2.44   4 2.44  28 2.44  75 2.44   6 2.44   7 2.44   8 2.44  30 2.44
                            78 2.44  32 2.44  79 2.44 102 2.44
   6  0.333  0.167  0.167-  15 2.44  40 2.44  53 2.44  17 2.44  19 2.44   4 2.44  41 2.44  44 2.44
                             3 2.44   7 2.44   8 2.44   5 2.44
   7  0.500  0.000  0.167-  41 2.44  44 2.44  45 2.44  68 2.44   6 2.44   5 2.44   8 2.44  10 2.44
                            30 2.44   9 2.44  32 2.44  34 2.44
   8  0.500  0.167  0.000-  17 2.44  19 2.44  21 2.44  91 2.44   6 2.44   5 2.44   7 2.44  78 2.44
                            10 2.44  79 2.44   9 2.44  82 2.44
   9  0.667  0.000  0.000-  11 2.44  12 2.44  36 2.44  83 2.44  10 2.44  82 2.44  34 2.44   8 2.44
                             7 2.44 106 2.44  79 2.44  32 2.44
  10  0.667  0.167  0.167-  23 2.44  48 2.44  57 2.44  12 2.44  11 2.44  21 2.44  45 2.44  44 2.44
                            19 2.44   9 2.44   7 2.44   8 2.44
  11  0.833  0.000  0.167-  45 2.44   9 2.44  10 2.44  34 2.44  48 2.44  37 2.44  72 2.44  12 2.44
                             2 2.44  36 2.44   1 2.44  26 2.44
  12  0.833  0.167  0.000-  21 2.44   9 2.44  10 2.44  82 2.44  23 2.44  13 2.44  95 2.44  11 2.44
                             1 2.44  83 2.44   2 2.44  74 2.44
  13  0.000  0.333  0.000-   2 2.44   4 2.44  12 2.44  74 2.44  15 2.44  16 2.44  14 2.44  23 2.44
                            87 2.44  86 2.44  24 2.44  95 2.44
  14  0.000  0.500  0.167-  49 2.44  52 2.44  60 2.44  61 2.44  15 2.44  13 2.44  16 2.44  23 2.44
                            27 2.44  25 2.44  24 2.44  35 2.44
  15  0.167  0.333  0.167-   6 2.44  40 2.44  53 2.44  17 2.44  18 2.44   4 2.44  49 2.44  52 2.44
                             2 2.44  13 2.44  14 2.44  16 2.44
  16  0.167  0.500  0.000-  17 2.44  18 2.44  29 2.44  90 2.44  15 2.44  14 2.44  13 2.44  87 2.44
                            27 2.44  25 2.44  86 2.44  99 2.44
  17  0.333  0.333  0.000-   4 2.44   8 2.44  16 2.44  15 2.44   6 2.44  78 2.44  87 2.44  20 2.44
                            18 2.44  19 2.44  90 2.44  91 2.44
  18  0.333  0.500  0.167-  52 2.44  16 2.44  56 2.44  53 2.44  15 2.44  27 2.44  65 2.44  20 2.44
                            17 2.44  19 2.44  29 2.44  31 2.44
  19  0.500  0.333  0.167-  44 2.44   8 2.44  56 2.44  53 2.44   6 2.44  10 2.44  57 2.44  18 2.44
                            20 2.44  17 2.44  21 2.44  22 2.44
  20  0.500  0.500  0.000-  17 2.44  18 2.44  19 2.44  21 2.44  22 2.44  29 2.44  31 2.44  90 2.44
                            91 2.44  33 2.44  94 2.44 103 2.44
  21  0.667  0.333  0.000-  12 2.44  24 2.44  23 2.44  95 2.44  10 2.44   8 2.44  82 2.44  22 2.44
                            20 2.44  94 2.44  19 2.44  91 2.44
  22  0.667  0.500  0.167-  60 2.44  24 2.44  23 2.44  35 2.44  57 2.44  56 2.44  69 2.44  21 2.44
                            33 2.44  20 2.44  19 2.44  31 2.44
  23  0.833  0.333  0.167-  10 2.44  57 2.44  48 2.44  21 2.44  22 2.44  12 2.44  60 2.44   2 2.44
                            49 2.44  24 2.44  14 2.44  13 2.44
  24  0.833  0.500  0.000-  21 2.44  22 2.44  33 2.44  94 2.44  23 2.44  35 2.44  95 2.44  14 2.44
                            13 2.44 107 2.44  86 2.44  25 2.44
  25  0.000  0.667  0.000-  26 2.44  28 2.44  36 2.44  98 2.44  27 2.44  35 2.44  99 2.44  16 2.44
                            14 2.44 107 2.44  86 2.44  24 2.44
  26  0.000  0.833  0.167-  61 2.44  25 2.44  27 2.44  35 2.44  64 2.44  37 2.44  72 2.44  28 2.44
                             3 2.44  36 2.44   1 2.44  11 2.44
  27  0.167  0.667  0.167-  30 2.44  64 2.44  65 2.44  28 2.44  26 2.44  29 2.44  61 2.44  52 2.44
                            18 2.44  25 2.44  14 2.44  16 2.44
  28  0.167  0.833  0.000-  29 2.44  25 2.44  27 2.44  99 2.44  30 2.44   5 2.44 102 2.44  26 2.44
                            98 2.44   1 2.44   3 2.44  75 2.44
  29  0.333  0.667  0.000-  28 2.44  32 2.44  30 2.44 102 2.44  27 2.44  16 2.44  99 2.44  31 2.44
                            20 2.44  18 2.44 103 2.44  90 2.44
  30  0.333  0.833  0.167-  27 2.44  65 2.44  64 2.44  29 2.44  31 2.44  28 2.44  68 2.44  41 2.44
                             3 2.44  32 2.44   7 2.44   5 2.44
  31  0.500  0.667  0.167-  68 2.44  32 2.44  30 2.44  34 2.44  65 2.44  56 2.44  69 2.44  29 2.44
                            33 2.44  20 2.44  18 2.44  22 2.44
  32  0.500  0.833  0.000-  29 2.44  31 2.44  33 2.44 103 2.44  30 2.44 102 2.44  34 2.44   7 2.44
                             5 2.44 106 2.44  79 2.44   9 2.44
  33  0.667  0.667  0.000-  36 2.44  35 2.44  34 2.44  32 2.44  24 2.44 106 2.44 107 2.44  22 2.44
                            31 2.44 103 2.44  20 2.44  94 2.44
  34  0.667  0.833  0.167-  35 2.44  69 2.44  72 2.44  33 2.44  36 2.44  31 2.44  11 2.44  45 2.44
                            68 2.44  32 2.44   9 2.44   7 2.44
  35  0.833  0.667  0.167-  34 2.44  69 2.44  72 2.44  33 2.44  36 2.44  26 2.44  22 2.44  60 2.44
                            61 2.44  24 2.44  25 2.44  14 2.44
  36  0.833  0.833  0.000-  33 2.44  34 2.44  35 2.44  25 2.44   9 2.44 106 2.44 107 2.44  26 2.44
                            11 2.44  98 2.44   1 2.44  83 2.44
  37  0.000  0.000  0.333-   2 2.44   3 2.44  11 2.44  26 2.44  40 2.44  39 2.44  38 2.44  48 2.44
                            64 2.44  62 2.44  47 2.44  72 2.44
  38  0.000  0.167  0.500-  49 2.44  51 2.44  59 2.44  85 2.44  40 2.44  39 2.44  37 2.44  76 2.44
                            48 2.44  47 2.44  73 2.44  84 2.44
  39  0.167  0.000  0.500-  41 2.44  42 2.44  66 2.44  77 2.44  40 2.44  38 2.44  37 2.44  76 2.44
                            64 2.44  62 2.44  73 2.44 100 2.44
  40  0.167  0.167  0.333-   6 2.44  15 2.44  53 2.44   3 2.44  41 2.44  42 2.44  49 2.44  51 2.44
                             2 2.44  39 2.44  37 2.44  38 2.44
  41  0.333  0.000  0.333-   3 2.44   7 2.44  39 2.44   6 2.44  40 2.44  30 2.44  64 2.44  43 2.44
                            44 2.44  42 2.44  66 2.44  68 2.44
  42  0.333  0.167  0.500-  51 2.44  39 2.44  55 2.44  53 2.44  40 2.44  76 2.44  89 2.44  44 2.44
                            41 2.44  43 2.44  80 2.44  77 2.44
  43  0.500  0.000  0.500-  41 2.44  42 2.44  44 2.44  45 2.44  46 2.44  66 2.44  68 2.44  77 2.44
                            80 2.44  70 2.44  81 2.44 104 2.44
  44  0.500  0.167  0.333-  19 2.44   7 2.44  55 2.44  53 2.44   6 2.44  10 2.44  57 2.44  41 2.44
                            42 2.44  43 2.44  46 2.44  45 2.44
  45  0.667  0.000  0.333-  11 2.44  47 2.44  48 2.44  72 2.44  10 2.44   7 2.44  34 2.44  46 2.44
                            43 2.44  70 2.44  44 2.44  68 2.44
  46  0.667  0.167  0.500-  59 2.44  47 2.44  48 2.44  84 2.44  57 2.44  55 2.44  93 2.44  45 2.44
                            81 2.44  43 2.44  44 2.44  80 2.44
  47  0.833  0.000  0.500-  45 2.44  46 2.44  70 2.44  81 2.44  48 2.44  72 2.44  84 2.44  38 2.44
                            37 2.44 108 2.44  73 2.44  62 2.44
  48  0.833  0.167  0.333-  10 2.44  57 2.44  23 2.44  46 2.44  45 2.44  11 2.44  59 2.44   2 2.44
                            49 2.44  47 2.44  37 2.44  38 2.44
  49  0.000  0.333  0.333-   2 2.44  14 2.44  38 2.44  15 2.44  40 2.44  23 2.44  48 2.44  50 2.44
                            51 2.44  52 2.44  59 2.44  60 2.44
  50  0.000  0.500  0.500-  49 2.44  51 2.44  52 2.44  59 2.44  60 2.44  61 2.44  63 2.44  85 2.44
                            88 2.44  71 2.44  96 2.44  97 2.44
  51  0.167  0.333  0.500-  42 2.44  38 2.44  54 2.44  53 2.44  40 2.44  76 2.44  89 2.44  50 2.44
                            52 2.44  49 2.44  88 2.44  85 2.44
  52  0.167  0.500  0.333-  18 2.44  14 2.44  54 2.44  53 2.44  15 2.44  27 2.44  65 2.44  49 2.44
                            50 2.44  51 2.44  63 2.44  61 2.44
  53  0.333  0.333  0.333-   6 2.44  15 2.44  40 2.44  19 2.44  18 2.44  42 2.44  44 2.44  51 2.44
                            52 2.44  54 2.44  55 2.44  56 2.44
  54  0.333  0.500  0.500-  51 2.44  52 2.44  63 2.44  88 2.44  53 2.44  55 2.44  56 2.44  65 2.44
                            89 2.44  67 2.44  92 2.44 101 2.44
  55  0.500  0.333  0.500-  42 2.44  44 2.44  46 2.44  80 2.44  53 2.44  56 2.44  54 2.44  57 2.44
                            89 2.44  58 2.44  92 2.44  93 2.44
  56  0.500  0.500  0.333-  18 2.44  19 2.44  22 2.44  31 2.44  53 2.44  54 2.44  55 2.44  57 2.44
                            65 2.44  58 2.44  67 2.44  69 2.44
  57  0.667  0.333  0.333-  23 2.44  48 2.44  10 2.44  59 2.44  60 2.44  46 2.44  22 2.44  19 2.44
                            44 2.44  58 2.44  56 2.44  55 2.44
  58  0.667  0.500  0.500-  59 2.44  60 2.44  71 2.44  96 2.44  57 2.44  93 2.44  69 2.44  56 2.44
                            55 2.44 105 2.44  92 2.44  67 2.44
  59  0.833  0.333  0.500-  46 2.44  58 2.44  57 2.44  93 2.44  48 2.44  38 2.44  84 2.44  60 2.44
                            50 2.44  49 2.44  96 2.44  85 2.44
  60  0.833  0.500  0.333-  22 2.44  58 2.44  57 2.44  69 2.44  23 2.44  14 2.44  35 2.44  59 2.44
                            49 2.44  50 2.44  71 2.44  61 2.44
  61  0.000  0.667  0.333-  26 2.44  62 2.44  64 2.44  72 2.44  27 2.44  14 2.44  35 2.44  63 2.44
                            50 2.44  71 2.44  52 2.44  60 2.44
  62  0.000  0.833  0.500-  61 2.44  63 2.44  71 2.44  97 2.44  64 2.44  72 2.44 100 2.44  39 2.44
                            37 2.44 108 2.44  73 2.44  47 2.44
  63  0.167  0.667  0.500-  66 2.44  62 2.44  64 2.44 100 2.44  65 2.44  54 2.44 101 2.44  61 2.44
                            97 2.44  50 2.44  52 2.44  88 2.44
  64  0.167  0.833  0.333-  27 2.44  65 2.44  30 2.44  63 2.44  61 2.44  26 2.44  66 2.44   3 2.44
                            41 2.44  62 2.44  37 2.44  39 2.44
  65  0.333  0.667  0.333-  30 2.44  64 2.44  27 2.44  66 2.44  68 2.44  63 2.44  31 2.44  18 2.44
                            52 2.44  67 2.44  56 2.44  54 2.44
  66  0.333  0.833  0.500-  63 2.44  67 2.44  65 2.44 101 2.44  64 2.44  39 2.44 100 2.44  68 2.44
                            43 2.44  41 2.44 104 2.44  77 2.44
  67  0.500  0.667  0.500-  66 2.44  68 2.44  70 2.44 104 2.44  65 2.44 101 2.44  69 2.44  56 2.44
                            54 2.44 105 2.44  92 2.44  58 2.44
  68  0.500  0.833  0.333-  31 2.44  67 2.44  65 2.44  69 2.44  30 2.44   7 2.44  34 2.44  66 2.44
                            41 2.44  43 2.44  70 2.44  45 2.44
  69  0.667  0.667  0.333-  72 2.44  35 2.44  34 2.44  71 2.44  70 2.44  68 2.44  60 2.44  31 2.44
                            22 2.44  58 2.44  67 2.44  56 2.44
  70  0.667  0.833  0.500-  71 2.44  69 2.44  72 2.44  67 2.44  47 2.44 105 2.44 108 2.44  68 2.44
                            45 2.44 104 2.44  43 2.44  81 2.44
  71  0.833  0.667  0.500-  70 2.44  69 2.44  72 2.44  62 2.44  58 2.44 105 2.44 108 2.44  60 2.44
                            61 2.44  97 2.44  50 2.44  96 2.44
  72  0.833  0.833  0.333-  69 2.44  35 2.44  34 2.44  70 2.44  71 2.44  61 2.44  45 2.44  26 2.44
                            11 2.44  62 2.44  47 2.44  37 2.44
  73  0.000  0.000  0.667-  74 2.44  75 2.44  83 2.44  98 2.44  76 2.44  84 2.44 100 2.44  39 2.44
                            38 2.44 108 2.44  47 2.44  62 2.44
  74  0.000  0.167  0.833-  85 2.44  73 2.44  76 2.44  84 2.44  87 2.44  13 2.44  95 2.44  75 2.44
                             4 2.44  83 2.44   1 2.44  12 2.44
  75  0.167  0.000  0.833-  77 2.44  73 2.44  76 2.44 100 2.44  78 2.44   5 2.44 102 2.44  74 2.44
                            98 2.44   1 2.44   4 2.44  28 2.44
  76  0.167  0.167  0.667-  78 2.44  87 2.44  89 2.44  75 2.44  74 2.44  77 2.44  85 2.44  51 2.44
                            42 2.44  73 2.44  38 2.44  39 2.44
  77  0.333  0.000  0.667-  75 2.44  79 2.44  78 2.44 102 2.44  76 2.44  39 2.44 100 2.44  80 2.44
                            43 2.44  42 2.44 104 2.44  66 2.44
  78  0.333  0.167  0.833-  76 2.44  89 2.44  87 2.44  77 2.44  80 2.44  75 2.44  91 2.44  17 2.44
                             4 2.44  79 2.44   8 2.44   5 2.44
  79  0.500  0.000  0.833-  77 2.44  80 2.44  81 2.44 104 2.44  78 2.44 102 2.44  82 2.44   8 2.44
                             5 2.44 106 2.44   9 2.44  32 2.44
  80  0.500  0.167  0.667-  91 2.44  79 2.44  78 2.44  82 2.44  89 2.44  55 2.44  93 2.44  77 2.44
                            43 2.44  81 2.44  42 2.44  46 2.44
  81  0.667  0.000  0.667-  83 2.44  82 2.44  84 2.44  79 2.44  47 2.44 106 2.44 108 2.44  80 2.44
                            46 2.44 104 2.44  70 2.44  43 2.44
  82  0.667  0.167  0.833-  84 2.44  93 2.44  95 2.44  83 2.44  81 2.44  80 2.44  12 2.44  21 2.44
                            91 2.44  79 2.44   9 2.44   8 2.44
  83  0.833  0.000  0.833-  81 2.44  82 2.44  84 2.44  73 2.44   9 2.44 106 2.44 108 2.44  74 2.44
                            12 2.44  98 2.44  36 2.44   1 2.44
  84  0.833  0.167  0.667-  82 2.44  93 2.44  95 2.44  81 2.44  83 2.44  74 2.44  46 2.44  59 2.44
                            85 2.44  73 2.44  47 2.44  38 2.44
  85  0.000  0.333  0.667-  74 2.44  86 2.44  87 2.44  95 2.44  76 2.44  38 2.44  84 2.44  88 2.44
                            51 2.44  50 2.44  96 2.44  59 2.44
  86  0.000  0.500  0.833-  85 2.44  88 2.44  96 2.44  97 2.44  87 2.44  95 2.44  99 2.44  16 2.44
                            13 2.44 107 2.44  24 2.44  25 2.44
  87  0.167  0.333  0.833-  76 2.44  89 2.44  78 2.44  88 2.44  85 2.44  74 2.44  90 2.44  17 2.44
                             4 2.44  86 2.44  16 2.44  13 2.44
  88  0.167  0.500  0.667-  90 2.44  86 2.44  87 2.44  99 2.44  89 2.44  54 2.44 101 2.44  85 2.44
                            97 2.44  50 2.44  51 2.44  63 2.44
  89  0.333  0.333  0.667-  78 2.44  87 2.44  76 2.44  90 2.44  91 2.44  80 2.44  88 2.44  51 2.44
                            42 2.44  92 2.44  54 2.44  55 2.44
  90  0.333  0.500  0.833-  88 2.44  92 2.44  89 2.44 101 2.44  87 2.44  16 2.44  99 2.44  91 2.44
                            20 2.44  17 2.44 103 2.44  29 2.44
  91  0.500  0.333  0.833-  80 2.44  92 2.44  89 2.44  93 2.44  78 2.44   8 2.44  82 2.44  90 2.44
                            20 2.44  17 2.44  94 2.44  21 2.44
  92  0.500  0.500  0.667-  90 2.44  91 2.44  94 2.44 103 2.44  89 2.44 101 2.44  93 2.44  55 2.44
                            54 2.44 105 2.44  58 2.44  67 2.44
  93  0.667  0.333  0.667-  95 2.44  84 2.44  82 2.44  94 2.44  96 2.44  91 2.44  59 2.44  46 2.44
                            80 2.44  92 2.44  58 2.44  55 2.44
  94  0.667  0.500  0.833-  96 2.44  95 2.44  93 2.44  92 2.44  24 2.44 105 2.44 107 2.44  21 2.44
                            91 2.44 103 2.44  33 2.44  20 2.44
  95  0.833  0.333  0.833-  93 2.44  84 2.44  82 2.44  94 2.44  96 2.44  85 2.44  21 2.44  12 2.44
                            74 2.44  86 2.44  24 2.44  13 2.44
  96  0.833  0.500  0.667-  94 2.44  93 2.44  95 2.44  86 2.44  58 2.44 105 2.44 107 2.44  59 2.44
                            85 2.44  97 2.44  71 2.44  50 2.44
  97  0.000  0.667  0.667-  98 2.44  99 2.44 100 2.44  86 2.44  62 2.44 107 2.44 108 2.44  88 2.44
                            63 2.44  96 2.44  50 2.44  71 2.44
  98  0.000  0.833  0.833-  97 2.44  99 2.44 100 2.44  73 2.44  25 2.44 107 2.44 108 2.44  75 2.44
                            28 2.44  83 2.44   1 2.44  36 2.44
  99  0.167  0.667  0.833- 100 2.44 101 2.44 102 2.44  98 2.44  97 2.44  88 2.44  28 2.44  90 2.44
                            29 2.44  86 2.44  25 2.44  16 2.44
 100  0.167  0.833  0.667-  99 2.44 101 2.44 102 2.44  98 2.44  97 2.44  75 2.44  63 2.44  77 2.44
                            66 2.44  73 2.44  62 2.44  39 2.44
 101  0.333  0.667  0.667- 102 2.44 100 2.44  99 2.44 103 2.44 104 2.44  90 2.44  66 2.44  63 2.44
                            88 2.44  92 2.44  67 2.44  54 2.44
 102  0.333  0.833  0.833- 101 2.44 100 2.44  99 2.44 103 2.44 104 2.44  77 2.44  29 2.44  28 2.44
                            75 2.44  79 2.44  32 2.44   5 2.44
 103  0.500  0.667  0.833- 104 2.44 102 2.44 101 2.44  92 2.44  32 2.44 105 2.44 106 2.44  29 2.44
                            90 2.44  94 2.44  20 2.44  33 2.44
 104  0.500  0.833  0.667- 103 2.44 102 2.44 101 2.44  79 2.44  67 2.44 105 2.44 106 2.44  66 2.44
                            77 2.44  81 2.44  43 2.44  70 2.44
 105  0.667  0.667  0.667- 106 2.44 107 2.44 108 2.44  96 2.44 103 2.44 104 2.44  70 2.44  71 2.44
                            94 2.44  67 2.44  92 2.44  58 2.44
 106  0.667  0.833  0.833- 105 2.44 107 2.44 108 2.44  83 2.44 103 2.44 104 2.44  33 2.44  36 2.44
                            81 2.44  32 2.44  79 2.44   9 2.44
 107  0.833  0.667  0.833- 105 2.44 106 2.44 108 2.44  96 2.44  97 2.44  98 2.44  33 2.44  36 2.44
                            94 2.44  25 2.44  86 2.44  24 2.44
 108  0.833  0.833  0.667- 105 2.44 106 2.44 107 2.44  83 2.44  97 2.44  98 2.44  70 2.44  71 2.44
                            81 2.44  62 2.44  73 2.44  47 2.44
 
  LATTYP: Found a simple cubic cell.
 ALAT       =    10.3348470474
  
  Lattice vectors:
  
 A1 = (  10.3348470474,   0.0000000000,   0.0000000000)
 A2 = (   0.0000000000,  10.3348470474,   0.0000000000)
 A3 = (   0.0000000000,   0.0000000000,  10.3348470474)


Analysis of symmetry for initial positions (statically):
=====================================================================
 Subroutine PRICEL returns following result:
 
  LATTYP: Found a simple cubic cell.
 ALAT       =     3.4449252899
  
  Lattice vectors:
  
 A1 = (   3.4449252899,   0.0000000000,   0.0000000000)
 A2 = (   0.0000000000,   3.4449252899,   0.0000000000)
 A3 = (   0.0000000000,   0.0000000000,   3.4449252443)
 
  27 primitive cells build up your supercell.
 

 Routine SETGRP: Setting up the symmetry group for a 
 simple cubic supercell.


 Subroutine GETGRP returns: Found 48 space group operations
 (whereof 48 operations were pure point group operations)
 out of a pool of 48 trial point group operations.


The static configuration has the point symmetry O_h .


Analysis of symmetry for dynamics (positions and initial velocities):
=====================================================================
 Subroutine PRICEL returns following result:
 
  LATTYP: Found a simple cubic cell.
 ALAT       =     3.4449252899
  
  Lattice vectors:
  
 A1 = (   3.4449252899,   0.0000000000,   0.0000000000)
 A2 = (   0.0000000000,   3.4449252899,   0.0000000000)
 A3 = (   0.0000000000,   0.0000000000,   3.4449252443)
 
  27 primitive cells build up your supercell.
 

 Routine SETGRP: Setting up the symmetry group for a 
 simple cubic supercell.


 Subroutine GETGRP returns: Found 48 space group operations
 (whereof 48 operations were pure point group operations)
 out of a pool of 48 trial point group operations.


The dynamic configuration has the point symmetry O_h .


 Subroutine INISYM returns: Found 48 space group operations
 (whereof 48 operations are pure point group operations),
 and found    27 'primitive' translations

 
 
 KPOINTS: pymatgen generated KPOINTS with grid den

Automatic generation of k-mesh.
Space group operators:
 irot       det(A)        alpha          n_x          n_y          n_z        tau_x        tau_y        tau_z
    1     1.000000     0.000000     1.000000     0.000000     0.000000     0.000000     0.000000     0.000000
    2    -1.000000     0.000000     1.000000     0.000000     0.000000     0.000000     0.000000     0.000000
    3     1.000000   120.000000    -0.577350    -0.577350    -0.577350     0.000000     0.000000     0.000000
    4    -1.000000   120.000000    -0.577350    -0.577350    -0.577350     0.000000     0.000000     0.000000
    5     1.000000   120.000000     0.577350     0.577350     0.577350     0.000000     0.000000     0.000000
    6    -1.000000   120.000000     0.577350     0.577350     0.577350     0.000000     0.000000     0.000000
    7     1.000000    90.000000     0.000000     0.000000    -1.000000     0.000000     0.000000     0.000000
    8    -1.000000    90.000000     0.000000     0.000000    -1.000000     0.000000     0.000000     0.000000
    9     1.000000   180.000000     0.000000     0.707107     0.707107     0.000000     0.000000     0.000000
   10    -1.000000   180.000000     0.000000     0.707107     0.707107     0.000000     0.000000     0.000000
   11     1.000000    90.000000     0.000000     1.000000     0.000000     0.000000     0.000000     0.000000
   12    -1.000000    90.000000     0.000000     1.000000     0.000000     0.000000     0.000000     0.000000
   13     1.000000   180.000000     0.000000     0.000000     1.000000     0.000000     0.000000     0.000000
   14    -1.000000   180.000000     0.000000     0.000000     1.000000     0.000000     0.000000     0.000000
   15     1.000000   120.000000    -0.577350     0.577350     0.577350     0.000000     0.000000     0.000000
   16    -1.000000   120.000000    -0.577350     0.577350     0.577350     0.000000     0.000000     0.000000
   17     1.000000   120.000000    -0.577350     0.577350    -0.577350     0.000000     0.000000     0.000000
   18    -1.000000   120.000000    -0.577350     0.577350    -0.577350     0.000000     0.000000     0.000000
   19     1.000000    90.000000     0.000000     0.000000     1.000000     0.000000     0.000000     0.000000
   20    -1.000000    90.000000     0.000000     0.000000     1.000000     0.000000     0.000000     0.000000
   21     1.000000    90.000000    -1.000000     0.000000     0.000000     0.000000     0.000000     0.000000
   22    -1.000000    90.000000    -1.000000     0.000000     0.000000     0.000000     0.000000     0.000000
   23     1.000000   180.000000     0.707107     0.000000     0.707107     0.000000     0.000000     0.000000
   24    -1.000000   180.000000     0.707107     0.000000     0.707107     0.000000     0.000000     0.000000
   25     1.000000   120.000000     0.577350    -0.577350     0.577350     0.000000     0.000000     0.000000
   26    -1.000000   120.000000     0.577350    -0.577350     0.577350     0.000000     0.000000     0.000000
   27     1.000000   120.000000    -0.577350    -0.577350     0.577350     0.000000     0.000000     0.000000
   28    -1.000000   120.000000    -0.577350    -0.577350     0.577350     0.000000     0.000000     0.000000
   29     1.000000   180.000000     1.000000     0.000000     0.000000     0.000000     0.000000     0.000000
   30    -1.000000   180.000000     1.000000     0.000000     0.000000     0.000000     0.000000     0.000000
   31     1.000000    90.000000     0.000000    -1.000000     0.000000     0.000000     0.000000     0.000000
   32    -1.000000    90.000000     0.000000    -1.000000     0.000000     0.000000     0.000000     0.000000
   33     1.000000   180.000000     0.707107     0.707107     0.000000     0.000000     0.000000     0.000000
   34    -1.000000   180.000000     0.707107     0.707107     0.000000     0.000000     0.000000     0.000000
   35     1.000000    90.000000     1.000000     0.000000     0.000000     0.000000     0.000000     0.000000
   36    -1.000000    90.000000     1.000000     0.000000     0.000000     0.000000     0.000000     0.000000
   37     1.000000   120.000000     0.577350    -0.577350    -0.577350     0.000000     0.000000     0.000000
   38    -1.000000   120.000000     0.577350    -0.577350    -0.577350     0.000000     0.000000     0.000000
   39     1.000000   180.000000     0.000000     1.000000     0.000000     0.000000     0.000000     0.000000
   40    -1.000000   180.000000     0.000000     1.000000     0.000000     0.000000     0.000000     0.000000
   41     1.000000   120.000000     0.577350     0.577350    -0.577350     0.000000     0.000000     0.000000
   42    -1.000000   120.000000     0.577350     0.577350    -0.577350     0.000000     0.000000     0.000000
   43     1.000000   180.000000     0.000000    -0.707107     0.707107     0.000000     0.000000     0.000000
   44    -1.000000   180.000000     0.000000    -0.707107     0.707107     0.000000     0.000000     0.000000
   45     1.000000   180.000000     0.707107    -0.707107     0.000000     0.000000     0.000000     0.000000
   46    -1.000000   180.000000     0.707107    -0.707107     0.000000     0.000000     0.000000     0.000000
   47     1.000000   180.000000     0.707107     0.000000    -0.707107     0.000000     0.000000     0.000000
   48    -1.000000   180.000000     0.707107     0.000000    -0.707107     0.000000     0.000000     0.000000
 
 Subroutine IBZKPT returns following result:
 ===========================================
 
 Found      4 irreducible k-points:
 
 Following reciprocal coordinates:
            Coordinates               Weight
  0.125000  0.125000  0.125000      8.000000
  0.375000  0.125000  0.125000     24.000000
  0.375000  0.375000  0.125000     24.000000
  0.375000  0.375000  0.375000      8.000000
 
 Following cartesian coordinates:
            Coordinates               Weight
  0.012095  0.012095  0.012095      8.000000
  0.036285  0.012095  0.012095     24.000000
  0.036285  0.036285  0.012095     24.000000
  0.036285  0.036285  0.036285      8.000000
 


--------------------------------------------------------------------------------------------------------




 Dimension of arrays:
   k-points           NKPTS =      4   k-points in BZ     NKDIM =      4   number of bands    NBANDS=    518
   number of dos      NEDOS =    301   number of ions     NIONS =    108
   non local maximal  LDIM  =      6   non local SUM 2l+1 LMDIM =     18
   total plane-waves  NPLWV = 373248
   max r-space proj   IRMAX =   3240   max aug-charges    IRDMAX=  12243
   dimension x,y,z NGX =    72 NGY =   72 NGZ =   72
   dimension x,y,z NGXF=   144 NGYF=  144 NGZF=  144
   support grid    NGXF=   144 NGYF=  144 NGZF=  144
   ions per type =             108
   NGX,Y,Z   is equivalent  to a cutoff of  11.58, 11.58, 11.58 a.u.
   NGXF,Y,Z  is equivalent  to a cutoff of  23.16, 23.16, 23.16 a.u.

 Based on PREC, I would recommend the following setting:
   dimension x,y,z NGX =    80 NGY =   80 NGZ =   80


 ----------------------------------------------------------------------------- 
|                                                                             |
|           W    W    AA    RRRRR   N    N  II  N    N   GGGG   !!!           |
|           W    W   A  A   R    R  NN   N  II  NN   N  G    G  !!!           |
|           W    W  A    A  R    R  N N  N  II  N N  N  G       !!!           |
|           W WW W  AAAAAA  RRRRR   N  N N  II  N  N N  G  GGG   !            |
|           WW  WW  A    A  R   R   N   NN  II  N   NN  G    G                |
|           W    W  A    A  R    R  N    N  II  N    N   GGGG   !!!           |
|                                                                             |
|      Your FFT grids (NGX,NGY,NGZ) are not sufficient for an accurate        |
|      calculation.                                                           |
|      The results might be wrong                                             |
|      good settings for NGX NGY and  NGZ are                                 |
|                        80  80  and  80                                      |
|     Mind: This setting results in a small but reasonable wrap around error  |
|     It is also necessary to adjust these  values to the FFT routines you use|
|                                                                             |
 ----------------------------------------------------------------------------- 

 SYSTEM =  Opt                                     
 POSCAR =  fcc_Fe_CON_333                          

 Startparameter for this run:
   NWRITE =      2    write-flag & timer
   PREC   = normal    normal or accurate (medium, high low for compatibility)
   ISTART =      0    job   : 0-new  1-cont  2-samecut
   ICHARG =      2    charge: 1-file 2-atom 10-const
   ISPIN  =      1    spin polarized calculation?
   LNONCOLLINEAR =      F non collinear calculations
   LSORBIT =      F    spin-orbit coupling
   INIWAV =      1    electr: 0-lowe 1-rand  2-diag
   LASPH  =      F    aspherical Exc in radial PAW
   METAGGA=      F    non-selfconsistent MetaGGA calc.

 Electronic Relaxation 1
   ENCUT  =  850.0 eV  62.47 Ry    7.90 a.u.  24.57 24.57 24.57*2*pi/ulx,y,z
   ENINI  =  850.0     initial cutoff
   ENAUG  =  511.4 eV  augmentation charge cutoff
   NELM   =    400;   NELMIN=  2; NELMDL= -5     # of ELM steps 
   EDIFF  = 0.1E-05   stopping-criterion for ELM
   LREAL  =      T    real-space projection
   NLSPLINE    = F    spline interpolate recip. space projectors
   LCOMPAT=      F    compatible to vasp.4.4
   GGA_COMPAT  = T    GGA compatible to vasp.4.4-vasp.4.6
   LMAXPAW     = -100 max onsite density
   LMAXMIX     =    2 max onsite mixed and CHGCAR
   VOSKOWN=      0    Vosko Wilk Nusair interpolation
   ROPT   =   -0.00050
 Ionic relaxation
   EDIFFG = -.1E-01   stopping-criterion for IOM
   NSW    =    100    number of steps for IOM
   NBLOCK =      1;   KBLOCK =    100    inner block; outer block 
   IBRION =      2    ionic relax: 0-MD 1-quasi-New 2-CG
   NFREE  =      1    steps in history (QN), initial steepest desc. (CG)
   ISIF   =      3    stress and relaxation
   IWAVPR =     11    prediction:  0-non 1-charg 2-wave 3-comb
   ISYM   =      2    0-nonsym 1-usesym 2-fastsym
   LCORR  =      T    Harris-Foulkes like correction to forces

   POTIM  = 0.5000    time-step for ionic-motion
   TEIN   =    0.0    initial temperature
   TEBEG  =    0.0;   TEEND  =   0.0 temperature during run
   SMASS  =  -3.00    Nose mass-parameter (am)
   estimated Nose-frequenzy (Omega)   =  0.10E-29 period in steps =****** mass=  -0.244E-26a.u.
   SCALEE = 1.0000    scale energy and forces
   NPACO  =    256;   APACO  = 16.0  distance and # of slots for P.C.
   PSTRESS=    0.0 pullay stress

  Mass of Ions in am
   POMASS =  55.85
  Ionic Valenz
   ZVAL   =   8.00
  Atomic Wigner-Seitz radii
   RWIGS  =  -1.00
  virtual crystal weights 
   VCA    =   1.00
   NELECT =     864.0000    total number of electrons
   NUPDOWN=      -1.0000    fix difference up-down

 DOS related values:
   EMIN   =  10.00;   EMAX   =-10.00  energy-range for DOS
   EFERMI =   0.00
   ISMEAR =     1;   SIGMA  =   0.20  broadening in eV -4-tet -1-fermi 0-gaus

 Electronic relaxation 2 (details)
   IALGO  =     68    algorithm
   LDIAG  =      T    sub-space diagonalisation (order eigenvalues)
   LSUBROT=      F    optimize rotation matrix (better conditioning)
   TURBO    =      0    0=normal 1=particle mesh
   IRESTART =      0    0=no restart 2=restart with 2 vectors
   NREBOOT  =      0    no. of reboots
   NMIN     =      0    reboot dimension
   EREF     =   0.00    reference energy to select bands
   IMIX   =      4    mixing-type and parameters
     AMIX     =   0.40;   BMIX     =  1.00
     AMIX_MAG =   1.60;   BMIX_MAG =  1.00
     AMIN     =   0.10
     WC   =   100.;   INIMIX=   1;  MIXPRE=   1;  MAXMIX= -45

 Intra band minimization:
   WEIMIN = 0.0010     energy-eigenvalue tresh-hold
   EBREAK =  0.48E-09  absolut break condition
   DEPER  =   0.30     relativ break condition  

   TIME   =   0.40     timestep for ELM

  volume/ion in A,a.u.               =      10.22        68.97
  Fermi-wavevector in a.u.,A,eV,Ry     =   1.508720  2.851068 30.970078  2.276236
  Thomas-Fermi vector in A             =   2.619137
 
 Write flags
   LWAVE        =      F    write WAVECAR
   LDOWNSAMPLE  =      F    k-point downsampling of WAVECAR
   LCHARG       =      F    write CHGCAR
   LVTOT        =      F    write LOCPOT, total local potential
   LVHAR        =      F    write LOCPOT, Hartree potential only
   LELF         =      F    write electronic localiz. function (ELF)
   LORBIT       =      0    0 simple, 1 ext, 2 COOP (PROOUT), +10 PAW based schemes


 Dipole corrections
   LMONO  =      F    monopole corrections only (constant potential shift)
   LDIPOL =      F    correct potential (dipole corrections)
   IDIPOL =      0    1-x, 2-y, 3-z, 4-all directions 
   EPSILON=  1.0000000 bulk dielectric constant

 Exchange correlation treatment:
   GGA     =    --    GGA type
   LEXCH   =     8    internal setting for exchange type
   VOSKOWN=      0    Vosko Wilk Nusair interpolation
   LHFCALC =     F    Hartree Fock is set to
   LHFONE  =     F    Hartree Fock one center treatment
   AEXX    =    0.0000 exact exchange contribution

 Linear response parameters
   LEPSILON=     F    determine dielectric tensor
   LRPA    =     F    only Hartree local field effects (RPA)
   LNABLA  =     F    use nabla operator in PAW spheres
   LVEL    =     F    velocity operator in full k-point grid
   LINTERFAST=   F  fast interpolation
   KINTER  =     0    interpolate to denser k-point grid
   CSHIFT  =0.1000    complex shift for real part using Kramers Kronig
   OMEGAMAX=  -1.0    maximum frequency
   DEG_THRESHOLD= 0.2000000E-02 threshold for treating states as degnerate
   RTIME   =   -0.100 relaxation time in fs
  (WPLASMAI=    0.000 imaginary part of plasma frequency in eV, 0.658/RTIME)
   DFIELD  = 0.0000000 0.0000000 0.0000000 field for delta impulse in time
 
 Orbital magnetization related:
   ORBITALMAG=     F  switch on orbital magnetization
   LCHIMAG   =     F  perturbation theory with respect to B field
   DQ        =  0.001000  dq finite difference perturbation B field
   LLRAUG    =     F  two centre corrections for induced B field



--------------------------------------------------------------------------------------------------------


 conjugate gradient relaxation of ions
 charge density and potential will be updated during run
 non-spin polarized calculation
 RMM-DIIS sequential band-by-band and
  variant of blocked Davidson during initial phase
 perform sub-space diagonalisation
    before iterative eigenvector-optimisation
 modified Broyden-mixing scheme, WC =      100.0
 initial mixing is a Kerker type mixing with AMIX =  0.4000 and BMIX =      1.0000
 Hartree-type preconditioning will be used
 using additional bands           86
 real space projection scheme for non local part
 use partial core corrections
 calculate Harris-corrections to forces 
   (improved forces if not selfconsistent)
 use gradient corrections 
 use of overlap-Matrix (Vanderbilt PP)
 Methfessel and Paxton  Order N= 1 SIGMA  =   0.20


--------------------------------------------------------------------------------------------------------


  energy-cutoff  :      850.00
  volume of cell :     1103.86
      direct lattice vectors                 reciprocal lattice vectors
    10.334847047  0.000000000  0.000000000     0.096760019  0.000000000  0.000000000
     0.000000000 10.334847047  0.000000000     0.000000000  0.096760019  0.000000000
     0.000000000  0.000000000 10.334847047     0.000000000  0.000000000  0.096760019

  length of vectors
    10.334847047 10.334847047 10.334847047     0.096760019  0.096760019  0.096760019


 
 k-points in units of 2pi/SCALE and weight: pymatgen generated KPOINTS with grid den
   0.01209500  0.01209500  0.01209500       0.125
   0.03628501  0.01209500  0.01209500       0.375
   0.03628501  0.03628501  0.01209500       0.375
   0.03628501  0.03628501  0.03628501       0.125
 
 k-points in reciprocal lattice and weights: pymatgen generated KPOINTS with grid den
   0.12500000  0.12500000  0.12500000       0.125
   0.37500000  0.12500000  0.12500000       0.375
   0.37500000  0.37500000  0.12500000       0.375
   0.37500000  0.37500000  0.37500000       0.125
 
 position of ions in fractional coordinates (direct lattice) 
   0.00000000  0.00000000  0.00000000
   0.00000000  0.16666893  0.16666893
   0.16666893  0.00000000  0.16666893
   0.16666893  0.16666893  0.00000000
   0.33333106  0.00000000  0.00000000
   0.33333107  0.16666893  0.16666893
   0.50000000  0.00000000  0.16666894
   0.50000000  0.16666894  0.00000000
   0.66666897  0.00000000  0.00000000
   0.66666896  0.16666893  0.16666893
   0.83333104  0.00000000  0.16666893
   0.83333104  0.16666893  0.00000000
   0.00000000  0.33333106  0.00000000
   0.00000000  0.50000000  0.16666894
   0.16666893  0.33333107  0.16666893
   0.16666894  0.50000000  0.00000000
   0.33333107  0.33333107  0.00000000
   0.33333107  0.50000000  0.16666893
   0.50000000  0.33333107  0.16666893
   0.50000000  0.50000000  0.00000000
   0.66666896  0.33333107  0.00000000
   0.66666896  0.50000000  0.16666893
   0.83333104  0.33333107  0.16666893
   0.83333103  0.50000000  0.00000000
   0.00000000  0.66666897  0.00000000
   0.00000000  0.83333104  0.16666893
   0.16666893  0.66666896  0.16666893
   0.16666893  0.83333104  0.00000000
   0.33333107  0.66666896  0.00000000
   0.33333107  0.83333104  0.16666893
   0.50000000  0.66666896  0.16666893
   0.50000000  0.83333103  0.00000000
   0.66666896  0.66666896  0.00000000
   0.66666896  0.83333104  0.16666893
   0.83333104  0.66666896  0.16666893
   0.83333104  0.83333104  0.00000000
   0.00000000  0.00000000  0.33333106
   0.00000000  0.16666894  0.50000000
   0.16666894  0.00000000  0.50000000
   0.16666893  0.16666893  0.33333107
   0.33333107  0.00000000  0.33333107
   0.33333107  0.16666893  0.50000000
   0.50000000  0.00000000  0.50000000
   0.50000000  0.16666893  0.33333107
   0.66666896  0.00000000  0.33333107
   0.66666896  0.16666893  0.50000000
   0.83333103  0.00000000  0.50000000
   0.83333104  0.16666893  0.33333107
   0.00000000  0.33333107  0.33333107
   0.00000000  0.50000000  0.50000000
   0.16666893  0.33333107  0.50000000
   0.16666893  0.50000000  0.33333107
   0.33333107  0.33333107  0.33333107
   0.33333106  0.50000000  0.50000000
   0.50000000  0.33333106  0.50000000
   0.50000000  0.50000000  0.33333106
   0.66666896  0.33333107  0.33333107
   0.66666897  0.50000000  0.50000000
   0.83333104  0.33333107  0.50000000
   0.83333104  0.50000000  0.33333107
   0.00000000  0.66666896  0.33333107
   0.00000000  0.83333103  0.50000000
   0.16666893  0.66666896  0.50000000
   0.16666893  0.83333104  0.33333107
   0.33333107  0.66666896  0.33333107
   0.33333107  0.83333104  0.50000000
   0.50000000  0.66666897  0.50000000
   0.50000000  0.83333104  0.33333107
   0.66666896  0.66666896  0.33333107
   0.66666896  0.83333104  0.50000000
   0.83333104  0.66666896  0.50000000
   0.83333104  0.83333104  0.33333107
   0.00000000  0.00000000  0.66666897
   0.00000000  0.16666893  0.83333104
   0.16666893  0.00000000  0.83333104
   0.16666893  0.16666893  0.66666896
   0.33333107  0.00000000  0.66666896
   0.33333107  0.16666893  0.83333104
   0.50000000  0.00000000  0.83333103
   0.50000000  0.16666893  0.66666896
   0.66666896  0.00000000  0.66666896
   0.66666896  0.16666893  0.83333104
   0.83333104  0.00000000  0.83333104
   0.83333104  0.16666893  0.66666896
   0.00000000  0.33333107  0.66666896
   0.00000000  0.50000000  0.83333103
   0.16666893  0.33333107  0.83333104
   0.16666893  0.50000000  0.66666896
   0.33333107  0.33333107  0.66666896
   0.33333107  0.50000000  0.83333104
   0.50000000  0.33333107  0.83333104
   0.50000000  0.50000000  0.66666897
   0.66666896  0.33333107  0.66666896
   0.66666896  0.50000000  0.83333104
   0.83333104  0.33333107  0.83333104
   0.83333104  0.50000000  0.66666896
   0.00000000  0.66666896  0.66666896
   0.00000000  0.83333104  0.83333104
   0.16666893  0.66666896  0.83333104
   0.16666893  0.83333104  0.66666896
   0.33333107  0.66666896  0.66666896
   0.33333107  0.83333104  0.83333104
   0.50000000  0.66666896  0.83333104
   0.50000000  0.83333104  0.66666896
   0.66666896  0.66666896  0.66666896
   0.66666896  0.83333104  0.83333104
   0.83333104  0.66666896  0.83333104
   0.83333104  0.83333104  0.66666896
 
 position of ions in cartesian coordinates  (Angst):
   0.00000000  0.00000000  0.00000000
   0.00000000  1.72249793  1.72249793
   1.72249793  0.00000000  1.72249793
   1.72249793  1.72249793  0.00000000
   3.44492554  0.00000000  0.00000000
   3.44492559  1.72249794  1.72249794
   5.16742352  0.00000000  1.72249798
   5.16742352  1.72249798  0.00000000
   6.88992180  0.00000000  0.00000000
   6.88992176  1.72249794  1.72249794
   8.61234881  0.00000000  1.72249793
   8.61234881  1.72249793  0.00000000
   0.00000000  3.44492554  0.00000000
   0.00000000  5.16742352  1.72249798
   1.72249794  3.44492559  1.72249794
   1.72249798  5.16742352  0.00000000
   3.44492559  3.44492559  0.00000000
   3.44492559  5.16742352  1.72249793
   5.16742352  3.44492559  1.72249793
   5.16742352  5.16742352  0.00000000
   6.88992176  3.44492559  0.00000000
   6.88992176  5.16742352  1.72249793
   8.61234881  3.44492559  1.72249794
   8.61234877  5.16742352  0.00000000
   0.00000000  6.88992180  0.00000000
   0.00000000  8.61234881  1.72249793
   1.72249794  6.88992176  1.72249794
   1.72249793  8.61234881  0.00000000
   3.44492559  6.88992176  0.00000000
   3.44492559  8.61234881  1.72249794
   5.16742352  6.88992176  1.72249793
   5.16742352  8.61234877  0.00000000
   6.88992176  6.88992176  0.00000000
   6.88992176  8.61234881  1.72249794
   8.61234881  6.88992176  1.72249794
   8.61234881  8.61234881  0.00000000
   0.00000000  0.00000000  3.44492554
   0.00000000  1.72249798  5.16742352
   1.72249798  0.00000000  5.16742352
   1.72249794  1.72249794  3.44492559
   3.44492559  0.00000000  3.44492559
   3.44492559  1.72249793  5.16742352
   5.16742352  0.00000000  5.16742352
   5.16742352  1.72249793  3.44492559
   6.88992176  0.00000000  3.44492559
   6.88992176  1.72249793  5.16742352
   8.61234877  0.00000000  5.16742352
   8.61234881  1.72249794  3.44492559
   0.00000000  3.44492559  3.44492559
   0.00000000  5.16742352  5.16742352
   1.72249793  3.44492559  5.16742352
   1.72249793  5.16742352  3.44492559
   3.44492559  3.44492559  3.44492559
   3.44492554  5.16742352  5.16742352
   5.16742352  3.44492554  5.16742352
   5.16742352  5.16742352  3.44492554
   6.88992176  3.44492559  3.44492559
   6.88992180  5.16742352  5.16742352
   8.61234881  3.44492559  5.16742352
   8.61234881  5.16742352  3.44492559
   0.00000000  6.88992176  3.44492559
   0.00000000  8.61234877  5.16742352
   1.72249793  6.88992176  5.16742352
   1.72249794  8.61234881  3.44492559
   3.44492559  6.88992176  3.44492559
   3.44492559  8.61234881  5.16742352
   5.16742352  6.88992180  5.16742352
   5.16742352  8.61234881  3.44492559
   6.88992176  6.88992176  3.44492559
   6.88992176  8.61234881  5.16742352
   8.61234881  6.88992176  5.16742352
   8.61234881  8.61234881  3.44492559
   0.00000000  0.00000000  6.88992180
   0.00000000  1.72249793  8.61234881
   1.72249793  0.00000000  8.61234881
   1.72249794  1.72249794  6.88992176
   3.44492559  0.00000000  6.88992176
   3.44492559  1.72249794  8.61234881
   5.16742352  0.00000000  8.61234877
   5.16742352  1.72249793  6.88992176
   6.88992176  0.00000000  6.88992176
   6.88992176  1.72249794  8.61234881
   8.61234881  0.00000000  8.61234881
   8.61234881  1.72249794  6.88992176
   0.00000000  3.44492559  6.88992176
   0.00000000  5.16742352  8.61234877
   1.72249794  3.44492559  8.61234881
   1.72249793  5.16742352  6.88992176
   3.44492559  3.44492559  6.88992176
   3.44492559  5.16742352  8.61234881
   5.16742352  3.44492559  8.61234881
   5.16742352  5.16742352  6.88992180
   6.88992176  3.44492559  6.88992176
   6.88992176  5.16742352  8.61234881
   8.61234881  3.44492559  8.61234881
   8.61234881  5.16742352  6.88992176
   0.00000000  6.88992176  6.88992176
   0.00000000  8.61234881  8.61234881
   1.72249794  6.88992176  8.61234881
   1.72249794  8.61234881  6.88992176
   3.44492559  6.88992176  6.88992176
   3.44492559  8.61234881  8.61234881
   5.16742352  6.88992176  8.61234881
   5.16742352  8.61234881  6.88992176
   6.88992176  6.88992176  6.88992176
   6.88992176  8.61234881  8.61234881
   8.61234881  6.88992176  8.61234881
   8.61234881  8.61234881  6.88992176
 


--------------------------------------------------------------------------------------------------------


 k-point  1 :   0.1250 0.1250 0.1250  plane waves:   62144
 k-point  2 :   0.3750 0.1250 0.1250  plane waves:   62123
 k-point  3 :   0.3750 0.3750 0.1250  plane waves:   62120
 k-point  4 :   0.3750 0.3750 0.3750  plane waves:   62095

 maximum and minimum number of plane-waves per node :     15567    15496

 maximum number of plane-waves:     62144
 maximum index in each direction: 
   IXMAX=   24   IYMAX=   24   IZMAX=   24
   IXMIN=  -24   IYMIN=  -24   IZMIN=  -24


 real space projection operators:
  total allocation   :      46640.81 KBytes
  max/ min on nodes  :      12043.69      11436.19


 parallel 3D FFT for wavefunctions:
    minimum data exchange during FFTs selected (reduces bandwidth)
 parallel 3D FFT for charge:
    minimum data exchange during FFTs selected (reduces bandwidth)


 total amount of memory used by VASP MPI-rank0   354478. kBytes
=======================================================================

   base      :      30000. kBytes
   nonlr-proj:      20636. kBytes
   fftplans  :      15577. kBytes
   grid      :      21835. kBytes
   one-center:        419. kBytes
   wavefun   :     266011. kBytes
 
     INWAV:  cpu time    0.0000: real time    0.0000
 Broyden mixing: mesh for mixing (old mesh)
   NGX = 49   NGY = 49   NGZ = 49
  (NGX  =144   NGY  =144   NGZ  =144)
  gives a total of 117649 points

 initial charge density was supplied:
 charge density of overlapping atoms calculated
 number of electron     864.0000000 magnetization 
 keeping initial charge density in first step


--------------------------------------------------------------------------------------------------------


 Maximum index for non-local projection operator          793
 Maximum index for augmentation-charges         1463 (set IRDMAX)


--------------------------------------------------------------------------------------------------------


 First call to EWALD:  gamma=   0.172
 Maximum number of real-space cells 3x 3x 3
 Maximum number of reciprocal cells 3x 3x 3

    FEWALD:  cpu time    0.0114: real time    0.0114


--------------------------------------- Iteration      1(   1)  ---------------------------------------


    POTLOK:  cpu time    0.2622: real time    0.2630
    SETDIJ:  cpu time    0.0480: real time    0.0481
     EDDAV:  cpu time   49.0842: real time   49.0831
       DOS:  cpu time    0.0031: real time    0.0031
    --------------------------------------------
      LOOP:  cpu time   49.3975: real time   49.3973

 eigenvalue-minimisations  :  4144
 total energy-change (2. order) : 0.1054788E+05  (-0.4733245E+05)
 number of electron     864.0000000 magnetization 
 augmentation part      864.0000000 magnetization 

 Free energy of the ion-electron system (eV)
  ---------------------------------------------------
  alpha Z        PSCENC =      7300.31925852
  Ewald energy   TEWEN  =    -66232.83996889
  -Hartree energ DENC   =    -11197.02572337
  -exchange      EXHF   =         0.00000000
  -V(xc)+E(xc)   XCENC  =       446.63038354
  PAW double counting   =     51723.88885462   -52548.28121372
  entropy T*S    EENTRO =        -0.00664491
  eigenvalues    EBANDS =     16852.62442903
  atomic energy  EATOM  =     64202.57391014
  Solvation  Ediel_sol  =         0.00000000
  ---------------------------------------------------
  free energy    TOTEN  =     10547.88328497 eV

  energy without entropy =    10547.88992988  energy(sigma->0) =    10547.88549994


--------------------------------------------------------------------------------------------------------




--------------------------------------- Iteration      1(   2)  ---------------------------------------


     EDDAV:  cpu time   49.0489: real time   49.0494
       DOS:  cpu time    0.0053: real time    0.0053
    --------------------------------------------
      LOOP:  cpu time   49.0541: real time   49.0547

 eigenvalue-minimisations  :  4144
 total energy-change (2. order) :-0.1001580E+05  (-0.9877867E+04)
 number of electron     864.0000000 magnetization 
 augmentation part      864.0000000 magnetization 

 Free energy of the ion-electron system (eV)
  ---------------------------------------------------
  alpha Z        PSCENC =      7300.31925852
  Ewald energy   TEWEN  =    -66232.83996889
  -Hartree energ DENC   =    -11197.02572337
  -exchange      EXHF   =         0.00000000
  -V(xc)+E(xc)   XCENC  =       446.63038354
  PAW double counting   =     51723.88885462   -52548.28121372
  entropy T*S    EENTRO =         0.00832151
  eigenvalues    EBANDS =      6836.80617725
  atomic energy  EATOM  =     64202.57391014
  Solvation  Ediel_sol  =         0.00000000
  ---------------------------------------------------
  free energy    TOTEN  =       532.07999962 eV

  energy without entropy =      532.07167810  energy(sigma->0) =      532.07722578


--------------------------------------------------------------------------------------------------------




--------------------------------------- Iteration      1(   3)  ---------------------------------------


     EDDAV:  cpu time   49.0326: real time   49.0321
       DOS:  cpu time    0.0065: real time    0.0065
    --------------------------------------------
      LOOP:  cpu time   49.0390: real time   49.0385

 eigenvalue-minimisations  :  4144
 total energy-change (2. order) :-0.1333248E+04  (-0.1148212E+04)
 number of electron     864.0000000 magnetization 
 augmentation part      864.0000000 magnetization 

 Free energy of the ion-electron system (eV)
  ---------------------------------------------------
  alpha Z        PSCENC =      7300.31925852
  Ewald energy   TEWEN  =    -66232.83996889
  -Hartree energ DENC   =    -11197.02572337
  -exchange      EXHF   =         0.00000000
  -V(xc)+E(xc)   XCENC  =       446.63038354
  PAW double counting   =     51723.88885462   -52548.28121372
  entropy T*S    EENTRO =         0.01750898
  eigenvalues    EBANDS =      5503.54914055
  atomic energy  EATOM  =     64202.57391014
  Solvation  Ediel_sol  =         0.00000000
  ---------------------------------------------------
  free energy    TOTEN  =      -801.16784961 eV

  energy without entropy =     -801.18535860  energy(sigma->0) =     -801.17368594


--------------------------------------------------------------------------------------------------------




--------------------------------------- Iteration      1(   4)  ---------------------------------------


     EDDAV:  cpu time   80.7486: real time   80.7473
       DOS:  cpu time    0.0066: real time    0.0066
    --------------------------------------------
      LOOP:  cpu time   80.7561: real time   80.7539

 eigenvalue-minimisations  :  7528
 total energy-change (2. order) :-0.2239363E+03  (-0.2110639E+03)
 number of electron     864.0000000 magnetization 
 augmentation part      864.0000000 magnetization 

 Free energy of the ion-electron system (eV)
  ---------------------------------------------------
  alpha Z        PSCENC =      7300.31925852
  Ewald energy   TEWEN  =    -66232.83996889
  -Hartree energ DENC   =    -11197.02572337
  -exchange      EXHF   =         0.00000000
  -V(xc)+E(xc)   XCENC  =       446.63038354
  PAW double counting   =     51723.88885462   -52548.28121372
  entropy T*S    EENTRO =        -0.08035127
  eigenvalues    EBANDS =      5279.71069479
  atomic energy  EATOM  =     64202.57391014
  Solvation  Ediel_sol  =         0.00000000
  ---------------------------------------------------
  free energy    TOTEN  =     -1025.10415562 eV

  energy without entropy =    -1025.02380435  energy(sigma->0) =    -1025.07737187


--------------------------------------------------------------------------------------------------------




--------------------------------------- Iteration      1(   5)  ---------------------------------------


     EDDAV:  cpu time   73.2148: real time   73.2140
       DOS:  cpu time    0.0067: real time    0.0067
    CHARGE:  cpu time    2.1288: real time    2.1288
    MIXING:  cpu time    0.0067: real time    0.0067
    --------------------------------------------
      LOOP:  cpu time   75.3561: real time   75.3562

 eigenvalue-minimisations  :  6728
 total energy-change (2. order) :-0.2005728E+02  (-0.1903513E+02)
 number of electron     864.0000691 magnetization 
 augmentation part      382.7745649 magnetization 

 Broyden mixing:
  rms(total) = 0.93464E+01    rms(broyden)= 0.93464E+01
  rms(prec ) = 0.11652E+02
  weight for this iteration     100.00

 Free energy of the ion-electron system (eV)
  ---------------------------------------------------
  alpha Z        PSCENC =      7300.31925852
  Ewald energy   TEWEN  =    -66232.83996889
  -Hartree energ DENC   =    -11197.02572337
  -exchange      EXHF   =         0.00000000
  -V(xc)+E(xc)   XCENC  =       446.63038354
  PAW double counting   =     51723.88885462   -52548.28121372
  entropy T*S    EENTRO =        -0.10883813
  eigenvalues    EBANDS =      5259.68190523
  atomic energy  EATOM  =     64202.57391014
  Solvation  Ediel_sol  =         0.00000000
  ---------------------------------------------------
  free energy    TOTEN  =     -1045.16143205 eV

  energy without entropy =    -1045.05259392  energy(sigma->0) =    -1045.12515268


--------------------------------------------------------------------------------------------------------




--------------------------------------- Iteration      1(   6)  ---------------------------------------


    POTLOK:  cpu time    0.2247: real time    0.2257
    SETDIJ:  cpu time    0.0477: real time    0.0477
    EDDIAG:  cpu time    6.7957: real time    6.7955
  RMM-DIIS:  cpu time   18.7785: real time   18.7780
    ORTHCH:  cpu time    2.4337: real time    2.4337
       DOS:  cpu time    0.0076: real time    0.0076
    CHARGE:  cpu time    2.1232: real time    2.1232
    MIXING:  cpu time    0.0069: real time    0.0069
    --------------------------------------------
      LOOP:  cpu time   30.4180: real time   30.4182

 eigenvalue-minimisations  :  4144
 total energy-change (2. order) : 0.1680700E+03  (-0.1354732E+03)
 number of electron     864.0000778 magnetization 
 augmentation part      447.5849110 magnetization 

 Broyden mixing:
  rms(total) = 0.88496E+00    rms(broyden)= 0.88495E+00
  rms(prec ) = 0.95744E+00
  weight for this iteration     100.00

 eigenvalues of (default mixing * dielectric matrix)
  average eigenvalue GAMMA=   0.9507
  0.9507

 Free energy of the ion-electron system (eV)
  ---------------------------------------------------
  alpha Z        PSCENC =      7300.31925852
  Ewald energy   TEWEN  =    -66232.83996889
  -Hartree energ DENC   =     -9342.63034139
  -exchange      EXHF   =         0.00000000
  -V(xc)+E(xc)   XCENC  =       355.78960489
  PAW double counting   =     52458.31026771   -53038.19271845
  entropy T*S    EENTRO =        -0.06164201
  eigenvalues    EBANDS =      3419.64020699
  atomic energy  EATOM  =     64202.57391014
  Solvation  Ediel_sol  =         0.00000000
  ---------------------------------------------------
  free energy    TOTEN  =      -877.09142248 eV

  energy without entropy =     -877.02978047  energy(sigma->0) =     -877.07087514


--------------------------------------------------------------------------------------------------------




--------------------------------------- Iteration      1(   7)  ---------------------------------------


    POTLOK:  cpu time    0.2222: real time    0.2231
    SETDIJ:  cpu time    0.0483: real time    0.0483
    EDDIAG:  cpu time    6.7971: real time    6.7970
  RMM-DIIS:  cpu time   20.5965: real time   20.5958
    ORTHCH:  cpu time    2.4330: real time    2.4330
       DOS:  cpu time    0.0075: real time    0.0075
    CHARGE:  cpu time    2.1236: real time    2.1236
    MIXING:  cpu time    0.0080: real time    0.0080
    --------------------------------------------
      LOOP:  cpu time   32.2362: real time   32.2363

 eigenvalue-minimisations  :  4555
 total energy-change (2. order) :-0.3204273E+01  (-0.1122004E+02)
 number of electron     864.0000754 magnetization 
 augmentation part      447.0691349 magnetization 

 Broyden mixing:
  rms(total) = 0.50896E+00    rms(broyden)= 0.50895E+00
  rms(prec ) = 0.65222E+00
  weight for this iteration     100.00

 eigenvalues of (default mixing * dielectric matrix)
  average eigenvalue GAMMA=   0.9168
  0.9168  0.9168

 Free energy of the ion-electron system (eV)
  ---------------------------------------------------
  alpha Z        PSCENC =      7300.31925852
  Ewald energy   TEWEN  =    -66232.83996889
  -Hartree energ DENC   =     -9379.58847121
  -exchange      EXHF   =         0.00000000
  -V(xc)+E(xc)   XCENC  =       359.97102401
  PAW double counting   =     54337.39971867   -55113.41681134
  entropy T*S    EENTRO =        -0.15017649
  eigenvalues    EBANDS =      3645.43582093
  atomic energy  EATOM  =     64202.57391014
  Solvation  Ediel_sol  =         0.00000000
  ---------------------------------------------------
  free energy    TOTEN  =      -880.29569566 eV

  energy without entropy =     -880.14551917  energy(sigma->0) =     -880.24563683


--------------------------------------------------------------------------------------------------------




--------------------------------------- Iteration      1(   8)  ---------------------------------------


    POTLOK:  cpu time    0.2228: real time    0.2241
    SETDIJ:  cpu time    0.0495: real time    0.0495
    EDDIAG:  cpu time    6.7938: real time    6.7936
  RMM-DIIS:  cpu time   20.9774: real time   20.9768
    ORTHCH:  cpu time    2.4325: real time    2.4324
       DOS:  cpu time    0.0076: real time    0.0076
    CHARGE:  cpu time    2.1257: real time    2.1256
    MIXING:  cpu time    0.0077: real time    0.0077
    --------------------------------------------
      LOOP:  cpu time   32.6170: real time   32.6173

 eigenvalue-minimisations  :  4632
 total energy-change (2. order) :-0.1773938E+01  (-0.1855041E+01)
 number of electron     864.0000752 magnetization 
 augmentation part      445.5816747 magnetization 

 Broyden mixing:
  rms(total) = 0.19529E+01    rms(broyden)= 0.19529E+01
  rms(prec ) = 0.27328E+01
  weight for this iteration     100.00

 eigenvalues of (default mixing * dielectric matrix)
  average eigenvalue GAMMA=   0.7740
  1.1014  1.1014  0.1192

 Free energy of the ion-electron system (eV)
  ---------------------------------------------------
  alpha Z        PSCENC =      7300.31925852
  Ewald energy   TEWEN  =    -66232.83996889
  -Hartree energ DENC   =     -9401.94430804
  -exchange      EXHF   =         0.00000000
  -V(xc)+E(xc)   XCENC  =       361.67156366
  PAW double counting   =     55362.75242218   -56200.68776963
  entropy T*S    EENTRO =        -0.16202800
  eigenvalues    EBANDS =      3726.24728627
  atomic energy  EATOM  =     64202.57391014
  Solvation  Ediel_sol  =         0.00000000
  ---------------------------------------------------
  free energy    TOTEN  =      -882.06963378 eV

  energy without entropy =     -881.90760578  energy(sigma->0) =     -882.01562445


--------------------------------------------------------------------------------------------------------




--------------------------------------- Iteration      1(   9)  ---------------------------------------


    POTLOK:  cpu time    0.2240: real time    0.2250
    SETDIJ:  cpu time    0.0484: real time    0.0484
    EDDIAG:  cpu time    6.7885: real time    6.7883
  RMM-DIIS:  cpu time   19.8323: real time   19.8317
    ORTHCH:  cpu time    2.4342: real time    2.4341
       DOS:  cpu time    0.0073: real time    0.0073
    CHARGE:  cpu time    2.1230: real time    2.1229
    MIXING:  cpu time    0.0085: real time    0.0085
    --------------------------------------------
      LOOP:  cpu time   31.4661: real time   31.4662

 eigenvalue-minimisations  :  4384
 total energy-change (2. order) : 0.2550615E+01  (-0.5644074E+00)
 number of electron     864.0000750 magnetization 
 augmentation part      443.5982918 magnetization 

 Broyden mixing:
  rms(total) = 0.27644E+00    rms(broyden)= 0.27643E+00
  rms(prec ) = 0.34654E+00
  weight for this iteration     100.00

 eigenvalues of (default mixing * dielectric matrix)
  average eigenvalue GAMMA=   1.1280
  2.3320  1.0289  1.0289  0.1223

 Free energy of the ion-electron system (eV)
  ---------------------------------------------------
  alpha Z        PSCENC =      7300.31925852
  Ewald energy   TEWEN  =    -66232.83996889
  -Hartree energ DENC   =     -9416.05493840
  -exchange      EXHF   =         0.00000000
  -V(xc)+E(xc)   XCENC  =       362.86670437
  PAW double counting   =     56257.30908738   -57146.29252573
  entropy T*S    EENTRO =        -0.07138177
  eigenvalues    EBANDS =      3792.67083573
  atomic energy  EATOM  =     64202.57391014
  Solvation  Ediel_sol  =         0.00000000
  ---------------------------------------------------
  free energy    TOTEN  =      -879.51901865 eV

  energy without entropy =     -879.44763687  energy(sigma->0) =     -879.49522472


--------------------------------------------------------------------------------------------------------




--------------------------------------- Iteration      1(  10)  ---------------------------------------


    POTLOK:  cpu time    0.2233: real time    0.2247
    SETDIJ:  cpu time    0.0494: real time    0.0494
    EDDIAG:  cpu time    6.7916: real time    6.7914
  RMM-DIIS:  cpu time   26.7325: real time   26.7316
    ORTHCH:  cpu time    2.4333: real time    2.4332
       DOS:  cpu time    0.0076: real time    0.0076
    CHARGE:  cpu time    2.1213: real time    2.1212
    MIXING:  cpu time    0.0088: real time    0.0088
    --------------------------------------------
      LOOP:  cpu time   38.3677: real time   38.3679

 eigenvalue-minimisations  :  5986
 total energy-change (2. order) :-0.2603135E-01  (-0.3691852E+00)
 number of electron     864.0000752 magnetization 
 augmentation part      444.8309498 magnetization 

 Broyden mixing:
  rms(total) = 0.27185E+00    rms(broyden)= 0.27185E+00
  rms(prec ) = 0.38092E+00
  weight for this iteration     100.00

 eigenvalues of (default mixing * dielectric matrix)
  average eigenvalue GAMMA=   1.0848
  2.5460  1.0626  1.0626  0.6299  0.1231

 Free energy of the ion-electron system (eV)
  ---------------------------------------------------
  alpha Z        PSCENC =      7300.31925852
  Ewald energy   TEWEN  =    -66232.83996889
  -Hartree energ DENC   =     -9340.88704446
  -exchange      EXHF   =         0.00000000
  -V(xc)+E(xc)   XCENC  =       359.82353424
  PAW double counting   =     57706.05611357   -58640.53238667
  entropy T*S    EENTRO =        -0.08289317
  eigenvalues    EBANDS =      3766.02442671
  atomic energy  EATOM  =     64202.57391014
  Solvation  Ediel_sol  =         0.00000000
  ---------------------------------------------------
  free energy    TOTEN  =      -879.54504999 eV

  energy without entropy =     -879.46215682  energy(sigma->0) =     -879.51741894


--------------------------------------------------------------------------------------------------------




--------------------------------------- Iteration      1(  11)  ---------------------------------------


    POTLOK:  cpu time    0.2206: real time    0.2214
    SETDIJ:  cpu time    0.0477: real time    0.0477
    EDDIAG:  cpu time    6.7910: real time    6.7908
  RMM-DIIS:  cpu time   24.0089: real time   24.0082
    ORTHCH:  cpu time    2.4334: real time    2.4333
       DOS:  cpu time    0.0076: real time    0.0076
    CHARGE:  cpu time    2.1248: real time    2.1248
    MIXING:  cpu time    0.0097: real time    0.0097
    --------------------------------------------
      LOOP:  cpu time   35.6437: real time   35.6434

 eigenvalue-minimisations  :  5333
 total energy-change (2. order) : 0.8687860E-02  (-0.2712561E-01)
 number of electron     864.0000752 magnetization 
 augmentation part      444.8547436 magnetization 

 Broyden mixing:
  rms(total) = 0.83527E-01    rms(broyden)= 0.83527E-01
  rms(prec ) = 0.11400E+00
  weight for this iteration     100.00

 eigenvalues of (default mixing * dielectric matrix)
  average eigenvalue GAMMA=   1.1621
  2.6100  1.3475  1.0618  0.9152  0.9152  0.1231

 Free energy of the ion-electron system (eV)
  ---------------------------------------------------
  alpha Z        PSCENC =      7300.31925852
  Ewald energy   TEWEN  =    -66232.83996889
  -Hartree energ DENC   =     -9337.45114934
  -exchange      EXHF   =         0.00000000
  -V(xc)+E(xc)   XCENC  =       359.72463293
  PAW double counting   =     57970.78360438   -58910.43433238
  entropy T*S    EENTRO =        -0.07989054
  eigenvalues    EBANDS =      3767.86757304
  atomic energy  EATOM  =     64202.57391014
  Solvation  Ediel_sol  =         0.00000000
  ---------------------------------------------------
  free energy    TOTEN  =      -879.53636213 eV

  energy without entropy =     -879.45647160  energy(sigma->0) =     -879.50973195


--------------------------------------------------------------------------------------------------------




--------------------------------------- Iteration      1(  12)  ---------------------------------------


    POTLOK:  cpu time    0.2215: real time    0.2225
    SETDIJ:  cpu time    0.0483: real time    0.0483
    EDDIAG:  cpu time    6.7922: real time    6.7920
  RMM-DIIS:  cpu time   24.3538: real time   24.3530
    ORTHCH:  cpu time    2.4344: real time    2.4344
       DOS:  cpu time    0.0076: real time    0.0076
    CHARGE:  cpu time    2.1278: real time    2.1278
    MIXING:  cpu time    0.0104: real time    0.0104
    --------------------------------------------
      LOOP:  cpu time   35.9960: real time   35.9960

 eigenvalue-minimisations  :  5428
 total energy-change (2. order) :-0.2077685E-02  (-0.7643170E-02)
 number of electron     864.0000752 magnetization 
 augmentation part      444.7243426 magnetization 

 Broyden mixing:
  rms(total) = 0.33089E-01    rms(broyden)= 0.33089E-01
  rms(prec ) = 0.44791E-01
  weight for this iteration     100.00

 eigenvalues of (default mixing * dielectric matrix)
  average eigenvalue GAMMA=   1.2869
  2.5797  2.2545  1.0611  1.0611  0.9642  0.9642  0.1231

 Free energy of the ion-electron system (eV)
  ---------------------------------------------------
  alpha Z        PSCENC =      7300.31925852
  Ewald energy   TEWEN  =    -66232.83996889
  -Hartree energ DENC   =     -9343.96472973
  -exchange      EXHF   =         0.00000000
  -V(xc)+E(xc)   XCENC  =       360.02022314
  PAW double counting   =     58042.83788864   -58980.24092291
  entropy T*S    EENTRO =        -0.07725493
  eigenvalues    EBANDS =      3771.83315619
  atomic energy  EATOM  =     64202.57391014
  Solvation  Ediel_sol  =         0.00000000
  ---------------------------------------------------
  free energy    TOTEN  =      -879.53843982 eV

  energy without entropy =     -879.46118489  energy(sigma->0) =     -879.51268817


--------------------------------------------------------------------------------------------------------




--------------------------------------- Iteration      1(  13)  ---------------------------------------


    POTLOK:  cpu time    0.2269: real time    0.2277
    SETDIJ:  cpu time    0.0483: real time    0.0483
    EDDIAG:  cpu time    6.7919: real time    6.7917
  RMM-DIIS:  cpu time   22.2417: real time   22.2410
    ORTHCH:  cpu time    2.4334: real time    2.4333
       DOS:  cpu time    0.0075: real time    0.0075
    CHARGE:  cpu time    2.1226: real time    2.1225
    MIXING:  cpu time    0.0113: real time    0.0113
    --------------------------------------------
      LOOP:  cpu time   33.8835: real time   33.8833

 eigenvalue-minimisations  :  4909
 total energy-change (2. order) : 0.6977755E-03  (-0.1326356E-02)
 number of electron     864.0000752 magnetization 
 augmentation part      444.5919627 magnetization 

 Broyden mixing:
  rms(total) = 0.95171E-02    rms(broyden)= 0.95168E-02
  rms(prec ) = 0.13135E-01
  weight for this iteration     100.00

 eigenvalues of (default mixing * dielectric matrix)
  average eigenvalue GAMMA=   1.2610
  2.5454  2.3454  0.1231  1.3544  0.9668  0.9668  0.8932  0.8932

 Free energy of the ion-electron system (eV)
  ---------------------------------------------------
  alpha Z        PSCENC =      7300.31925852
  Ewald energy   TEWEN  =    -66232.83996889
  -Hartree energ DENC   =     -9349.83129699
  -exchange      EXHF   =         0.00000000
  -V(xc)+E(xc)   XCENC  =       360.28297558
  PAW double counting   =     58048.28280458   -58983.48614628
  entropy T*S    EENTRO =        -0.07543054
  eigenvalues    EBANDS =      3775.23615183
  atomic energy  EATOM  =     64202.57391014
  Solvation  Ediel_sol  =         0.00000000
  ---------------------------------------------------
  free energy    TOTEN  =      -879.53774204 eV

  energy without entropy =     -879.46231150  energy(sigma->0) =     -879.51259853


--------------------------------------------------------------------------------------------------------




--------------------------------------- Iteration      1(  14)  ---------------------------------------


    POTLOK:  cpu time    0.2196: real time    0.2207
    SETDIJ:  cpu time    0.0475: real time    0.0475
    EDDIAG:  cpu time    6.7860: real time    6.7858
  RMM-DIIS:  cpu time   27.4437: real time   27.4429
    ORTHCH:  cpu time    2.4363: real time    2.4363
       DOS:  cpu time    0.0081: real time    0.0081
    CHARGE:  cpu time    2.1476: real time    2.1476
    MIXING:  cpu time    0.0123: real time    0.0123
    --------------------------------------------
      LOOP:  cpu time   39.1012: real time   39.1011

 eigenvalue-minimisations  :  6148
 total energy-change (2. order) :-0.2952302E-03  (-0.4021208E-03)
 number of electron     864.0000752 magnetization 
 augmentation part      444.5736032 magnetization 

 Broyden mixing:
  rms(total) = 0.39921E-02    rms(broyden)= 0.39921E-02
  rms(prec ) = 0.52623E-02
  weight for this iteration     100.00

 eigenvalues of (default mixing * dielectric matrix)
  average eigenvalue GAMMA=   1.1907
  2.6035  2.0410  1.6056  0.1231  0.9850  0.9850  0.8905  0.8905  0.5924

 Free energy of the ion-electron system (eV)
  ---------------------------------------------------
  alpha Z        PSCENC =      7300.31925852
  Ewald energy   TEWEN  =    -66232.83996889
  -Hartree energ DENC   =     -9350.04228919
  -exchange      EXHF   =         0.00000000
  -V(xc)+E(xc)   XCENC  =       360.29316100
  PAW double counting   =     58045.37807263   -58980.26553491
  entropy T*S    EENTRO =        -0.07483245
  eigenvalues    EBANDS =      3775.12018587
  atomic energy  EATOM  =     64202.57391014
  Solvation  Ediel_sol  =         0.00000000
  ---------------------------------------------------
  free energy    TOTEN  =      -879.53803727 eV

  energy without entropy =     -879.46320483  energy(sigma->0) =     -879.51309312


--------------------------------------------------------------------------------------------------------




--------------------------------------- Iteration      1(  15)  ---------------------------------------


    POTLOK:  cpu time    0.2242: real time    0.2253
    SETDIJ:  cpu time    0.0517: real time    0.0517
    EDDIAG:  cpu time    6.7908: real time    6.7906
  RMM-DIIS:  cpu time   22.5280: real time   22.5273
    ORTHCH:  cpu time    2.4335: real time    2.4335
       DOS:  cpu time    0.0078: real time    0.0078
    CHARGE:  cpu time    2.1244: real time    2.1244
    MIXING:  cpu time    0.0121: real time    0.0121
    --------------------------------------------
      LOOP:  cpu time   34.1726: real time   34.1726

 eigenvalue-minimisations  :  4985
 total energy-change (2. order) : 0.1507628E-04  ( 0.1096006E-04)
 number of electron     864.0000752 magnetization 
 augmentation part      444.5921955 magnetization 

 Broyden mixing:
  rms(total) = 0.60997E-03    rms(broyden)= 0.60997E-03
  rms(prec ) = 0.71805E-03
  weight for this iteration     100.00

 eigenvalues of (default mixing * dielectric matrix)
  average eigenvalue GAMMA=   1.3522
  2.6678  2.6678  1.6049  1.6049  0.1231  1.0603  1.0603  0.9322  0.9005  0.9005

 Free energy of the ion-electron system (eV)
  ---------------------------------------------------
  alpha Z        PSCENC =      7300.31925852
  Ewald energy   TEWEN  =    -66232.83996889
  -Hartree energ DENC   =     -9349.37461738
  -exchange      EXHF   =         0.00000000
  -V(xc)+E(xc)   XCENC  =       360.26464803
  PAW double counting   =     58044.54720901   -58979.57518007
  entropy T*S    EENTRO =        -0.07458143
  eigenvalues    EBANDS =      3774.62129987
  atomic energy  EATOM  =     64202.57391014
  Solvation  Ediel_sol  =         0.00000000
  ---------------------------------------------------
  free energy    TOTEN  =      -879.53802220 eV

  energy without entropy =     -879.46344076  energy(sigma->0) =     -879.51316172


--------------------------------------------------------------------------------------------------------




--------------------------------------- Iteration      1(  16)  ---------------------------------------


    POTLOK:  cpu time    0.2488: real time    0.2506
    SETDIJ:  cpu time    0.0484: real time    0.0484
    EDDIAG:  cpu time    6.7866: real time    6.7864
  RMM-DIIS:  cpu time   25.7534: real time   25.7526
    ORTHCH:  cpu time    2.4341: real time    2.4340
       DOS:  cpu time    0.0076: real time    0.0076
    CHARGE:  cpu time    2.1237: real time    2.1236
    MIXING:  cpu time    0.0131: real time    0.0131
    --------------------------------------------
      LOOP:  cpu time   37.4157: real time   37.4163

 eigenvalue-minimisations  :  5742
 total energy-change (2. order) : 0.4886862E-04  ( 0.2570181E-04)
 number of electron     864.0000752 magnetization 
 augmentation part      444.5938196 magnetization 

 Broyden mixing:
  rms(total) = 0.10508E-02    rms(broyden)= 0.10508E-02
  rms(prec ) = 0.14355E-02
  weight for this iteration     100.00

 eigenvalues of (default mixing * dielectric matrix)
  average eigenvalue GAMMA=   1.3307
  2.6709  2.5179  0.1231  1.8310  1.7347  1.0341  1.0341  1.0538  0.8874  0.8874
  0.8637

 Free energy of the ion-electron system (eV)
  ---------------------------------------------------
[...]
   0.104E-01 0.103E-01 0.143E-04   -.205E-01 -.202E-01 -.277E-04   -.606E-21 0.970E-20 0.169E-20   -.576E-07 -.748E-07 0.157E-07
   -.105E-01 -.143E-04 0.142E-04   0.205E-01 0.277E-04 -.277E-04   0.134E-24 0.593E-20 0.775E-19   0.594E-07 -.157E-07 0.157E-07
   -.105E-01 0.103E-01 -.103E-01   0.205E-01 -.202E-01 0.202E-01   -.473E-25 -.161E-20 0.847E-21   0.593E-07 -.749E-07 0.733E-07
   -.143E-04 -.103E-01 -.103E-01   0.277E-04 0.202E-01 0.202E-01   -.212E-20 -.148E-19 -.144E-19   -.157E-07 0.758E-07 0.758E-07
   -.143E-04 0.143E-04 0.143E-04   0.277E-04 -.277E-04 -.277E-04   0.137E-24 -.110E-19 -.182E-19   -.157E-07 0.157E-07 0.157E-07
   0.103E-01 -.103E-01 0.143E-04   -.202E-01 0.202E-01 -.277E-04   0.130E-20 0.136E-19 -.169E-19   -.748E-07 0.733E-07 0.157E-07
   0.103E-01 0.143E-04 -.103E-01   -.202E-01 -.277E-04 0.202E-01   -.235E-21 0.720E-20 0.551E-20   -.748E-07 0.157E-07 0.733E-07
   -.103E-01 -.103E-01 -.103E-01   0.202E-01 0.202E-01 0.202E-01   -.127E-20 0.508E-20 0.229E-19   0.759E-07 0.759E-07 0.759E-07
   -.103E-01 0.143E-04 0.142E-04   0.202E-01 -.277E-04 -.277E-04   0.135E-24 0.131E-19 0.212E-20   0.734E-07 0.157E-07 0.157E-07
   0.143E-04 -.103E-01 0.142E-04   -.277E-04 0.202E-01 -.277E-04   -.847E-21 -.169E-20 0.271E-19   0.157E-07 0.734E-07 0.157E-07
   0.143E-04 0.143E-04 -.103E-01   -.277E-04 -.277E-04 0.202E-01   0.456E-25 0.123E-19 0.241E-19   0.157E-07 0.157E-07 0.734E-07
   0.105E-01 -.103E-01 -.103E-01   -.205E-01 0.202E-01 0.202E-01   0.793E-22 0.635E-20 -.110E-19   -.604E-07 0.759E-07 0.759E-07
   0.105E-01 0.143E-04 0.143E-04   -.205E-01 -.277E-04 -.277E-04   -.569E-21 0.805E-20 0.186E-19   -.578E-07 0.157E-07 0.157E-07
   -.104E-01 -.103E-01 0.142E-04   0.205E-01 0.202E-01 -.277E-04   -.456E-25 -.932E-20 0.678E-20   0.592E-07 0.733E-07 0.157E-07
   -.104E-01 0.143E-04 -.103E-01   0.205E-01 -.277E-04 0.202E-01   0.432E-25 0.593E-20 0.195E-19   0.592E-07 0.157E-07 0.733E-07
   -.143E-04 0.104E-01 -.103E-01   0.277E-04 -.205E-01 0.202E-01   -.847E-21 0.799E-20 -.267E-19   -.157E-07 -.603E-07 0.758E-07
   -.143E-04 -.105E-01 0.142E-04   0.277E-04 0.205E-01 -.277E-04   -.419E-25 0.102E-19 0.805E-20   -.157E-07 0.594E-07 0.157E-07
   0.103E-01 0.104E-01 0.143E-04   -.202E-01 -.205E-01 -.277E-04   0.166E-22 -.969E-20 -.500E-19   -.748E-07 -.576E-07 0.157E-07
   0.103E-01 -.105E-01 -.103E-01   -.202E-01 0.205E-01 0.202E-01   0.377E-21 0.974E-20 -.258E-19   -.749E-07 0.593E-07 0.733E-07
   -.103E-01 0.105E-01 -.103E-01   0.202E-01 -.205E-01 0.202E-01   0.847E-21 0.248E-20 -.360E-19   0.759E-07 -.604E-07 0.759E-07
   -.103E-01 -.104E-01 0.142E-04   0.202E-01 0.205E-01 -.277E-04   -.444E-25 -.123E-19 0.157E-19   0.733E-07 0.592E-07 0.157E-07
   0.143E-04 0.105E-01 0.143E-04   -.277E-04 -.205E-01 -.277E-04   -.847E-21 -.376E-20 -.474E-19   0.157E-07 -.578E-07 0.157E-07
   0.143E-04 -.104E-01 -.103E-01   -.277E-04 0.205E-01 0.202E-01   0.847E-21 0.762E-20 0.805E-20   0.157E-07 0.592E-07 0.733E-07
   0.105E-01 0.105E-01 -.103E-01   -.205E-01 -.205E-01 0.202E-01   -.513E-21 -.217E-20 -.296E-19   -.604E-07 -.604E-07 0.759E-07
   0.104E-01 -.104E-01 0.143E-04   -.205E-01 0.205E-01 -.277E-04   -.596E-21 -.191E-19 -.508E-20   -.576E-07 0.592E-07 0.157E-07
   -.104E-01 0.104E-01 0.143E-04   0.205E-01 -.205E-01 -.277E-04   0.449E-25 0.498E-22 -.407E-19   0.592E-07 -.576E-07 0.157E-07
   -.105E-01 -.105E-01 -.103E-01   0.205E-01 0.205E-01 0.202E-01   -.136E-24 0.296E-20 0.762E-20   0.593E-07 0.593E-07 0.733E-07
   -.143E-04 -.143E-04 0.105E-01   0.277E-04 0.277E-04 -.205E-01   0.424E-21 -.847E-21 -.372E-19   -.157E-07 -.157E-07 -.605E-07
   -.143E-04 0.103E-01 -.104E-01   0.277E-04 -.202E-01 0.205E-01   -.424E-21 -.832E-20 0.000E+00   -.157E-07 -.748E-07 0.592E-07
   0.103E-01 -.143E-04 -.104E-01   -.202E-01 0.277E-04 0.205E-01   0.232E-20 -.296E-20 -.970E-19   -.748E-07 -.157E-07 0.592E-07
   0.103E-01 0.103E-01 0.105E-01   -.202E-01 -.202E-01 -.205E-01   0.152E-21 0.144E-20 -.732E-20   -.749E-07 -.749E-07 -.577E-07
   -.103E-01 -.143E-04 0.104E-01   0.202E-01 0.277E-04 -.205E-01   0.424E-21 -.805E-20 -.270E-19   0.758E-07 -.157E-07 -.603E-07
   -.103E-01 0.103E-01 -.105E-01   0.202E-01 -.202E-01 0.205E-01   -.467E-25 0.107E-19 -.635E-20   0.733E-07 -.749E-07 0.593E-07
   0.143E-04 -.143E-04 -.105E-01   -.277E-04 0.277E-04 0.205E-01   -.423E-21 0.169E-20 -.767E-19   0.157E-07 -.157E-07 0.594E-07
   0.143E-04 0.103E-01 0.104E-01   -.277E-04 -.202E-01 -.205E-01   0.424E-21 0.256E-19 0.261E-19   0.157E-07 -.748E-07 -.576E-07
   0.104E-01 -.143E-04 0.104E-01   -.205E-01 0.277E-04 -.205E-01   -.189E-20 -.805E-20 -.470E-19   -.603E-07 -.157E-07 -.603E-07
   0.105E-01 0.103E-01 -.105E-01   -.205E-01 -.202E-01 0.205E-01   0.804E-21 0.239E-19 -.267E-19   -.577E-07 -.749E-07 0.593E-07
   -.104E-01 -.143E-04 -.104E-01   0.205E-01 0.277E-04 0.205E-01   0.426E-25 -.127E-20 -.771E-19   0.592E-07 -.157E-07 0.592E-07
   -.105E-01 0.103E-01 0.105E-01   0.205E-01 -.202E-01 -.205E-01   -.139E-26 0.864E-20 0.194E-19   0.593E-07 -.749E-07 -.577E-07
   -.143E-04 -.103E-01 0.104E-01   0.277E-04 0.202E-01 -.205E-01   -.466E-20 0.296E-20 0.216E-20   -.157E-07 0.758E-07 -.603E-07
   -.143E-04 0.143E-04 -.105E-01   0.277E-04 -.277E-04 0.205E-01   0.463E-25 -.114E-19 0.424E-21   -.157E-07 0.157E-07 0.594E-07
   0.103E-01 -.103E-01 -.105E-01   -.202E-01 0.202E-01 0.205E-01   0.162E-21 0.889E-20 0.508E-20   -.749E-07 0.733E-07 0.593E-07
   0.103E-01 0.143E-04 0.104E-01   -.202E-01 -.277E-04 -.205E-01   0.268E-21 -.169E-20 0.291E-19   -.748E-07 0.157E-07 -.576E-07
   -.103E-01 -.103E-01 0.105E-01   0.202E-01 0.202E-01 -.205E-01   -.911E-25 0.144E-19 -.118E-19   0.759E-07 0.759E-07 -.604E-07
   -.103E-01 0.143E-04 -.104E-01   0.202E-01 -.277E-04 0.205E-01   0.438E-25 0.127E-19 -.131E-19   0.733E-07 0.157E-07 0.592E-07
   0.143E-04 -.103E-01 -.104E-01   -.277E-04 0.202E-01 0.205E-01   0.423E-21 -.102E-19 -.127E-19   0.157E-07 0.733E-07 0.592E-07
   0.143E-04 0.143E-04 0.105E-01   -.277E-04 -.277E-04 -.205E-01   0.916E-25 0.123E-19 -.179E-19   0.157E-07 0.157E-07 -.578E-07
   0.105E-01 -.103E-01 0.105E-01   -.205E-01 0.202E-01 -.205E-01   0.377E-20 0.635E-20 0.119E-19   -.604E-07 0.759E-07 -.604E-07
   0.104E-01 0.143E-04 -.104E-01   -.205E-01 -.277E-04 0.205E-01   -.306E-22 0.208E-19 -.263E-19   -.576E-07 0.157E-07 0.592E-07
   -.105E-01 -.103E-01 -.105E-01   0.205E-01 0.202E-01 0.205E-01   -.137E-24 -.805E-20 0.000E+00   0.593E-07 0.733E-07 0.593E-07
   -.104E-01 0.143E-04 0.104E-01   0.205E-01 -.277E-04 -.205E-01   0.891E-25 0.106E-19 -.188E-19   0.592E-07 0.157E-07 -.576E-07
   -.143E-04 0.104E-01 0.104E-01   0.277E-04 -.205E-01 -.205E-01   0.424E-21 0.105E-19 0.449E-19   -.157E-07 -.603E-07 -.603E-07
   -.143E-04 -.104E-01 -.104E-01   0.277E-04 0.205E-01 0.205E-01   -.133E-24 0.199E-19 -.284E-19   -.157E-07 0.592E-07 0.592E-07
   0.103E-01 0.105E-01 -.105E-01   -.202E-01 -.205E-01 0.205E-01   0.876E-22 0.219E-20 0.411E-19   -.749E-07 -.577E-07 0.593E-07
   0.103E-01 -.105E-01 0.105E-01   -.202E-01 0.205E-01 -.205E-01   -.706E-21 -.424E-21 0.749E-20   -.749E-07 0.593E-07 -.577E-07
   -.103E-01 0.105E-01 0.105E-01   0.202E-01 -.205E-01 -.205E-01   0.424E-21 -.349E-20 0.377E-19   0.759E-07 -.604E-07 -.604E-07
   -.103E-01 -.105E-01 -.105E-01   0.202E-01 0.205E-01 0.205E-01   -.135E-24 -.165E-19 -.847E-20   0.733E-07 0.593E-07 0.593E-07
   0.143E-04 0.104E-01 -.104E-01   -.277E-04 -.205E-01 0.205E-01   0.127E-20 0.684E-20 0.568E-19   0.157E-07 -.576E-07 0.592E-07
   0.143E-04 -.104E-01 0.104E-01   -.277E-04 0.205E-01 -.205E-01   -.875E-25 -.119E-19 -.192E-19   0.157E-07 0.592E-07 -.576E-07
   0.105E-01 0.105E-01 0.105E-01   -.205E-01 -.205E-01 -.205E-01   -.523E-21 -.238E-19 0.144E-19   -.604E-07 -.604E-07 -.604E-07
   0.105E-01 -.105E-01 -.105E-01   -.205E-01 0.205E-01 0.205E-01   0.330E-22 -.127E-19 0.123E-19   -.577E-07 0.593E-07 0.593E-07
   -.105E-01 0.105E-01 -.105E-01   0.205E-01 -.205E-01 0.205E-01   -.460E-25 0.107E-19 0.360E-19   0.593E-07 -.577E-07 0.593E-07
   -.105E-01 -.105E-01 0.105E-01   0.205E-01 0.205E-01 -.205E-01   -.900E-25 -.720E-20 -.137E-19   0.593E-07 0.593E-07 -.577E-07
 -----------------------------------------------------------------------------------------------
   -.752E-09 -.717E-09 -.803E-09   0.114E-11 0.482E-13 0.135E-11   -.100E-19 0.301E-18 0.269E-18   0.285E-09 0.285E-09 0.283E-09
 
 
 POSITION                                       TOTAL-FORCE (eV/Angst)
 -----------------------------------------------------------------------------------
     -0.00000     -0.00000     -0.00000         0.000000      0.000000      0.000000
     -0.00000      1.72382      1.72382         0.000000      0.000000     -0.000000
      1.72382     -0.00000      1.72382         0.000000      0.000000      0.000000
      1.72382      1.72382     -0.00000         0.000000      0.000000      0.000000
      3.44757     -0.00000     -0.00000         0.000000      0.000000      0.000000
      3.44757      1.72382      1.72382         0.000000      0.000000      0.000000
      5.17139     -0.00000      1.72382        -0.000000      0.000000      0.000000
      5.17139      1.72382     -0.00000        -0.000000     -0.000000      0.000000
      6.89521     -0.00000     -0.00000         0.000000     -0.000000      0.000000
      6.89521      1.72382      1.72382        -0.000000     -0.000000     -0.000000
      8.61896     -0.00000      1.72382        -0.000000      0.000000     -0.000000
      8.61896      1.72382     -0.00000         0.000000     -0.000000      0.000000
     -0.00000      3.44757      0.00000         0.000000      0.000000     -0.000000
     -0.00000      5.17139      1.72382         0.000000     -0.000000      0.000000
      1.72382      3.44757      1.72382         0.000000     -0.000000      0.000000
      1.72382      5.17139     -0.00000         0.000000     -0.000000     -0.000000
      3.44757      3.44757     -0.00000        -0.000000      0.000000     -0.000000
      3.44757      5.17139      1.72382         0.000000     -0.000000      0.000000
      5.17139      3.44757      1.72382        -0.000000      0.000000     -0.000000
      5.17139      5.17139     -0.00000        -0.000000     -0.000000     -0.000000
      6.89521      3.44757     -0.00000        -0.000000      0.000000      0.000000
      6.89521      5.17139      1.72382        -0.000000     -0.000000     -0.000000
      8.61896      3.44757      1.72382         0.000000      0.000000     -0.000000
      8.61896      5.17139     -0.00000        -0.000000     -0.000000     -0.000000
     -0.00000      6.89521      0.00000         0.000000      0.000000     -0.000000
     -0.00000      8.61896      1.72382         0.000000      0.000000     -0.000000
      1.72382      6.89521      1.72382        -0.000000      0.000000     -0.000000
      1.72382      8.61896      0.00000         0.000000     -0.000000      0.000000
      3.44757      6.89521     -0.00000         0.000000      0.000000     -0.000000
      3.44757      8.61896      1.72382         0.000000     -0.000000      0.000000
      5.17139      6.89521      1.72382        -0.000000     -0.000000      0.000000
      5.17139      8.61896     -0.00000        -0.000000      0.000000      0.000000
      6.89521      6.89521     -0.00000         0.000000      0.000000     -0.000000
      6.89521      8.61896      1.72382        -0.000000      0.000000      0.000000
      8.61896      6.89521      1.72382         0.000000     -0.000000     -0.000000
      8.61896      8.61896     -0.00000         0.000000      0.000000     -0.000000
     -0.00000     -0.00000      3.44757         0.000000     -0.000000     -0.000000
     -0.00000      1.72382      5.17139         0.000000      0.000000     -0.000000
      1.72382     -0.00000      5.17139         0.000000      0.000000     -0.000000
      1.72382      1.72382      3.44757         0.000000      0.000000      0.000000
      3.44757     -0.00000      3.44757        -0.000000      0.000000      0.000000
      3.44757      1.72382      5.17139        -0.000000     -0.000000      0.000000
      5.17139     -0.00000      5.17139         0.000000     -0.000000      0.000000
      5.17139      1.72382      3.44757        -0.000000      0.000000      0.000000
      6.89521     -0.00000      3.44757        -0.000000     -0.000000     -0.000000
      6.89521      1.72382      5.17139        -0.000000     -0.000000     -0.000000
      8.61896     -0.00000      5.17139        -0.000000     -0.000000     -0.000000
      8.61896      1.72382      3.44757         0.000000      0.000000     -0.000000
     -0.00000      3.44757      3.44757         0.000000      0.000000     -0.000000
     -0.00000      5.17139      5.17139         0.000000      0.000000     -0.000000
      1.72382      3.44757      5.17139         0.000000     -0.000000      0.000000
      1.72382      5.17139      3.44757        -0.000000      0.000000     -0.000000
      3.44757      3.44757      3.44757        -0.000000      0.000000      0.000000
      3.44757      5.17139      5.17139        -0.000000      0.000000      0.000000
      5.17139      3.44757      5.17139        -0.000000      0.000000     -0.000000
      5.17139      5.17139      3.44757         0.000000     -0.000000      0.000000
      6.89521      3.44757      3.44757        -0.000000      0.000000     -0.000000
      6.89521      5.17139      5.17139        -0.000000     -0.000000     -0.000000
      8.61896      3.44757      5.17139        -0.000000      0.000000     -0.000000
      8.61896      5.17139      3.44757        -0.000000      0.000000      0.000000
     -0.00000      6.89521      3.44757         0.000000      0.000000     -0.000000
     -0.00000      8.61896      5.17139        -0.000000     -0.000000     -0.000000
      1.72382      6.89521      5.17139         0.000000      0.000000     -0.000000
      1.72382      8.61896      3.44757         0.000000     -0.000000      0.000000
      3.44757      6.89521      3.44757        -0.000000      0.000000     -0.000000
      3.44757      8.61896      5.17139        -0.000000     -0.000000     -0.000000
      5.17139      6.89521      5.17139        -0.000000     -0.000000      0.000000
      5.17139      8.61896      3.44757        -0.000000     -0.000000      0.000000
      6.89521      6.89521      3.44757        -0.000000     -0.000000      0.000000
      6.89521      8.61896      5.17139        -0.000000      0.000000      0.000000
      8.61896      6.89521      5.17139         0.000000     -0.000000     -0.000000
      8.61896      8.61896      3.44757         0.000000      0.000000      0.000000
     -0.00000     -0.00000      6.89521        -0.000000     -0.000000      0.000000
     -0.00000      1.72382      8.61896         0.000000      0.000000      0.000000
      1.72382     -0.00000      8.61896        -0.000000      0.000000      0.000000
      1.72382      1.72382      6.89521         0.000000      0.000000     -0.000000
      3.44757     -0.00000      6.89521        -0.000000      0.000000      0.000000
      3.44757      1.72382      8.61896        -0.000000     -0.000000     -0.000000
      5.17139     -0.00000      8.61896        -0.000000     -0.000000     -0.000000
      5.17139      1.72382      6.89521        -0.000000     -0.000000      0.000000
      6.89521     -0.00000      6.89521        -0.000000     -0.000000      0.000000
      6.89521      1.72382      8.61896        -0.000000     -0.000000     -0.000000
      8.61896     -0.00000      8.61896        -0.000000      0.000000     -0.000000
      8.61896      1.72382      6.89521         0.000000      0.000000      0.000000
     -0.00000      3.44757      6.89521         0.000000      0.000000      0.000000
     -0.00000      5.17139      8.61896         0.000000     -0.000000     -0.000000
      1.72382      3.44757      8.61896         0.000000      0.000000     -0.000000
      1.72382      5.17139      6.89521         0.000000     -0.000000     -0.000000
      3.44757      3.44757      6.89521         0.000000      0.000000      0.000000
      3.44757      5.17139      8.61896         0.000000      0.000000      0.000000
      5.17139      3.44757      8.61896        -0.000000     -0.000000      0.000000
      5.17139      5.17139      6.89521        -0.000000     -0.000000     -0.000000
      6.89521      3.44757      6.89521        -0.000000      0.000000      0.000000
      6.89521      5.17139      8.61896        -0.000000     -0.000000      0.000000
      8.61896      3.44757      8.61896        -0.000000      0.000000      0.000000
      8.61896      5.17139      6.89521         0.000000      0.000000     -0.000000
     -0.00000      6.89521      6.89521        -0.000000      0.000000      0.000000
     -0.00000      8.61896      8.61896         0.000000      0.000000      0.000000
      1.72382      6.89521      8.61896         0.000000     -0.000000      0.000000
      1.72382      8.61896      6.89521         0.000000     -0.000000      0.000000
      3.44757      6.89521      6.89521         0.000000      0.000000      0.000000
      3.44757      8.61896      8.61896         0.000000      0.000000     -0.000000
      5.17139      6.89521      8.61896         0.000000     -0.000000     -0.000000
      5.17139      8.61896      6.89521        -0.000000     -0.000000      0.000000
      6.89521      6.89521      6.89521        -0.000000     -0.000000     -0.000000
      6.89521      8.61896      8.61896        -0.000000      0.000000     -0.000000
      8.61896      6.89521      8.61896         0.000000     -0.000000     -0.000000
      8.61896      8.61896      6.89521         0.000000      0.000000     -0.000000
 -----------------------------------------------------------------------------------
    total drift:                               -0.000000     -0.000000     -0.000000


--------------------------------------------------------------------------------------------------------



  FREE ENERGIE OF THE ION-ELECTRON SYSTEM (eV)
  ---------------------------------------------------
  free  energy   TOTEN  =      -879.54256572 eV

  energy  without entropy=     -879.47258740  energy(sigma->0) =     -879.51923961
 
 d Force = 0.0000000E+00[ 0.000E+00, 0.000E+00]  d Energy = 0.9625121E-02-0.963E-02
 d Force = 0.0000000E+00[ 0.000E+00, 0.000E+00]  d Ewald  = 0.7182632E+02-0.718E+02


--------------------------------------------------------------------------------------------------------


    POTLOK:  cpu time    0.2693: real time    0.2693


--------------------------------------------------------------------------------------------------------




--------------------------------------------------------------------------------------------------------


  
 reached required accuracy - stopping structural energy minimisation
     LOOP+:  cpu time  414.6128: real time  414.6172
    4ORBIT:  cpu time    0.0000: real time    0.0000

 total amount of memory used by VASP MPI-rank0   354478. kBytes
=======================================================================

   base      :      30000. kBytes
   nonlr-proj:      20636. kBytes
   fftplans  :      15577. kBytes
   grid      :      21835. kBytes
   one-center:        419. kBytes
   wavefun   :     266011. kBytes
 
  
  
 General timing and accounting informations for this job:
 ========================================================
  
                  Total CPU time used (sec):     2282.206
                            User time (sec):     2280.148
                          System time (sec):        2.058
                         Elapsed time (sec):     2282.232
  
                   Maximum memory used (kb):      414732.
                   Average memory used (kb):           0.
  
                          Minor page faults:       422532
                          Major page faults:            0
                 Voluntary context switches:         1125
