<?xml version="1.0" encoding="ISO-8859-1"?>
<modeling>
 <generator>
  <i name="program" type="string">vasp </i>
  <i name="version" type="string">5.4.4.18Apr17-6-g9f103f2a35  </i>
  <i name="subversion" type="string">(build Aug 17 2017 06:00:38) complex            parallel </i>
  <i name="platform" type="string">LinuxIFC </i>
  <i name="date" type="string">2019 07 12 </i>
  <i name="time" type="string">15:31:05 </i>
 </generator>
 <incar>
  <i type="string" name="SYSTEM">Opt</i>
  <i type="int" name="ISTART">     0</i>
  <i type="string" name="PREC">normal</i>
  <i type="string" name="ALGO"> Fast</i>
  <i type="int" name="ISPIN">     1</i>
  <i type="int" name="ICHARG">     2</i>
  <i type="int" name="NELM">   400</i>
  <i type="int" name="IBRION">     2</i>
  <i name="EDIFF">      0.00000100</i>
  <i name="EDIFFG">     -0.01000000</i>
  <i type="int" name="NSW">   100</i>
  <i type="int" name="ISIF">     3</i>
  <i name="ENCUT">    850.00000000</i>
  <i type="int" name="NGX">    72</i>
  <i type="int" name="NGY">    72</i>
  <i type="int" name="NGZ">    72</i>
  <i name="POTIM">      0.50000000</i>
  <i type="string" name="LREAL">Auto</i>
  <i type="logical" name="LWAVE"> F  </i>
  <i type="logical" name="LCHARG"> F  </i>
  <v type="int" name="KPOINT_BSE">    -1     0     0     0</v>
  <i type="int" name="NELM">   400</i>
 </incar>
 <structure name="primitive_cell" >
  <crystal>
   <varray name="basis" >
    <v>       3.44492529       0.00000000       0.00000000 </v>
    <v>       0.00000000       3.44492529       0.00000000 </v>
    <v>       0.00000000       0.00000000       3.44492524 </v>
   </varray>
   <i name="volume">     40.88268566 </i>
   <varray name="rec_basis" >
    <v>       0.29028206       0.00000000       0.00000000 </v>
    <v>       0.00000000       0.29028206       0.00000000 </v>
    <v>       0.00000000       0.00000000       0.29028206 </v>
   </varray>
  </crystal>
  <varray name="positions" >
   <v>       0.00000000       0.00000000       0.00000000 </v>
   <v>       0.00000000      -0.49998976      -0.49998975 </v>
   <v>      -0.49998976       0.00000000      -0.49998975 </v>
   <v>      -0.49998976      -0.49998976       0.00000000 </v>
  </varray>
 </structure>
 <varray name="primitive_index" >
  <v type="int" >        1 </v>
  <v type="int" >        2 </v>
  <v type="int" >        3 </v>
  <v type="int" >        4 </v>
 </varray>
 <kpoints>
  <generation param="Monkhorst-Pack">
   <v type="int" name="divisions">       4        4        4 </v>
   <v name="usershift">      0.00000000       0.00000000       0.00000000 </v>
   <v name="genvec1">      0.25000000       0.00000000       0.00000000 </v>
   <v name="genvec2">      0.00000000       0.25000000       0.00000000 </v>
   <v name="genvec3">      0.00000000       0.00000000       0.25000000 </v>
   <v name="shift">      0.50000000       0.50000000       0.50000000 </v>
  </generation>
  <varray name="kpointlist" >
   <v>       0.12500000       0.12500000       0.12500000 </v>
   <v>       0.37500000       0.12500000       0.12500000 </v>
   <v>       0.37500000       0.37500000       0.12500000 </v>
   <v>       0.37500000       0.37500000       0.37500000 </v>
  </varray>
  <varray name="weights" >
   <v>       0.12500000 </v>
   <v>       0.37500000 </v>
   <v>       0.37500000 </v>
   <v>       0.12500000 </v>
  </varray>
 </kpoints>
 <parameters>
  <separator name="general" >
   <i type="string" name="SYSTEM">Opt</i>
   <i type="logical" name="LCOMPAT"> F  </i>
  </separator>
  <separator name="electronic" >
   <i type="string" name="PREC">normal</i>
   <i name="ENMAX">    850.00000000</i>
   <i name="ENAUG">    511.36800000</i>
   <i name="EDIFF">      0.00000100</i>
   <i type="int" name="IALGO">    68</i>
   <i type="int" name="IWAVPR">    11</i>
   <i type="int" name="NBANDS">   518</i>
   <i name="NELECT">    864.00000000</i>
   <i type="int" name="TURBO">     0</i>
   <i type="int" name="IRESTART">     0</i>
   <i type="int" name="NREBOOT">     0</i>
   <i type="int" name="NMIN">     0</i>
   <i name="EREF">      0.00000000</i>
   <separator name="electronic smearing" >
    <i type="int" name="ISMEAR">     1</i>
    <i name="SIGMA">      0.20000000</i>
    <i name="KSPACING">      0.50000000</i>
    <i type="logical" name="KGAMMA"> T  </i>
   </separator>
   <separator name="electronic projectors" >
    <i type="logical" name="LREAL"> T  </i>
    <v name="ROPT">     -0.00050000</v>
    <i type="int" name="LMAXPAW">  -100</i>
    <i type="int" name="LMAXMIX">     2</i>
    <i type="logical" name="NLSPLINE"> F  </i>
   </separator>
   <separator name="electronic startup" >
    <i type="int" name="ISTART">     0</i>
    <i type="int" name="ICHARG">     2</i>
    <i type="int" name="INIWAV">     1</i>
   </separator>
   <separator name="electronic spin" >
    <i type="int" name="ISPIN">     1</i>
    <i type="logical" name="LNONCOLLINEAR"> F  </i>
    <v name="MAGMOM">      1.00000000      1.00000000      1.00000000      1.00000000      1.00000000      1.00000000      1.00000000      1.00000000      1.00000000      1.00000000      1.00000000      1.00000000      1.00000000      1.00000000      1.00000000      1.00000000      1.00000000      1.00000000      1.00000000      1.00000000
      1.00000000      1.00000000      1.00000000      1.00000000      1.00000000      1.00000000      1.00000000      1.00000000      1.00000000      1.00000000      1.00000000      1.00000000      1.00000000      1.00000000      1.00000000      1.00000000      1.00000000      1.00000000      1.00000000      1.00000000
      1.00000000      1.00000000      1.00000000      1.00000000      1.00000000      1.00000000      1.00000000      1.00000000      1.00000000      1.00000000      1.00000000      1.00000000      1.00000000      1.00000000      1.00000000      1.00000000      1.00000000      1.00000000      1.00000000      1.00000000
      1.00000000      1.00000000      1.00000000      1.00000000      1.00000000      1.00000000      1.00000000      1.00000000      1.00000000      1.00000000      1.00000000      1.00000000      1.00000000      1.00000000      1.00000000      1.00000000      1.00000000      1.00000000      1.00000000      1.00000000
      1.00000000      1.00000000      1.00000000      1.00000000      1.00000000      1.00000000      1.00000000      1.00000000      1.00000000      1.00000000      1.00000000      1.00000000      1.00000000      1.00000000      1.00000000      1.00000000      1.00000000      1.00000000      1.00000000      1.00000000
      1.00000000      1.00000000      1.00000000      1.00000000      1.00000000      1.00000000      1.00000000      1.00000000</v>
    <i name="NUPDOWN">     -1.00000000</i>
    <i type="logical" name="LSORBIT"> F  </i>
    <v name="SAXIS">      0.00000000      0.00000000      1.00000000</v>
    <i type="logical" name="LSPIRAL"> F  </i>
    <v name="QSPIRAL">      0.00000000      0.00000000      0.00000000</v>
    <i type="logical" name="LZEROZ"> F  </i>
   </separator>
   <separator name="electronic exchange-correlation" >
    <i type="logical" name="LASPH"> F  </i>
    <i type="logical" name="LMETAGGA"> F  </i>
   </separator>
   <separator name="electronic convergence" >
    <i type="int" name="NELM">   400</i>
    <i type="int" name="NELMDL">    -5</i>
    <i type="int" name="NELMIN">     2</i>
    <i name="ENINI">    850.00000000</i>
    <separator name="electronic convergence detail" >
     <i type="logical" name="LDIAG"> T  </i>
     <i type="logical" name="LSUBROT"> F  </i>
     <i name="WEIMIN">      0.00100000</i>
     <i name="EBREAK">      0.00000000</i>
     <i name="DEPER">      0.30000000</i>
     <i type="int" name="NRMM">     4</i>
     <i name="TIME">      0.40000000</i>
    </separator>
   </separator>
   <separator name="electronic mixer" >
    <i name="AMIX">      0.40000000</i>
    <i name="BMIX">      1.00000000</i>
    <i name="AMIN">      0.10000000</i>
    <i name="AMIX_MAG">      1.60000000</i>
    <i name="BMIX_MAG">      1.00000000</i>
    <separator name="electronic mixer details" >
     <i type="int" name="IMIX">     4</i>
     <i type="logical" name="MIXFIRST"> F  </i>
     <i type="int" name="MAXMIX">   -45</i>
     <i name="WC">    100.00000000</i>
     <i type="int" name="INIMIX">     1</i>
     <i type="int" name="MIXPRE">     1</i>
     <i type="int" name="MREMOVE">     5</i>
    </separator>
   </separator>
   <separator name="electronic dipolcorrection" >
    <i type="logical" name="LDIPOL"> F  </i>
    <i type="logical" name="LMONO"> F  </i>
    <i type="int" name="IDIPOL">     0</i>
    <i name="EPSILON">      1.00000000</i>
    <v name="DIPOL">   -100.00000000   -100.00000000   -100.00000000</v>
    <i name="EFIELD">      0.00000000</i>
   </separator>
  </separator>
  <separator name="grids" >
   <i type="int" name="NGX">    72</i>
   <i type="int" name="NGY">    72</i>
   <i type="int" name="NGZ">    72</i>
   <i type="int" name="NGXF">   144</i>
   <i type="int" name="NGYF">   144</i>
   <i type="int" name="NGZF">   144</i>
   <i type="logical" name="ADDGRID"> F  </i>
  </separator>
  <separator name="ionic" >
   <i type="int" name="NSW">   100</i>
   <i type="int" name="IBRION">     2</i>
   <i type="int" name="MDALGO">     0</i>
   <i type="int" name="ISIF">     3</i>
   <i name="PSTRESS">      0.00000000</i>
   <i name="EDIFFG">     -0.01000000</i>
   <i type="int" name="NFREE">     1</i>
   <i name="POTIM">      0.50000000</i>
   <i name="SMASS">     -3.00000000</i>
   <i name="SCALEE">      1.00000000</i>
  </separator>
  <separator name="ionic md" >
   <i name="TEBEG">      0.00010000</i>
   <i name="TEEND">      0.00010000</i>
   <i type="int" name="NBLOCK">     1</i>
   <i type="int" name="KBLOCK">   100</i>
   <i type="int" name="NPACO">   256</i>
   <i name="APACO">     16.00000000</i>
  </separator>
  <separator name="symmetry" >
   <i type="int" name="ISYM">     2</i>
   <i name="SYMPREC">      0.00001000</i>
  </separator>
  <separator name="dos" >
   <i type="int" name="LORBIT">     0</i>
   <v name="RWIGS">     -1.00000000</v>
   <i type="int" name="NEDOS">   301</i>
   <i name="EMIN">     10.00000000</i>
   <i name="EMAX">    -10.00000000</i>
   <i name="EFERMI">      0.00000000</i>
  </separator>
  <separator name="writing" >
   <i type="int" name="NWRITE">     2</i>
   <i type="logical" name="LWAVE"> F  </i>
   <i type="logical" name="LDOWNSAMPLE"> F  </i>
   <i type="logical" name="LCHARG"> F  </i>
   <i type="logical" name="LPARD"> F  </i>
   <i type="logical" name="LVTOT"> F  </i>
   <i type="logical" name="LVHAR"> F  </i>
   <i type="logical" name="LELF"> F  </i>
   <i type="logical" name="LOPTICS"> F  </i>
   <v name="STM">      0.00000000      0.00000000      0.00000000      0.00000000      0.00000000      0.00000000      0.00000000</v>
  </separator>
  <separator name="performance" >
   <i type="int" name="NPAR">     2</i>
   <i type="int" name="NSIM">     4</i>
   <i type="int" name="NBLK">    -1</i>
   <i type="logical" name="LPLANE"> T  </i>
   <i type="logical" name="LSCALAPACK"> T  </i>
   <i type="logical" name="LSCAAWARE"> F  </i>
   <i type="logical" name="LSCALU"> F  </i>
   <i type="logical" name="LASYNC"> F  </i>
   <i type="logical" name="LORBITALREAL"> F  </i>
  </separator>
  <separator name="miscellaneous" >
   <i type="int" name="IDIOT">     3</i>
   <i type="int" name="ISPECIAL">     0</i>
   <i type="logical" name="LMUSIC"> F  </i>
   <v name="POMASS">     55.84700000</v>
   <v name="DARWINR">      0.00000000</v>
   <v name="DARWINV">      1.00000000</v>
   <i type="logical" name="LCORR"> T  </i>
  </separator>
  <i type="logical" name="GGA_COMPAT"> T  </i>
  <i type="logical" name="LBERRY"> F  </i>
  <i type="int" name="ICORELEVEL">     0</i>
  <i type="logical" name="LDAU"> F  </i>
  <i type="int" name="I_CONSTRAINED_M">     0</i>
  <separator name="electronic exchange-correlation" >
   <i type="string" name="GGA">--</i>
   <i type="int" name="VOSKOWN">     0</i>
   <i type="logical" name="LHFCALC"> F  </i>
   <i type="string" name="PRECFOCK"></i>
   <i type="logical" name="LSYMGRAD"> F  </i>
   <i type="logical" name="LHFONE"> F  </i>
   <i type="logical" name="LRHFCALC"> F  </i>
   <i type="logical" name="LTHOMAS"> F  </i>
   <i type="logical" name="LMODELHF"> F  </i>
   <i name="ENCUT4O">     -1.00000000</i>
   <i type="int" name="EXXOEP">     0</i>
   <i type="int" name="FOURORBIT">     0</i>
   <i name="AEXX">      0.00000000</i>
   <i name="HFALPHA">      0.00000000</i>
   <i name="MCALPHA">      0.00000000</i>
   <i name="ALDAX">      1.00000000</i>
   <i name="AGGAX">      1.00000000</i>
   <i name="ALDAC">      1.00000000</i>
   <i name="AGGAC">      1.00000000</i>
   <i type="int" name="NKREDX">     1</i>
   <i type="int" name="NKREDY">     1</i>
   <i type="int" name="NKREDZ">     1</i>
   <i type="logical" name="SHIFTRED"> F  </i>
   <i type="logical" name="ODDONLY"> F  </i>
   <i type="logical" name="EVENONLY"> F  </i>
   <i type="int" name="LMAXFOCK">     0</i>
   <i type="int" name="NMAXFOCKAE">     0</i>
   <i type="logical" name="LFOCKAEDFT"> F  </i>
   <i name="HFSCREEN">      0.00000000</i>
   <i name="HFSCREENC">      0.00000000</i>
   <i type="int" name="NBANDSGWLOW">     0</i>
  </separator>
  <separator name="vdW DFT" >
   <i type="logical" name="LUSE_VDW"> F  </i>
   <i name="Zab_VDW">     -0.84910000</i>
   <i name="PARAM1">      0.12340000</i>
   <i name="PARAM2">      1.00000000</i>
   <i name="PARAM3">      0.00000000</i>
  </separator>
  <separator name="model GW" >
   <i type="int" name="MODEL_GW">     0</i>
   <i name="MODEL_EPS0">      6.13252964</i>
   <i name="MODEL_ALPHA">      1.00000000</i>
  </separator>
  <separator name="linear response parameters" >
   <i type="logical" name="LEPSILON"> F  </i>
   <i type="logical" name="LRPA"> F  </i>
   <i type="logical" name="LNABLA"> F  </i>
   <i type="logical" name="LVEL"> F  </i>
   <i type="int" name="KINTER">     0</i>
   <i name="CSHIFT">      0.10000000</i>
   <i name="OMEGAMAX">     -1.00000000</i>
   <i name="DEG_THRESHOLD">      0.00200000</i>
   <i name="RTIME">     -0.10000000</i>
   <i name="WPLASMAI">      0.00000000</i>
   <v name="DFIELD">      0.00000000      0.00000000      0.00000000</v>
   <v name="WPLASMA">      0.00000000      0.00000000      0.00000000      0.00000000      0.00000000      0.00000000      0.00000000      0.00000000      0.00000000</v>
  </separator>
  <separator name="orbital magnetization" >
   <i type="logical" name="NUCIND"> F  </i>
   <v name="MAGPOS">      0.00000000      0.00000000      0.00000000</v>
   <i type="logical" name="LNICSALL"> T  </i>
   <i type="logical" name="ORBITALMAG"> F  </i>
   <i type="logical" name="LMAGBLOCH"> F  </i>
   <i type="logical" name="LCHIMAG"> F  </i>
   <i type="logical" name="LGAUGE"> T  </i>
   <i type="int" name="MAGATOM">     0</i>
   <v name="MAGDIPOL">      0.00000000      0.00000000      0.00000000</v>
   <v name="AVECCONST">      0.00000000      0.00000000      0.00000000</v>
  </separator>
  <separator name="response functions" >
   <i type="logical" name="LADDER"> F  </i>
   <i type="logical" name="LRPAFORCE"> F  </i>
   <i type="logical" name="LFXC"> F  </i>
   <i type="logical" name="LHARTREE"> T  </i>
   <i type="int" name="IBSE">     0</i>
   <v type="int" name="KPOINT">    -1     0     0     0</v>
   <i type="logical" name="LTCTE"> F  </i>
   <i type="logical" name="LTETE"> F  </i>
   <i type="logical" name="LTRIPLET"> F  </i>
   <i type="logical" name="LFXCEPS"> F  </i>
   <i type="logical" name="LFXHEG"> F  </i>
   <i type="int" name="NATURALO">     2</i>
   <i type="logical" name="L2ORDER"> F  </i>
   <i type="logical" name="LMP2LT"> F  </i>
   <i type="logical" name="LUSEW"> F  </i>
   <i name="ENCUTGW">     -2.00000000</i>
   <i name="ENCUTGWSOFT">     -2.00000000</i>
   <i name="ENCUTLF">     -1.00000000</i>
   <i type="int" name="LMAXMP2">    -1</i>
   <i name="SCISSOR">      0.00000000</i>
   <i type="int" name="NOMEGA">     0</i>
   <i type="int" name="NOMEGAR">     0</i>
   <i type="int" name="NBANDSGW">    -1</i>
   <i type="int" name="NBANDSO">    -1</i>
   <i type="int" name="NBANDSV">    -1</i>
   <i type="int" name="NELM">   400</i>
   <i type="int" name="NELMHF">     1</i>
   <i type="int" name="DIM">     3</i>
   <i type="int" name="ANTIRES">     0</i>
   <i name="OMEGAMAX">    -30.00000000</i>
   <i name="OMEGAMIN">    -30.00000000</i>
   <i name="OMEGATL">   -200.00000000</i>
   <i type="int" name="OMEGAGRID">   140</i>
   <i name="CSHIFT">     -0.10000000</i>
   <i type="logical" name="SELFENERGY"> F  </i>
   <i type="logical" name="LSPECTRAL"> F  </i>
   <i type="logical" name="LSPECTRALGW"> F  </i>
   <i type="logical" name="LSINGLES"> F  </i>
   <i type="logical" name="LFERMIGW"> F  </i>
   <i type="logical" name="ODDONLYGW"> F  </i>
   <i type="logical" name="EVENONLYGW"> F  </i>
   <i type="int" name="NKREDLFX">     1</i>
   <i type="int" name="NKREDLFY">     1</i>
   <i type="int" name="NKREDLFZ">     1</i>
   <i type="int" name="MAXMEM">  2800</i>
   <i type="int" name="TELESCOPE">     0</i>
   <i type="int" name="TAUPAR">     1</i>
   <i type="int" name="OMEGAPAR">    -1</i>
   <i name="LAMBDA">      1.00000000</i>
  </separator>
  <separator name="External order field" >
   <i name="OFIELD_KAPPA">      0.00000000</i>
   <v name="OFIELD_K">      0.00000000      0.00000000      0.00000000</v>
   <i name="OFIELD_Q6_NEAR">      0.00000000</i>
   <i name="OFIELD_Q6_FAR">      0.00000000</i>
   <i name="OFIELD_A">      0.00000000</i>
  </separator>
 </parameters>
 <atominfo>
  <atoms>     108 </atoms>
  <types>       1 </types>
  <array name="atoms" >
   <dimension dim="1">ion</dimension>
   <field type="string">element</field>
   <field type="int">atomtype</field>
   <set>
    <rc><c>Fe</c><c>   1</c></rc>
    <rc><c>Fe</c><c>   1</c></rc>
    <rc><c>Fe</c><c>   1</c></rc>
    <rc><c>Fe</c><c>   1</c></rc>
    <rc><c>Fe</c><c>   1</c></rc>
    <rc><c>Fe</c><c>   1</c></rc>
    <rc><c>Fe</c><c>   1</c></rc>
    <rc><c>Fe</c><c>   1</c></rc>
    <rc><c>Fe</c><c>   1</c></rc>
    <rc><c>Fe</c><c>   1</c></rc>
    <rc><c>Fe</c><c>   1</c></rc>
    <rc><c>Fe</c><c>   1</c></rc>
    <rc><c>Fe</c><c>   1</c></rc>
    <rc><c>Fe</c><c>   1</c></rc>
    <rc><c>Fe</c><c>   1</c></rc>
    <rc><c>Fe</c><c>   1</c></rc>
    <rc><c>Fe</c><c>   1</c></rc>
    <rc><c>Fe</c><c>   1</c></rc>
    <rc><c>Fe</c><c>   1</c></rc>
    <rc><c>Fe</c><c>   1</c></rc>
    <rc><c>Fe</c><c>   1</c></rc>
    <rc><c>Fe</c><c>   1</c></rc>
    <rc><c>Fe</c><c>   1</c></rc>
    <rc><c>Fe</c><c>   1</c></rc>
    <rc><c>Fe</c><c>   1</c></rc>
    <rc><c>Fe</c><c>   1</c></rc>
    <rc><c>Fe</c><c>   1</c></rc>
    <rc><c>Fe</c><c>   1</c></rc>
    <rc><c>Fe</c><c>   1</c></rc>
    <rc><c>Fe</c><c>   1</c></rc>
    <rc><c>Fe</c><c>   1</c></rc>
    <rc><c>Fe</c><c>   1</c></rc>
    <rc><c>Fe</c><c>   1</c></rc>
    <rc><c>Fe</c><c>   1</c></rc>
    <rc><c>Fe</c><c>   1</c></rc>
    <rc><c>Fe</c><c>   1</c></rc>
    <rc><c>Fe</c><c>   1</c></rc>
    <rc><c>Fe</c><c>   1</c></rc>
    <rc><c>Fe</c><c>   1</c></rc>
    <rc><c>Fe</c><c>   1</c></rc>
    <rc><c>Fe</c><c>   1</c></rc>
    <rc><c>Fe</c><c>   1</c></rc>
    <rc><c>Fe</c><c>   1</c></rc>
    <rc><c>Fe</c><c>   1</c></rc>
    <rc><c>Fe</c><c>   1</c></rc>
    <rc><c>Fe</c><c>   1</c></rc>
    <rc><c>Fe</c><c>   1</c></rc>
    <rc><c>Fe</c><c>   1</c></rc>
    <rc><c>Fe</c><c>   1</c></rc>
    <rc><c>Fe</c><c>   1</c></rc>
    <rc><c>Fe</c><c>   1</c></rc>
    <rc><c>Fe</c><c>   1</c></rc>
    <rc><c>Fe</c><c>   1</c></rc>
    <rc><c>Fe</c><c>   1</c></rc>
    <rc><c>Fe</c><c>   1</c></rc>
    <rc><c>Fe</c><c>   1</c></rc>
    <rc><c>Fe</c><c>   1</c></rc>
    <rc><c>Fe</c><c>   1</c></rc>
    <rc><c>Fe</c><c>   1</c></rc>
    <rc><c>Fe</c><c>   1</c></rc>
    <rc><c>Fe</c><c>   1</c></rc>
    <rc><c>Fe</c><c>   1</c></rc>
    <rc><c>Fe</c><c>   1</c></rc>
    <rc><c>Fe</c><c>   1</c></rc>
    <rc><c>Fe</c><c>   1</c></rc>
    <rc><c>Fe</c><c>   1</c></rc>
    <rc><c>Fe</c><c>   1</c></rc>
    <rc><c>Fe</c><c>   1</c></rc>
    <rc><c>Fe</c><c>   1</c></rc>
    <rc><c>Fe</c><c>   1</c></rc>
    <rc><c>Fe</c><c>   1</c></rc>
    <rc><c>Fe</c><c>   1</c></rc>
    <rc><c>Fe</c><c>   1</c></rc>
    <rc><c>Fe</c><c>   1</c></rc>
    <rc><c>Fe</c><c>   1</c></rc>
    <rc><c>Fe</c><c>   1</c></rc>
    <rc><c>Fe</c><c>   1</c></rc>
    <rc><c>Fe</c><c>   1</c></rc>
    <rc><c>Fe</c><c>   1</c></rc>
    <rc><c>Fe</c><c>   1</c></rc>
    <rc><c>Fe</c><c>   1</c></rc>
    <rc><c>Fe</c><c>   1</c></rc>
    <rc><c>Fe</c><c>   1</c></rc>
    <rc><c>Fe</c><c>   1</c></rc>
    <rc><c>Fe</c><c>   1</c></rc>
    <rc><c>Fe</c><c>   1</c></rc>
    <rc><c>Fe</c><c>   1</c></rc>
    <rc><c>Fe</c><c>   1</c></rc>
    <rc><c>Fe</c><c>   1</c></rc>
    <rc><c>Fe</c><c>   1</c></rc>
    <rc><c>Fe</c><c>   1</c></rc>
    <rc><c>Fe</c><c>   1</c></rc>
    <rc><c>Fe</c><c>   1</c></rc>
    <rc><c>Fe</c><c>   1</c></rc>
    <rc><c>Fe</c><c>   1</c></rc>
    <rc><c>Fe</c><c>   1</c></rc>
    <rc><c>Fe</c><c>   1</c></rc>
    <rc><c>Fe</c><c>   1</c></rc>
    <rc><c>Fe</c><c>   1</c></rc>
    <rc><c>Fe</c><c>   1</c></rc>
    <rc><c>Fe</c><c>   1</c></rc>
    <rc><c>Fe</c><c>   1</c></rc>
    <rc><c>Fe</c><c>   1</c></rc>
    <rc><c>Fe</c><c>   1</c></rc>
    <rc><c>Fe</c><c>   1</c></rc>
    <rc><c>Fe</c><c>   1</c></rc>
    <rc><c>Fe</c><c>   1</c></rc>
    <rc><c>Fe</c><c>   1</c></rc>
   </set>
  </array>
  <array name="atomtypes" >
   <dimension dim="1">type</dimension>
   <field type="int">atomspertype</field>
   <field type="string">element</field>
   <field>mass</field>
   <field>valence</field>
   <field type="string">pseudopotential</field>
   <set>
    <rc><c> 108</c><c>Fe</c><c>     55.84700000</c><c>      8.00000000</c><c> PAW_PBE Fe 06Sep2000                   </c></rc>
   </set>
  </array>
 </atominfo>
 <structure name="initialpos" >
  <crystal>
   <varray name="basis" >
    <v>      10.33484705       0.00000000       0.00000000 </v>
    <v>       0.00000000      10.33484705       0.00000000 </v>
    <v>       0.00000000       0.00000000      10.33484705 </v>
   </varray>
   <i name="volume">   1103.85533447 </i>
   <varray name="rec_basis" >
    <v>       0.09676002       0.00000000       0.00000000 </v>
    <v>       0.00000000       0.09676002       0.00000000 </v>
    <v>       0.00000000       0.00000000       0.09676002 </v>
   </varray>
  </crystal>
  <varray name="positions" >
   <v>       0.00000000       0.00000000       0.00000000 </v>
   <v>       0.00000000       0.16666893       0.16666893 </v>
   <v>       0.16666893       0.00000000       0.16666893 </v>
   <v>       0.16666893       0.16666893       0.00000000 </v>
   <v>       0.33333106       0.00000000       0.00000000 </v>
   <v>       0.33333107       0.16666893       0.16666893 </v>
   <v>       0.50000000       0.00000000       0.16666894 </v>
   <v>       0.50000000       0.16666894       0.00000000 </v>
   <v>       0.66666897       0.00000000       0.00000000 </v>
   <v>       0.66666896       0.16666893       0.16666893 </v>
   <v>       0.83333104       0.00000000       0.16666893 </v>
   <v>       0.83333104       0.16666893       0.00000000 </v>
   <v>       0.00000000       0.33333106       0.00000000 </v>
   <v>       0.00000000       0.50000000       0.16666894 </v>
   <v>       0.16666893       0.33333107       0.16666893 </v>
   <v>       0.16666894       0.50000000       0.00000000 </v>
   <v>       0.33333107       0.33333107       0.00000000 </v>
   <v>       0.33333107       0.50000000       0.16666893 </v>
   <v>       0.50000000       0.33333107       0.16666893 </v>
   <v>       0.50000000       0.50000000       0.00000000 </v>
   <v>       0.66666896       0.33333107       0.00000000 </v>
   <v>       0.66666896       0.50000000       0.16666893 </v>
   <v>       0.83333104       0.33333107       0.16666893 </v>
   <v>       0.83333103       0.50000000       0.00000000 </v>
   <v>       0.00000000       0.66666897       0.00000000 </v>
   <v>       0.00000000       0.83333104       0.16666893 </v>
   <v>       0.16666893       0.66666896       0.16666893 </v>
   <v>       0.16666893       0.83333104       0.00000000 </v>
   <v>       0.33333107       0.66666896       0.00000000 </v>
   <v>       0.33333107       0.83333104       0.16666893 </v>
   <v>       0.50000000       0.66666896       0.16666893 </v>
   <v>       0.50000000       0.83333103       0.00000000 </v>
   <v>       0.66666896       0.66666896       0.00000000 </v>
   <v>       0.66666896       0.83333104       0.16666893 </v>
   <v>       0.83333104       0.66666896       0.16666893 </v>
   <v>       0.83333104       0.83333104       0.00000000 </v>
   <v>       0.00000000       0.00000000       0.33333106 </v>
   <v>       0.00000000       0.16666894       0.50000000 </v>
   <v>       0.16666894       0.00000000       0.50000000 </v>
   <v>       0.16666893       0.16666893       0.33333107 </v>
   <v>       0.33333107       0.00000000       0.33333107 </v>
   <v>       0.33333107       0.16666893       0.50000000 </v>
   <v>       0.50000000       0.00000000       0.50000000 </v>
   <v>       0.50000000       0.16666893       0.33333107 </v>
   <v>       0.66666896       0.00000000       0.33333107 </v>
   <v>       0.66666896       0.16666893       0.50000000 </v>
   <v>       0.83333103       0.00000000       0.50000000 </v>
   <v>       0.83333104       0.16666893       0.33333107 </v>
   <v>       0.00000000       0.33333107       0.33333107 </v>
   <v>       0.00000000       0.50000000       0.50000000 </v>
   <v>       0.16666893       0.33333107       0.50000000 </v>
   <v>       0.16666893       0.50000000       0.33333107 </v>
   <v>       0.33333107       0.33333107       0.33333107 </v>
   <v>       0.33333106       0.50000000       0.50000000 </v>
   <v>       0.50000000       0.33333106       0.50000000 </v>
   <v>       0.50000000       0.50000000       0.33333106 </v>
   <v>       0.66666896       0.33333107       0.33333107 </v>
   <v>       0.66666897       0.50000000       0.50000000 </v>
   <v>       0.83333104       0.33333107       0.50000000 </v>
   <v>       0.83333104       0.50000000       0.33333107 </v>
   <v>       0.00000000       0.66666896       0.33333107 </v>
   <v>       0.00000000       0.83333103       0.50000000 </v>
   <v>       0.16666893       0.66666896       0.50000000 </v>
   <v>       0.16666893       0.83333104       0.33333107 </v>
   <v>       0.33333107       0.66666896       0.33333107 </v>
   <v>       0.33333107       0.83333104       0.50000000 </v>
   <v>       0.50000000       0.66666897       0.50000000 </v>
   <v>       0.50000000       0.83333104       0.33333107 </v>
   <v>       0.66666896       0.66666896       0.33333107 </v>
   <v>       0.66666896       0.83333104       0.50000000 </v>
   <v>       0.83333104       0.66666896       0.50000000 </v>
   <v>       0.83333104       0.83333104       0.33333107 </v>
   <v>       0.00000000       0.00000000       0.66666897 </v>
   <v>       0.00000000       0.16666893       0.83333104 </v>
   <v>       0.16666893       0.00000000       0.83333104 </v>
   <v>       0.16666893       0.16666893       0.66666896 </v>
   <v>       0.33333107       0.00000000       0.66666896 </v>
   <v>       0.33333107       0.16666893       0.83333104 </v>
   <v>       0.50000000       0.00000000       0.83333103 </v>
   <v>       0.50000000       0.16666893       0.66666896 </v>
   <v>       0.66666896       0.00000000       0.66666896 </v>
   <v>       0.66666896       0.16666893       0.83333104 </v>
   <v>       0.83333104       0.00000000       0.83333104 </v>
   <v>       0.83333104       0.16666893       0.66666896 </v>
   <v>       0.00000000       0.33333107       0.66666896 </v>
   <v>       0.00000000       0.50000000       0.83333103 </v>
   <v>       0.16666893       0.33333107       0.83333104 </v>
   <v>       0.16666893       0.50000000       0.66666896 </v>
   <v>       0.33333107       0.33333107       0.66666896 </v>
   <v>       0.33333107       0.50000000       0.83333104 </v>
   <v>       0.50000000       0.33333107       0.83333104 </v>
   <v>       0.50000000       0.50000000       0.66666897 </v>
   <v>       0.66666896       0.33333107       0.66666896 </v>
   <v>       0.66666896       0.50000000       0.83333104 </v>
   <v>       0.83333104       0.33333107       0.83333104 </v>
   <v>       0.83333104       0.50000000       0.66666896 </v>
   <v>       0.00000000       0.66666896       0.66666896 </v>
   <v>       0.00000000       0.83333104       0.83333104 </v>
   <v>       0.16666893       0.66666896       0.83333104 </v>
   <v>       0.16666893       0.83333104       0.66666896 </v>
   <v>       0.33333107       0.66666896       0.66666896 </v>
   <v>       0.33333107       0.83333104       0.83333104 </v>
   <v>       0.50000000       0.66666896       0.83333104 </v>
   <v>       0.50000000       0.83333104       0.66666896 </v>
   <v>       0.66666896       0.66666896       0.66666896 </v>
   <v>       0.66666896       0.83333104       0.83333104 </v>
   <v>       0.83333104       0.66666896       0.83333104 </v>
   <v>       0.83333104       0.83333104       0.66666896 </v>
  </varray>
 </structure>
 <calculation>
  <scstep>
   <time name="dav">   49.08   49.08</time>
   <time name="total">   49.40   49.40</time>
   <energy>
    <i name="alphaZ">   7300.31925852 </i>
    <i name="ewald"> -66232.83996889 </i>
    <i name="hartreedc"> -11197.02572337 </i>
    <i name="XCdc">    446.63038354 </i>
    <i name="pawpsdc">  51723.88885462 </i>
    <i name="pawaedc"> -52548.28121372 </i>
    <i name="eentropy">     -0.00664491 </i>
    <i name="bandstr">  16852.62442903 </i>
    <i name="atom">  64202.57391014 </i>
    <i name="e_fr_energy">  10547.88328497 </i>
    <i name="e_wo_entrp">  10547.88992988 </i>
    <i name="e_0_energy">  10547.88549994 </i>
   </energy>
  </scstep>
  <scstep>
   <time name="dav">   49.05   49.05</time>
   <time name="total">   49.05   49.05</time>
   <energy>
    <i name="e_fr_energy">    532.07999962 </i>
    <i name="e_wo_entrp">    532.07167810 </i>
    <i name="e_0_energy">    532.07722578 </i>
   </energy>
  </scstep>
  <scstep>
   <time name="dav">   49.03   49.03</time>
   <time name="total">   49.04   49.04</time>
   <energy>
    <i name="e_fr_energy">   -801.16784961 </i>
    <i name="e_wo_entrp">   -801.18535860 </i>
    <i name="e_0_energy">   -801.17368594 </i>
   </energy>
  </scstep>
  <scstep>
   <time name="dav">   80.75   80.75</time>
   <time name="total">   80.76   80.75</time>
   <energy>
    <i name="e_fr_energy">  -1025.10415562 </i>
    <i name="e_wo_entrp">  -1025.02380435 </i>
    <i name="e_0_energy">  -1025.07737187 </i>
   </energy>
  </scstep>
  <scstep>
   <time name="dav">   73.21   73.21</time>
   <time name="total">   75.36   75.36</time>
   <energy>
    <i name="e_fr_energy">  -1045.16143205 </i>
    <i name="e_wo_entrp">  -1045.05259392 </i>
    <i name="e_0_energy">  -1045.12515268 </i>
   </energy>
  </scstep>
  <scstep>
   <time name="diag">    6.80    6.80</time>
   <time name="diis">   18.78   18.78</time>
   <time name="orth">    2.43    2.43</time>
   <time name="total">   30.42   30.42</time>
   <energy>
    <i name="e_fr_energy">   -877.09142248 </i>
    <i name="e_wo_entrp">   -877.02978047 </i>
    <i name="e_0_energy">   -877.07087514 </i>
   </energy>
  </scstep>
  <scstep>
   <time name="diag">    6.80    6.80</time>
   <time name="diis">   20.60   20.60</time>
   <time name="orth">    2.43    2.43</time>
   <time name="total">   32.24   32.24</time>
   <energy>
    <i name="e_fr_energy">   -880.29569566 </i>
    <i name="e_wo_entrp">   -880.14551917 </i>
    <i name="e_0_energy">   -880.24563683 </i>
   </energy>
  </scstep>
  <scstep>
   <time name="diag">    6.79    6.79</time>
   <time name="diis">   20.98   20.98</time>
   <time name="orth">    2.43    2.43</time>
   <time name="total">   32.62   32.62</time>
   <energy>
    <i name="e_fr_energy">   -882.06963378 </i>
    <i name="e_wo_entrp">   -881.90760578 </i>
    <i name="e_0_energy">   -882.01562445 </i>
   </energy>
  </scstep>
  <scstep>
   <time name="diag">    6.79    6.79</time>
   <time name="diis">   19.83   19.83</time>
   <time name="orth">    2.43    2.43</time>
   <time name="total">   31.47   31.47</time>
   <energy>
    <i name="e_fr_energy">   -879.51901865 </i>
    <i name="e_wo_entrp">   -879.44763687 </i>
    <i name="e_0_energy">   -879.49522472 </i>
   </energy>
  </scstep>
  <scstep>
   <time name="diag">    6.79    6.79</time>
   <time name="diis">   26.73   26.73</time>
   <time name="orth">    2.43    2.43</time>
   <time name="total">   38.37   38.37</time>
   <energy>
    <i name="e_fr_energy">   -879.54504999 </i>
    <i name="e_wo_entrp">   -879.46215682 </i>
    <i name="e_0_energy">   -879.51741894 </i>
   </energy>
  </scstep>
  <scstep>
   <time name="diag">    6.79    6.79</time>
   <time name="diis">   24.01   24.01</time>
   <time name="orth">    2.43    2.43</time>
   <time name="total">   35.64   35.64</time>
   <energy>
    <i name="e_fr_energy">   -879.53636213 </i>
    <i name="e_wo_entrp">   -879.45647160 </i>
    <i name="e_0_energy">   -879.50973195 </i>
   </energy>
  </scstep>
  <scstep>
   <time name="diag">    6.79    6.79</time>
   <time name="diis">   24.35   24.35</time>
   <time name="orth">    2.43    2.43</time>
   <time name="total">   36.00   36.00</time>
   <energy>
    <i name="e_fr_energy">   -879.53843982 </i>
    <i name="e_wo_entrp">   -879.46118489 </i>
    <i name="e_0_energy">   -879.51268817 </i>
   </energy>
  </scstep>
  <scstep>
   <time name="diag">    6.79    6.79</time>
   <time name="diis">   22.24   22.24</time>
   <time name="orth">    2.43    2.43</time>
   <time name="total">   33.88   33.88</time>
   <energy>
    <i name="e_fr_energy">   -879.53774204 </i>
    <i name="e_wo_entrp">   -879.46231150 </i>
    <i name="e_0_energy">   -879.51259853 </i>
   </energy>
  </scstep>
  <scstep>
   <time name="diag">    6.79    6.79</time>
   <time name="diis">   27.44   27.44</time>
   <time name="orth">    2.44    2.44</time>
   <time name="total">   39.10   39.10</time>
   <energy>
    <i name="e_fr_energy">   -879.53803727 </i>
    <i name="e_wo_entrp">   -879.46320483 </i>
    <i name="e_0_energy">   -879.51309312 </i>
   </energy>
  </scstep>
  <scstep>
   <time name="diag">    6.79    6.79</time>
   <time name="diis">   22.53   22.53</time>
   <time name="orth">    2.43    2.43</time>
   <time name="total">   34.17   34.17</time>
   <energy>
    <i name="e_fr_energy">   -879.53802220 </i>
    <i name="e_wo_entrp">   -879.46344076 </i>
    <i name="e_0_energy">   -879.51316172 </i>
   </energy>
  </scstep>
  <scstep>
   <time name="diag">    6.79    6.79</time>
   <time name="diis">   25.75   25.75</time>
   <time name="orth">    2.43    2.43</time>
   <time name="total">   37.42   37.42</time>
   <energy>
    <i name="e_fr_energy">   -879.53797333 </i>
    <i name="e_wo_entrp">   -879.46380735 </i>
    <i name="e_0_energy">   -879.51325134 </i>
   </energy>
  </scstep>
  <scstep>
   <time name="diag">    6.79    6.79</time>
   <time name="diis">   16.27   16.27</time>
   <time name="orth">    2.43    2.43</time>
   <time name="total">   27.90   27.90</time>
   <energy>
    <i name="e_fr_energy">   -879.53794433 </i>
    <i name="e_wo_entrp">   -879.46410346 </i>
    <i name="e_0_energy">   -879.51333071 </i>
   </energy>
  </scstep>
  <scstep>
   <time name="diag">    6.79    6.79</time>
   <time name="diis">   13.59   13.59</time>
   <time name="orth">    2.43    2.43</time>
   <time name="total">   25.24   25.24</time>
   <energy>
    <i name="e_fr_energy">   -879.53792114 </i>
    <i name="e_wo_entrp">   -879.46437375 </i>
    <i name="e_0_energy">   -879.51340534 </i>
   </energy>
  </scstep>
  <scstep>
   <time name="diag">    6.79    6.79</time>
   <time name="diis">   13.16   13.16</time>
   <time name="orth">    2.44    2.44</time>
   <time name="total">   24.80   24.80</time>
   <energy>
    <i name="e_fr_energy">   -879.53790417 </i>
    <i name="e_wo_entrp">   -879.46456768 </i>
    <i name="e_0_energy">   -879.51345868 </i>
   </energy>
  </scstep>
  <scstep>
   <time name="diag">    6.78    6.78</time>
   <time name="diis">   12.86   12.86</time>
   <time name="orth">    2.44    2.44</time>
   <time name="total">   24.49   24.49</time>
   <energy>
    <i name="e_fr_energy">   -879.53789166 </i>
    <i name="e_wo_entrp">   -879.46471702 </i>
    <i name="e_0_energy">   -879.51350012 </i>
   </energy>
  </scstep>
  <scstep>
   <time name="diag">    6.78    6.78</time>
   <time name="diis">   12.59   12.59</time>
   <time name="orth">    2.43    2.43</time>
   <time name="total">   24.23   24.23</time>
   <energy>
    <i name="e_fr_energy">   -879.53787886 </i>
    <i name="e_wo_entrp">   -879.46487152 </i>
    <i name="e_0_energy">   -879.51354308 </i>
   </energy>
  </scstep>
  <scstep>
   <time name="diag">    6.79    6.79</time>
   <time name="diis">   12.05   12.05</time>
   <time name="orth">    2.43    2.43</time>
   <time name="total">   23.70   23.70</time>
   <energy>
    <i name="e_fr_energy">   -879.53786963 </i>
    <i name="e_wo_entrp">   -879.46498903 </i>
    <i name="e_0_energy">   -879.51357610 </i>
   </energy>
  </scstep>
  <scstep>
   <time name="diag">    6.79    6.79</time>
   <time name="diis">   11.81   11.81</time>
   <time name="orth">    2.43    2.43</time>
   <time name="total">   23.47   23.47</time>
   <energy>
    <i name="e_fr_energy">   -879.53785970 </i>
    <i name="e_wo_entrp">   -879.46511272 </i>
    <i name="e_0_energy">   -879.51361070 </i>
   </energy>
  </scstep>
  <scstep>
   <time name="diag">    6.79    6.79</time>
   <time name="diis">   11.13   11.13</time>
   <time name="orth">    2.43    2.43</time>
   <time name="total">   22.78   22.78</time>
   <energy>
    <i name="e_fr_energy">   -879.53785203 </i>
    <i name="e_wo_entrp">   -879.46520983 </i>
    <i name="e_0_energy">   -879.51363796 </i>
   </energy>
  </scstep>
  <scstep>
   <time name="diag">    6.78    6.78</time>
   <time name="diis">   10.91   10.91</time>
   <time name="orth">    2.43    2.43</time>
   <time name="total">   22.56   22.56</time>
   <energy>
    <i name="e_fr_energy">   -879.53784572 </i>
    <i name="e_wo_entrp">   -879.46529174 </i>
    <i name="e_0_energy">   -879.51366106 </i>
   </energy>
  </scstep>
  <scstep>
   <time name="diag">    6.78    6.78</time>
   <time name="diis">   10.51   10.51</time>
   <time name="orth">    2.43    2.43</time>
   <time name="total">   22.14   22.14</time>
   <energy>
    <i name="e_fr_energy">   -879.53784005 </i>
    <i name="e_wo_entrp">   -879.46536639 </i>
    <i name="e_0_energy">   -879.51368216 </i>
   </energy>
  </scstep>
  <scstep>
   <time name="diag">    6.78    6.78</time>
   <time name="diis">   10.37   10.37</time>
   <time name="orth">    2.43    2.43</time>
   <time name="total">   22.01   22.01</time>
   <energy>
    <i name="e_fr_energy">   -879.53783498 </i>
    <i name="e_wo_entrp">   -879.46543366 </i>
    <i name="e_0_energy">   -879.51370121 </i>
   </energy>
  </scstep>
  <scstep>
   <time name="diag">    6.78    6.78</time>
   <time name="diis">   10.02   10.02</time>
   <time name="orth">    2.43    2.43</time>
   <time name="total">   21.65   21.65</time>
   <energy>
    <i name="e_fr_energy">   -879.53783024 </i>
    <i name="e_wo_entrp">   -879.46549683 </i>
    <i name="e_0_energy">   -879.51371910 </i>
   </energy>
  </scstep>
  <scstep>
   <time name="diag">    6.78    6.78</time>
   <time name="diis">    9.87    9.87</time>
   <time name="orth">    2.43    2.43</time>
   <time name="total">   21.51   21.51</time>
   <energy>
    <i name="e_fr_energy">   -879.53782591 </i>
    <i name="e_wo_entrp">   -879.46555474 </i>
    <i name="e_0_energy">   -879.51373552 </i>
   </energy>
  </scstep>
  <scstep>
   <time name="diag">    6.79    6.79</time>
   <time name="diis">    9.71    9.71</time>
   <time name="orth">    2.43    2.43</time>
   <time name="total">   21.35   21.35</time>
   <energy>
    <i name="e_fr_energy">   -879.53782184 </i>
    <i name="e_wo_entrp">   -879.46560914 </i>
    <i name="e_0_energy">   -879.51375094 </i>
   </energy>
  </scstep>
  <scstep>
   <time name="diag">    6.77    6.77</time>
   <time name="diis">    9.54    9.54</time>
   <time name="orth">    2.43    2.43</time>
   <time name="total">   21.15   21.15</time>
   <energy>
    <i name="e_fr_energy">   -879.53781810 </i>
    <i name="e_wo_entrp">   -879.46565921 </i>
    <i name="e_0_energy">   -879.51376514 </i>
   </energy>
  </scstep>
  <scstep>
   <time name="diag">    6.76    6.76</time>
   <time name="diis">    9.50    9.50</time>
   <time name="orth">    2.43    2.43</time>
   <time name="total">   21.10   21.10</time>
   <energy>
    <i name="e_fr_energy">   -879.53781460 </i>
    <i name="e_wo_entrp">   -879.46570604 </i>
    <i name="e_0_energy">   -879.51377841 </i>
   </energy>
  </scstep>
  <scstep>
   <time name="diag">    6.76    6.76</time>
   <time name="diis">    9.36    9.36</time>
   <time name="orth">    2.43    2.43</time>
   <time name="total">   20.98   20.98</time>
   <energy>
    <i name="e_fr_energy">   -879.53781138 </i>
    <i name="e_wo_entrp">   -879.46574921 </i>
    <i name="e_0_energy">   -879.51379066 </i>
   </energy>
  </scstep>
  <scstep>
   <time name="diag">    6.76    6.76</time>
   <time name="diis">    9.26    9.26</time>
   <time name="orth">    2.43    2.43</time>
   <time name="total">   20.87   20.87</time>
   <energy>
    <i name="e_fr_energy">   -879.53780838 </i>
    <i name="e_wo_entrp">   -879.46578947 </i>
    <i name="e_0_energy">   -879.51380208 </i>
   </energy>
  </scstep>
  <scstep>
   <time name="diag">    6.76    6.76</time>
   <time name="diis">    9.09    9.09</time>
   <time name="orth">    2.43    2.43</time>
   <time name="total">   20.71   20.71</time>
   <energy>
    <i name="e_fr_energy">   -879.53780562 </i>
    <i name="e_wo_entrp">   -879.46582659 </i>
    <i name="e_0_energy">   -879.51381261 </i>
   </energy>
  </scstep>
  <scstep>
   <time name="diag">    6.77    6.77</time>
   <time name="diis">    9.03    9.03</time>
   <time name="orth">    2.43    2.43</time>
   <time name="total">   20.67   20.67</time>
   <energy>
    <i name="e_fr_energy">   -879.53780305 </i>
    <i name="e_wo_entrp">   -879.46586111 </i>
    <i name="e_0_energy">   -879.51382240 </i>
   </energy>
  </scstep>
  <scstep>
   <time name="diag">    6.78    6.78</time>
   <time name="diis">    8.96    8.96</time>
   <time name="orth">    2.42    2.42</time>
   <time name="total">   20.59   20.59</time>
   <energy>
    <i name="e_fr_energy">   -879.53780069 </i>
    <i name="e_wo_entrp">   -879.46589291 </i>
    <i name="e_0_energy">   -879.51383143 </i>
   </energy>
  </scstep>
  <scstep>
   <time name="diag">    6.77    6.77</time>
   <time name="diis">    8.88    8.88</time>
   <time name="orth">    2.43    2.43</time>
   <time name="total">   20.52   20.51</time>
   <energy>
    <i name="e_fr_energy">   -879.53779850 </i>
    <i name="e_wo_entrp">   -879.46592245 </i>
    <i name="e_0_energy">   -879.51383982 </i>
   </energy>
  </scstep>
  <scstep>
   <time name="diag">    6.78    6.78</time>
   <time name="diis">    8.98    8.98</time>
   <time name="orth">    2.43    2.43</time>
   <time name="total">   20.65   20.65</time>
   <energy>
    <i name="e_fr_energy">   -879.53779648 </i>
    <i name="e_wo_entrp">   -879.46594950 </i>
    <i name="e_0_energy">   -879.51384748 </i>
   </energy>
  </scstep>
  <scstep>
   <time name="diag">    6.78    6.78</time>
   <time name="diis">    8.96    8.96</time>
   <time name="orth">    2.43    2.43</time>
   <time name="total">   20.58   20.58</time>
   <energy>
    <i name="e_fr_energy">   -879.53779460 </i>
    <i name="e_wo_entrp">   -879.46597454 </i>
    <i name="e_0_energy">   -879.51385458 </i>
   </energy>
  </scstep>
  <scstep>
   <time name="diag">    6.79    6.79</time>
   <time name="diis">    8.82    8.82</time>
   <time name="orth">    2.43    2.43</time>
   <time name="total">   20.49   20.49</time>
   <energy>
    <i name="e_fr_energy">   -879.53779289 </i>
    <i name="e_wo_entrp">   -879.46599765 </i>
    <i name="e_0_energy">   -879.51386115 </i>
   </energy>
  </scstep>
  <scstep>
   <time name="diag">    6.79    6.79</time>
   <time name="diis">    8.62    8.62</time>
   <time name="orth">    2.44    2.44</time>
   <time name="total">   20.32   20.32</time>
   <energy>
    <i name="e_fr_energy">   -879.53779132 </i>
    <i name="e_wo_entrp">   -879.46601906 </i>
    <i name="e_0_energy">   -879.51386723 </i>
   </energy>
  </scstep>
  <scstep>
   <time name="diag">    6.79    6.79</time>
   <time name="diis">    8.64    8.64</time>
   <time name="orth">    2.43    2.43</time>
   <time name="total">   20.32   20.32</time>
   <energy>
    <i name="e_fr_energy">   -879.53778987 </i>
    <i name="e_wo_entrp">   -879.46603871 </i>
    <i name="e_0_energy">   -879.51387282 </i>
   </energy>
  </scstep>
  <scstep>
   <time name="diag">    6.79    6.79</time>
   <time name="diis">    8.64    8.64</time>
   <time name="orth">    2.43    2.43</time>
   <time name="total">   20.31   20.31</time>
   <energy>
    <i name="e_fr_energy">   -879.53778854 </i>
    <i name="e_wo_entrp">   -879.46605684 </i>
    <i name="e_0_energy">   -879.51387797 </i>
   </energy>
  </scstep>
  <scstep>
   <time name="diag">    6.79    6.79</time>
   <time name="diis">    8.54    8.54</time>
   <time name="orth">    2.44    2.44</time>
   <time name="total">   20.26   20.26</time>
   <energy>
    <i name="e_fr_energy">   -879.53778732 </i>
    <i name="e_wo_entrp">   -879.46607358 </i>
    <i name="e_0_energy">   -879.51388274 </i>
   </energy>
  </scstep>
  <scstep>
   <time name="diag">    6.78    6.78</time>
   <time name="diis">    8.52    8.52</time>
   <time name="orth">    2.44    2.44</time>
   <time name="total">   20.21   20.21</time>
   <energy>
    <i name="e_fr_energy">   -879.53778620 </i>
    <i name="e_wo_entrp">   -879.46608899 </i>
    <i name="e_0_energy">   -879.51388713 </i>
   </energy>
  </scstep>
  <scstep>
   <time name="diag">    6.78    6.78</time>
   <time name="diis">    8.49    8.49</time>
   <time name="orth">    2.44    2.44</time>
   <time name="total">   20.17   20.17</time>
   <energy>
    <i name="e_fr_energy">   -879.53778517 </i>
    <i name="e_wo_entrp">   -879.46610308 </i>
    <i name="e_0_energy">   -879.51389114 </i>
   </energy>
  </scstep>
  <scstep>
   <time name="diag">    6.78    6.78</time>
   <time name="diis">    8.62    8.62</time>
   <time name="orth">    2.44    2.44</time>
   <time name="total">   18.12   18.12</time>
   <energy>
    <i name="alphaZ">   7300.31925852 </i>
    <i name="ewald"> -66232.83996889 </i>
    <i name="hartreedc">  -9349.42287771 </i>
    <i name="XCdc">    360.26890386 </i>
    <i name="pawpsdc">  58041.98277226 </i>
    <i name="pawaedc"> -58976.90529190 </i>
    <i name="eentropy">     -0.07166816 </i>
    <i name="bandstr">   3774.55717765 </i>
    <i name="atom">  64202.57391014 </i>
    <i name="e_fr_energy">   -879.53778422 </i>
    <i name="e_wo_entrp">   -879.46611606 </i>
    <i name="e_0_energy">   -879.51389483 </i>
   </energy>
  </scstep>
  <structure>
   <crystal>
    <varray name="basis" >
     <v>      10.33484705       0.00000000       0.00000000 </v>
     <v>       0.00000000      10.33484705       0.00000000 </v>
     <v>       0.00000000       0.00000000      10.33484705 </v>
    </varray>
    <i name="volume">   1103.85533447 </i>
    <varray name="rec_basis" >
     <v>       0.09676002       0.00000000       0.00000000 </v>
     <v>       0.00000000       0.09676002       0.00000000 </v>
     <v>       0.00000000       0.00000000       0.09676002 </v>
    </varray>
   </crystal>
   <varray name="positions" >
    <v>       0.00000000       0.00000000       0.00000000 </v>
    <v>       0.00000000       0.16666893       0.16666893 </v>
    <v>       0.16666893       0.00000000       0.16666893 </v>
    <v>       0.16666893       0.16666893       0.00000000 </v>
    <v>       0.33333106       0.00000000       0.00000000 </v>
    <v>       0.33333107       0.16666893       0.16666893 </v>
    <v>       0.50000000       0.00000000       0.16666894 </v>
    <v>       0.50000000       0.16666894       0.00000000 </v>
    <v>       0.66666897       0.00000000       0.00000000 </v>
    <v>       0.66666896       0.16666893       0.16666893 </v>
    <v>       0.83333104       0.00000000       0.16666893 </v>
    <v>       0.83333104       0.16666893       0.00000000 </v>
    <v>       0.00000000       0.33333106       0.00000000 </v>
    <v>       0.00000000       0.50000000       0.16666894 </v>
    <v>       0.16666893       0.33333107       0.16666893 </v>
    <v>       0.16666894       0.50000000       0.00000000 </v>
    <v>       0.33333107       0.33333107       0.00000000 </v>
    <v>       0.33333107       0.50000000       0.16666893 </v>
    <v>       0.50000000       0.33333107       0.16666893 </v>
    <v>       0.50000000       0.50000000       0.00000000 </v>
    <v>       0.66666896       0.33333107       0.00000000 </v>
    <v>       0.66666896       0.50000000       0.16666893 </v>
    <v>       0.83333104       0.33333107       0.16666893 </v>
    <v>       0.83333103       0.50000000       0.00000000 </v>
    <v>       0.00000000       0.66666897       0.00000000 </v>
    <v>       0.00000000       0.83333104       0.16666893 </v>
    <v>       0.16666893       0.66666896       0.16666893 </v>
    <v>       0.16666893       0.83333104       0.00000000 </v>
    <v>       0.33333107       0.66666896       0.00000000 </v>
    <v>       0.33333107       0.83333104       0.16666893 </v>
    <v>       0.50000000       0.66666896       0.16666893 </v>
    <v>       0.50000000       0.83333103       0.00000000 </v>
    <v>       0.66666896       0.66666896       0.00000000 </v>
    <v>       0.66666896       0.83333104       0.16666893 </v>
    <v>       0.83333104       0.66666896       0.16666893 </v>
    <v>       0.83333104       0.83333104       0.00000000 </v>
    <v>       0.00000000       0.00000000       0.33333106 </v>
    <v>       0.00000000       0.16666894       0.50000000 </v>
    <v>       0.16666894       0.00000000       0.50000000 </v>
    <v>       0.16666893       0.16666893       0.33333107 </v>
    <v>       0.33333107       0.00000000       0.33333107 </v>
    <v>       0.33333107       0.16666893       0.50000000 </v>
    <v>       0.50000000       0.00000000       0.50000000 </v>
    <v>       0.50000000       0.16666893       0.33333107 </v>
    <v>       0.66666896       0.00000000       0.33333107 </v>
    <v>       0.66666896       0.16666893       0.50000000 </v>
    <v>       0.83333103       0.00000000       0.50000000 </v>
    <v>       0.83333104       0.16666893       0.33333107 </v>
    <v>       0.00000000       0.33333107       0.33333107 </v>
    <v>       0.00000000       0.50000000       0.50000000 </v>
    <v>       0.16666893       0.33333107       0.50000000 </v>
    <v>       0.16666893       0.50000000       0.33333107 </v>
    <v>       0.33333107       0.33333107       0.33333107 </v>
    <v>       0.33333106       0.50000000       0.50000000 </v>
    <v>       0.50000000       0.33333106       0.50000000 </v>
    <v>       0.50000000       0.50000000       0.33333106 </v>
    <v>       0.66666896       0.33333107       0.33333107 </v>
    <v>       0.66666897       0.50000000       0.50000000 </v>
    <v>       0.83333104       0.33333107       0.50000000 </v>
    <v>       0.83333104       0.50000000       0.33333107 </v>
    <v>       0.00000000       0.66666896       0.33333107 </v>
    <v>       0.00000000       0.83333103       0.50000000 </v>
    <v>       0.16666893       0.66666896       0.50000000 </v>
    <v>       0.16666893       0.83333104       0.33333107 </v>
    <v>       0.33333107       0.66666896       0.33333107 </v>
    <v>       0.33333107       0.83333104       0.50000000 </v>
    <v>       0.50000000       0.66666897       0.50000000 </v>
    <v>       0.50000000       0.83333104       0.33333107 </v>
    <v>       0.66666896       0.66666896       0.33333107 </v>
    <v>       0.66666896       0.83333104       0.50000000 </v>
    <v>       0.83333104       0.66666896       0.50000000 </v>
    <v>       0.83333104       0.83333104       0.33333107 </v>
    <v>       0.00000000       0.00000000       0.66666897 </v>
    <v>       0.00000000       0.16666893       0.83333104 </v>
    <v>       0.16666893       0.00000000       0.83333104 </v>
    <v>       0.16666893       0.16666893       0.66666896 </v>
    <v>       0.33333107       0.00000000       0.66666896 </v>
    <v>       0.33333107       0.16666893       0.83333104 </v>
    <v>       0.50000000       0.00000000       0.83333103 </v>
    <v>       0.50000000       0.16666893       0.66666896 </v>
    <v>       0.66666896       0.00000000       0.66666896 </v>
    <v>       0.66666896       0.16666893       0.83333104 </v>
    <v>       0.83333104       0.00000000       0.83333104 </v>
    <v>       0.83333104       0.16666893       0.66666896 </v>
    <v>       0.00000000       0.33333107       0.66666896 </v>
    <v>       0.00000000       0.50000000       0.83333103 </v>
    <v>       0.16666893       0.33333107       0.83333104 </v>
    <v>       0.16666893       0.50000000       0.66666896 </v>
    <v>       0.33333107       0.33333107       0.66666896 </v>
    <v>       0.33333107       0.50000000       0.83333104 </v>
    <v>       0.50000000       0.33333107       0.83333104 </v>
    <v>       0.50000000       0.50000000       0.66666897 </v>
    <v>       0.66666896       0.33333107       0.66666896 </v>
    <v>       0.66666896       0.50000000       0.83333104 </v>
    <v>       0.83333104       0.33333107       0.83333104 </v>
    <v>       0.83333104       0.50000000       0.66666896 </v>
    <v>       0.00000000       0.66666896       0.66666896 </v>
    <v>       0.00000000       0.83333104       0.83333104 </v>
    <v>       0.16666893       0.66666896       0.83333104 </v>
    <v>       0.16666893       0.83333104       0.66666896 </v>
    <v>       0.33333107       0.66666896       0.66666896 </v>
    <v>       0.33333107       0.83333104       0.83333104 </v>
    <v>       0.50000000       0.66666896       0.83333104 </v>
    <v>       0.50000000       0.83333104       0.66666896 </v>
    <v>       0.66666896       0.66666896       0.66666896 </v>
    <v>       0.66666896       0.83333104       0.83333104 </v>
    <v>       0.83333104       0.66666896       0.83333104 </v>
    <v>       0.83333104       0.83333104       0.66666896 </v>
   </varray>
  </structure>
  <varray name="forces" >
   <v>      -0.00000000      -0.00000000      -0.00000000 </v>
   <v>      -0.00000000       0.00000000      -0.00000000 </v>
   <v>      -0.00000000      -0.00000000      -0.00000000 </v>
   <v>       0.00000000       0.00000000      -0.00000000 </v>
   <v>      -0.00000000      -0.00000000      -0.00000000 </v>
   <v>      -0.00000000      -0.00000000      -0.00000000 </v>
   <v>      -0.00000000       0.00000000       0.00000000 </v>
   <v>      -0.00000000      -0.00000000      -0.00000000 </v>
   <v>       0.00000000      -0.00000000      -0.00000000 </v>
   <v>      -0.00000000      -0.00000000       0.00000000 </v>
   <v>       0.00000000       0.00000000      -0.00000000 </v>
   <v>       0.00000000       0.00000000      -0.00000000 </v>
   <v>      -0.00000000      -0.00000000      -0.00000000 </v>
   <v>       0.00000000       0.00000000      -0.00000000 </v>
   <v>       0.00000000       0.00000000      -0.00000000 </v>
   <v>       0.00000000       0.00000000      -0.00000000 </v>
   <v>      -0.00000000       0.00000000      -0.00000000 </v>
   <v>      -0.00000000      -0.00000000       0.00000000 </v>
   <v>      -0.00000000      -0.00000000       0.00000000 </v>
   <v>      -0.00000000      -0.00000000       0.00000000 </v>
   <v>       0.00000000      -0.00000000      -0.00000000 </v>
   <v>       0.00000000      -0.00000000       0.00000000 </v>
   <v>       0.00000000      -0.00000000      -0.00000000 </v>
   <v>       0.00000000      -0.00000000       0.00000000 </v>
   <v>      -0.00000000       0.00000000       0.00000000 </v>
   <v>      -0.00000000      -0.00000000      -0.00000000 </v>
   <v>       0.00000000      -0.00000000       0.00000000 </v>
   <v>       0.00000000       0.00000000       0.00000000 </v>
   <v>      -0.00000000      -0.00000000       0.00000000 </v>
   <v>      -0.00000000      -0.00000000      -0.00000000 </v>
   <v>      -0.00000000       0.00000000       0.00000000 </v>
   <v>       0.00000000      -0.00000000      -0.00000000 </v>
   <v>      -0.00000000       0.00000000      -0.00000000 </v>
   <v>      -0.00000000      -0.00000000       0.00000000 </v>
   <v>      -0.00000000       0.00000000       0.00000000 </v>
   <v>      -0.00000000       0.00000000       0.00000000 </v>
   <v>      -0.00000000      -0.00000000      -0.00000000 </v>
   <v>       0.00000000      -0.00000000      -0.00000000 </v>
   <v>       0.00000000       0.00000000      -0.00000000 </v>
   <v>       0.00000000       0.00000000       0.00000000 </v>
   <v>      -0.00000000      -0.00000000       0.00000000 </v>
   <v>      -0.00000000      -0.00000000       0.00000000 </v>
   <v>      -0.00000000       0.00000000      -0.00000000 </v>
   <v>      -0.00000000      -0.00000000       0.00000000 </v>
   <v>       0.00000000      -0.00000000      -0.00000000 </v>
   <v>       0.00000000       0.00000000       0.00000000 </v>
   <v>       0.00000000       0.00000000      -0.00000000 </v>
   <v>       0.00000000       0.00000000      -0.00000000 </v>
   <v>      -0.00000000       0.00000000       0.00000000 </v>
   <v>       0.00000000      -0.00000000      -0.00000000 </v>
   <v>       0.00000000       0.00000000       0.00000000 </v>
   <v>       0.00000000       0.00000000      -0.00000000 </v>
   <v>      -0.00000000       0.00000000      -0.00000000 </v>
   <v>       0.00000000      -0.00000000       0.00000000 </v>
   <v>       0.00000000      -0.00000000       0.00000000 </v>
   <v>      -0.00000000       0.00000000      -0.00000000 </v>
   <v>       0.00000000       0.00000000      -0.00000000 </v>
   <v>      -0.00000000       0.00000000       0.00000000 </v>
   <v>      -0.00000000      -0.00000000      -0.00000000 </v>
   <v>       0.00000000       0.00000000       0.00000000 </v>
   <v>      -0.00000000      -0.00000000       0.00000000 </v>
   <v>      -0.00000000      -0.00000000       0.00000000 </v>
   <v>       0.00000000       0.00000000      -0.00000000 </v>
   <v>      -0.00000000      -0.00000000      -0.00000000 </v>
   <v>       0.00000000      -0.00000000      -0.00000000 </v>
   <v>      -0.00000000      -0.00000000       0.00000000 </v>
   <v>       0.00000000       0.00000000       0.00000000 </v>
   <v>       0.00000000      -0.00000000       0.00000000 </v>
   <v>      -0.00000000       0.00000000       0.00000000 </v>
   <v>       0.00000000      -0.00000000      -0.00000000 </v>
   <v>      -0.00000000       0.00000000       0.00000000 </v>
   <v>      -0.00000000      -0.00000000       0.00000000 </v>
   <v>      -0.00000000      -0.00000000       0.00000000 </v>
   <v>       0.00000000      -0.00000000       0.00000000 </v>
   <v>       0.00000000      -0.00000000       0.00000000 </v>
   <v>       0.00000000       0.00000000      -0.00000000 </v>
   <v>      -0.00000000      -0.00000000      -0.00000000 </v>
   <v>      -0.00000000      -0.00000000       0.00000000 </v>
   <v>      -0.00000000       0.00000000       0.00000000 </v>
   <v>      -0.00000000      -0.00000000      -0.00000000 </v>
   <v>       0.00000000      -0.00000000      -0.00000000 </v>
   <v>      -0.00000000       0.00000000      -0.00000000 </v>
   <v>       0.00000000       0.00000000       0.00000000 </v>
   <v>      -0.00000000      -0.00000000      -0.00000000 </v>
   <v>      -0.00000000      -0.00000000      -0.00000000 </v>
   <v>       0.00000000      -0.00000000       0.00000000 </v>
   <v>      -0.00000000       0.00000000       0.00000000 </v>
   <v>       0.00000000       0.00000000       0.00000000 </v>
   <v>      -0.00000000       0.00000000       0.00000000 </v>
   <v>       0.00000000      -0.00000000      -0.00000000 </v>
   <v>      -0.00000000      -0.00000000      -0.00000000 </v>
   <v>      -0.00000000       0.00000000       0.00000000 </v>
   <v>      -0.00000000       0.00000000       0.00000000 </v>
   <v>      -0.00000000       0.00000000      -0.00000000 </v>
   <v>      -0.00000000       0.00000000       0.00000000 </v>
   <v>      -0.00000000      -0.00000000       0.00000000 </v>
   <v>      -0.00000000      -0.00000000       0.00000000 </v>
   <v>      -0.00000000      -0.00000000       0.00000000 </v>
   <v>       0.00000000       0.00000000      -0.00000000 </v>
   <v>       0.00000000       0.00000000       0.00000000 </v>
   <v>      -0.00000000      -0.00000000       0.00000000 </v>
   <v>      -0.00000000      -0.00000000      -0.00000000 </v>
   <v>      -0.00000000      -0.00000000      -0.00000000 </v>
   <v>      -0.00000000       0.00000000      -0.00000000 </v>
   <v>      -0.00000000       0.00000000       0.00000000 </v>
   <v>      -0.00000000       0.00000000      -0.00000000 </v>
   <v>      -0.00000000       0.00000000      -0.00000000 </v>
   <v>      -0.00000000       0.00000000       0.00000000 </v>
  </varray>
  <varray name="stress" >
   <v>       6.02550843       0.00000000      -0.00000000 </v>
   <v>      -0.00000000       6.02550843       0.00000000 </v>
   <v>      -0.00000000      -0.00000000       6.02550843 </v>
  </varray>
  <energy>
   <i name="e_fr_energy">   -879.53778422 </i>
   <i name="e_wo_entrp">   -879.51389483 </i>
   <i name="e_0_energy">     -0.07166816 </i>
  </energy>
  <time name="totalsc"> 1427.06 1427.06</time>
 </calculation>
 <calculation>
  <scstep>
   <time name="dav">   54.43   54.43</time>
   <time name="total">   56.87   56.87</time>
   <energy>
    <i name="alphaZ">   7259.85634958 </i>
    <i name="ewald"> -66110.24532882 </i>
    <i name="hartreedc">  -9332.11735049 </i>
    <i name="XCdc">    354.77268160 </i>
    <i name="pawpsdc">  58041.98303615 </i>
    <i name="pawaedc"> -58976.90543052 </i>
    <i name="eentropy">     -0.08386497 </i>
    <i name="bandstr">   3680.38289744 </i>
    <i name="atom">  64202.57391014 </i>
    <i name="e_fr_energy">   -879.78309989 </i>
    <i name="e_wo_entrp">   -879.69923492 </i>
    <i name="e_0_energy">   -879.75514490 </i>
   </energy>
  </scstep>
  <scstep>
   <time name="diag">    6.79    6.79</time>
   <time name="diis">   18.86   18.86</time>
   <time name="orth">    2.43    2.43</time>
   <time name="total">   30.49   30.49</time>
   <energy>
    <i name="e_fr_energy">   -879.53952637 </i>
    <i name="e_wo_entrp">   -879.47404848 </i>
    <i name="e_0_energy">   -879.51770041 </i>
   </energy>
  </scstep>
  <scstep>
   <time name="diag">    6.79    6.79</time>
   <time name="diis">   20.89   20.89</time>
   <time name="orth">    2.43    2.43</time>
   <time name="total">   32.52   32.52</time>
   <energy>
    <i name="e_fr_energy">   -879.53832983 </i>
    <i name="e_wo_entrp">   -879.47150032 </i>
    <i name="e_0_energy">   -879.51605333 </i>
   </energy>
  </scstep>
  <scstep>
   <time name="diag">    6.78    6.78</time>
   <time name="diis">   18.84   18.84</time>
   <time name="orth">    2.44    2.44</time>
   <time name="total">   30.47   30.47</time>
   <energy>
    <i name="e_fr_energy">   -879.53473389 </i>
    <i name="e_wo_entrp">   -879.46500277 </i>
    <i name="e_0_energy">   -879.51149018 </i>
   </energy>
  </scstep>
  <scstep>
   <time name="diag">    6.79    6.79</time>
   <time name="diis">   18.86   18.87</time>
   <time name="orth">    2.44    2.44</time>
   <time name="total">   30.50   30.50</time>
   <energy>
    <i name="e_fr_energy">   -879.53493863 </i>
    <i name="e_wo_entrp">   -879.46705328 </i>
    <i name="e_0_energy">   -879.51231018 </i>
   </energy>
  </scstep>
  <scstep>
   <time name="diag">    6.78    6.78</time>
   <time name="diis">   19.12   19.12</time>
   <time name="orth">    2.43    2.43</time>
   <time name="total">   30.74   30.75</time>
   <energy>
    <i name="e_fr_energy">   -879.53301644 </i>
    <i name="e_wo_entrp">   -879.46563853 </i>
    <i name="e_0_energy">   -879.51055714 </i>
   </energy>
  </scstep>
  <scstep>
   <time name="diag">    6.78    6.78</time>
   <time name="diis">   21.06   21.06</time>
   <time name="orth">    2.43    2.43</time>
   <time name="total">   32.68   32.68</time>
   <energy>
    <i name="e_fr_energy">   -879.53294201 </i>
    <i name="e_wo_entrp">   -879.46537025 </i>
    <i name="e_0_energy">   -879.51041809 </i>
   </energy>
  </scstep>
  <scstep>
   <time name="diag">    6.78    6.78</time>
   <time name="diis">   19.01   19.01</time>
   <time name="orth">    2.43    2.43</time>
   <time name="total">   30.63   30.63</time>
   <energy>
    <i name="e_fr_energy">   -879.53292274 </i>
    <i name="e_wo_entrp">   -879.46520882 </i>
    <i name="e_0_energy">   -879.51035144 </i>
   </energy>
  </scstep>
  <scstep>
   <time name="diag">    6.78    6.78</time>
   <time name="diis">   19.02   19.02</time>
   <time name="orth">    2.43    2.43</time>
   <time name="total">   30.64   30.64</time>
   <energy>
    <i name="e_fr_energy">   -879.53293765 </i>
    <i name="e_wo_entrp">   -879.46509611 </i>
    <i name="e_0_energy">   -879.51032380 </i>
   </energy>
  </scstep>
  <scstep>
   <time name="diag">    6.78    6.78</time>
   <time name="diis">   21.53   21.53</time>
   <time name="orth">    2.43    2.43</time>
   <time name="total">   33.15   33.15</time>
   <energy>
    <i name="e_fr_energy">   -879.53294332 </i>
    <i name="e_wo_entrp">   -879.46509036 </i>
    <i name="e_0_energy">   -879.51032567 </i>
   </energy>
  </scstep>
  <scstep>
   <time name="diag">    6.78    6.78</time>
   <time name="diis">   11.22   11.22</time>
   <time name="orth">    2.43    2.43</time>
   <time name="total">   22.84   22.84</time>
   <energy>
    <i name="e_fr_energy">   -879.53293960 </i>
    <i name="e_wo_entrp">   -879.46510590 </i>
    <i name="e_0_energy">   -879.51032836 </i>
   </energy>
  </scstep>
  <scstep>
   <time name="diag">    6.78    6.78</time>
   <time name="diis">   10.97   10.97</time>
   <time name="orth">    2.43    2.43</time>
   <time name="total">   20.45   20.45</time>
   <energy>
    <i name="alphaZ">   7259.85634958 </i>
    <i name="ewald"> -66110.24532882 </i>
    <i name="hartreedc">  -9392.81746566 </i>
    <i name="XCdc">    358.35251359 </i>
    <i name="pawpsdc">  57894.48925369 </i>
    <i name="pawaedc"> -58826.62636944 </i>
    <i name="eentropy">     -0.06783259 </i>
    <i name="bandstr">   3734.95202892 </i>
    <i name="atom">  64202.57391014 </i>
    <i name="e_fr_energy">   -879.53294060 </i>
    <i name="e_wo_entrp">   -879.46510800 </i>
    <i name="e_0_energy">   -879.51032973 </i>
   </energy>
  </scstep>
  <structure>
   <crystal>
    <varray name="basis" >
     <v>      10.35401196       0.00000000      -0.00000000 </v>
     <v>      -0.00000000      10.35401196       0.00000000 </v>
     <v>      -0.00000000      -0.00000000      10.35401196 </v>
    </varray>
    <i name="volume">   1110.00768732 </i>
    <varray name="rec_basis" >
     <v>       0.09658092       0.00000000       0.00000000 </v>
     <v>       0.00000000       0.09658092       0.00000000 </v>
     <v>       0.00000000      -0.00000000       0.09658092 </v>
    </varray>
   </crystal>
   <varray name="positions" >
    <v>      -0.00000000      -0.00000000      -0.00000000 </v>
    <v>      -0.00000000       0.16666893       0.16666893 </v>
    <v>       0.16666893      -0.00000000       0.16666893 </v>
    <v>       0.16666893       0.16666893      -0.00000000 </v>
    <v>       0.33333106      -0.00000000      -0.00000000 </v>
    <v>       0.33333107       0.16666893       0.16666893 </v>
    <v>       0.50000000       0.00000000       0.16666894 </v>
    <v>       0.50000000       0.16666894      -0.00000000 </v>
    <v>       0.66666897      -0.00000000      -0.00000000 </v>
    <v>       0.66666896       0.16666893       0.16666893 </v>
    <v>       0.83333104       0.00000000       0.16666893 </v>
    <v>       0.83333104       0.16666893      -0.00000000 </v>
    <v>      -0.00000000       0.33333106      -0.00000000 </v>
    <v>       0.00000000       0.50000000       0.16666894 </v>
    <v>       0.16666893       0.33333107       0.16666893 </v>
    <v>       0.16666894       0.50000000      -0.00000000 </v>
    <v>       0.33333107       0.33333107      -0.00000000 </v>
    <v>       0.33333107       0.50000000       0.16666893 </v>
    <v>       0.50000000       0.33333107       0.16666893 </v>
    <v>       0.50000000       0.50000000       0.00000000 </v>
    <v>       0.66666896       0.33333107      -0.00000000 </v>
    <v>       0.66666896       0.50000000       0.16666893 </v>
    <v>       0.83333104       0.33333107       0.16666893 </v>
    <v>       0.83333103       0.50000000       0.00000000 </v>
    <v>      -0.00000000       0.66666897       0.00000000 </v>
    <v>      -0.00000000       0.83333104       0.16666893 </v>
    <v>       0.16666893       0.66666896       0.16666893 </v>
    <v>       0.16666893       0.83333104       0.00000000 </v>
    <v>       0.33333107       0.66666896       0.00000000 </v>
    <v>       0.33333107       0.83333104       0.16666893 </v>
    <v>       0.50000000       0.66666896       0.16666893 </v>
    <v>       0.50000000       0.83333103      -0.00000000 </v>
    <v>       0.66666896       0.66666896      -0.00000000 </v>
    <v>       0.66666896       0.83333104       0.16666893 </v>
    <v>       0.83333104       0.66666896       0.16666893 </v>
    <v>       0.83333104       0.83333104       0.00000000 </v>
    <v>      -0.00000000      -0.00000000       0.33333106 </v>
    <v>       0.00000000       0.16666894       0.50000000 </v>
    <v>       0.16666894       0.00000000       0.50000000 </v>
    <v>       0.16666893       0.16666893       0.33333107 </v>
    <v>       0.33333107      -0.00000000       0.33333107 </v>
    <v>       0.33333107       0.16666893       0.50000000 </v>
    <v>       0.50000000       0.00000000       0.50000000 </v>
    <v>       0.50000000       0.16666893       0.33333107 </v>
    <v>       0.66666896      -0.00000000       0.33333107 </v>
    <v>       0.66666896       0.16666893       0.50000000 </v>
    <v>       0.83333103       0.00000000       0.50000000 </v>
    <v>       0.83333104       0.16666893       0.33333107 </v>
    <v>      -0.00000000       0.33333107       0.33333107 </v>
    <v>       0.00000000       0.50000000       0.50000000 </v>
    <v>       0.16666893       0.33333107       0.50000000 </v>
    <v>       0.16666893       0.50000000       0.33333107 </v>
    <v>       0.33333107       0.33333107       0.33333107 </v>
    <v>       0.33333106       0.50000000       0.50000000 </v>
    <v>       0.50000000       0.33333106       0.50000000 </v>
    <v>       0.50000000       0.50000000       0.33333106 </v>
    <v>       0.66666896       0.33333107       0.33333107 </v>
    <v>       0.66666897       0.50000000       0.50000000 </v>
    <v>       0.83333104       0.33333107       0.50000000 </v>
    <v>       0.83333104       0.50000000       0.33333107 </v>
    <v>      -0.00000000       0.66666896       0.33333107 </v>
    <v>      -0.00000000       0.83333103       0.50000000 </v>
    <v>       0.16666893       0.66666896       0.50000000 </v>
    <v>       0.16666893       0.83333104       0.33333107 </v>
    <v>       0.33333107       0.66666896       0.33333107 </v>
    <v>       0.33333107       0.83333104       0.50000000 </v>
    <v>       0.50000000       0.66666897       0.50000000 </v>
    <v>       0.50000000       0.83333104       0.33333107 </v>
    <v>       0.66666896       0.66666896       0.33333107 </v>
    <v>       0.66666896       0.83333104       0.50000000 </v>
    <v>       0.83333104       0.66666896       0.50000000 </v>
    <v>       0.83333104       0.83333104       0.33333107 </v>
    <v>      -0.00000000      -0.00000000       0.66666897 </v>
    <v>       0.00000000       0.16666893       0.83333104 </v>
    <v>       0.16666893      -0.00000000       0.83333104 </v>
    <v>       0.16666893       0.16666893       0.66666896 </v>
    <v>       0.33333107      -0.00000000       0.66666896 </v>
    <v>       0.33333107       0.16666893       0.83333104 </v>
    <v>       0.50000000       0.00000000       0.83333103 </v>
    <v>       0.50000000       0.16666893       0.66666896 </v>
    <v>       0.66666896      -0.00000000       0.66666896 </v>
    <v>       0.66666896       0.16666893       0.83333104 </v>
    <v>       0.83333104       0.00000000       0.83333104 </v>
    <v>       0.83333104       0.16666893       0.66666896 </v>
    <v>      -0.00000000       0.33333107       0.66666896 </v>
    <v>       0.00000000       0.50000000       0.83333103 </v>
    <v>       0.16666893       0.33333107       0.83333104 </v>
    <v>       0.16666893       0.50000000       0.66666896 </v>
    <v>       0.33333107       0.33333107       0.66666896 </v>
    <v>       0.33333107       0.50000000       0.83333104 </v>
    <v>       0.50000000       0.33333107       0.83333104 </v>
    <v>       0.50000000       0.50000000       0.66666897 </v>
    <v>       0.66666896       0.33333107       0.66666896 </v>
    <v>       0.66666896       0.50000000       0.83333104 </v>
    <v>       0.83333104       0.33333107       0.83333104 </v>
    <v>       0.83333104       0.50000000       0.66666896 </v>
    <v>      -0.00000000       0.66666896       0.66666896 </v>
    <v>      -0.00000000       0.83333104       0.83333104 </v>
    <v>       0.16666893       0.66666896       0.83333104 </v>
    <v>       0.16666893       0.83333104       0.66666896 </v>
    <v>       0.33333107       0.66666896       0.66666896 </v>
    <v>       0.33333107       0.83333104       0.83333104 </v>
    <v>       0.50000000       0.66666896       0.83333104 </v>
    <v>       0.50000000       0.83333104       0.66666896 </v>
    <v>       0.66666896       0.66666896       0.66666896 </v>
    <v>       0.66666896       0.83333104       0.83333104 </v>
    <v>       0.83333104       0.66666896       0.83333104 </v>
    <v>       0.83333104       0.83333104       0.66666896 </v>
   </varray>
  </structure>
  <varray name="forces" >
   <v>      -0.00000000      -0.00000000       0.00000000 </v>
   <v>       0.00000000       0.00000000      -0.00000000 </v>
   <v>       0.00000000       0.00000000      -0.00000000 </v>
   <v>      -0.00000000      -0.00000000       0.00000000 </v>
   <v>      -0.00000000      -0.00000000       0.00000000 </v>
   <v>       0.00000000      -0.00000000      -0.00000000 </v>
   <v>       0.00000000      -0.00000000      -0.00000000 </v>
   <v>      -0.00000000       0.00000000       0.00000000 </v>
   <v>       0.00000000       0.00000000       0.00000000 </v>
   <v>       0.00000000      -0.00000000       0.00000000 </v>
   <v>      -0.00000000      -0.00000000       0.00000000 </v>
   <v>      -0.00000000       0.00000000      -0.00000000 </v>
   <v>       0.00000000       0.00000000      -0.00000000 </v>
   <v>      -0.00000000       0.00000000       0.00000000 </v>
   <v>       0.00000000      -0.00000000       0.00000000 </v>
   <v>      -0.00000000      -0.00000000      -0.00000000 </v>
   <v>      -0.00000000      -0.00000000      -0.00000000 </v>
   <v>       0.00000000       0.00000000      -0.00000000 </v>
   <v>       0.00000000       0.00000000      -0.00000000 </v>
   <v>      -0.00000000       0.00000000       0.00000000 </v>
   <v>      -0.00000000      -0.00000000       0.00000000 </v>
   <v>      -0.00000000      -0.00000000      -0.00000000 </v>
   <v>       0.00000000       0.00000000       0.00000000 </v>
   <v>      -0.00000000       0.00000000      -0.00000000 </v>
   <v>       0.00000000       0.00000000      -0.00000000 </v>
   <v>       0.00000000      -0.00000000      -0.00000000 </v>
   <v>       0.00000000       0.00000000       0.00000000 </v>
   <v>       0.00000000       0.00000000       0.00000000 </v>
   <v>      -0.00000000      -0.00000000      -0.00000000 </v>
   <v>       0.00000000       0.00000000       0.00000000 </v>
   <v>       0.00000000       0.00000000      -0.00000000 </v>
   <v>       0.00000000      -0.00000000      -0.00000000 </v>
   <v>      -0.00000000       0.00000000      -0.00000000 </v>
   <v>      -0.00000000       0.00000000       0.00000000 </v>
   <v>       0.00000000      -0.00000000       0.00000000 </v>
   <v>      -0.00000000      -0.00000000      -0.00000000 </v>
   <v>       0.00000000      -0.00000000      -0.00000000 </v>
   <v>      -0.00000000      -0.00000000       0.00000000 </v>
   <v>       0.00000000       0.00000000       0.00000000 </v>
   <v>      -0.00000000      -0.00000000      -0.00000000 </v>
   <v>      -0.00000000       0.00000000      -0.00000000 </v>
   <v>      -0.00000000      -0.00000000      -0.00000000 </v>
   <v>      -0.00000000      -0.00000000      -0.00000000 </v>
   <v>      -0.00000000       0.00000000       0.00000000 </v>
   <v>      -0.00000000       0.00000000       0.00000000 </v>
   <v>       0.00000000      -0.00000000       0.00000000 </v>
   <v>      -0.00000000      -0.00000000       0.00000000 </v>
   <v>      -0.00000000       0.00000000      -0.00000000 </v>
   <v>       0.00000000      -0.00000000      -0.00000000 </v>
   <v>      -0.00000000       0.00000000      -0.00000000 </v>
   <v>      -0.00000000       0.00000000       0.00000000 </v>
   <v>       0.00000000      -0.00000000      -0.00000000 </v>
   <v>       0.00000000      -0.00000000      -0.00000000 </v>
   <v>      -0.00000000      -0.00000000       0.00000000 </v>
   <v>       0.00000000      -0.00000000      -0.00000000 </v>
   <v>      -0.00000000       0.00000000      -0.00000000 </v>
   <v>      -0.00000000      -0.00000000       0.00000000 </v>
   <v>       0.00000000      -0.00000000      -0.00000000 </v>
   <v>       0.00000000       0.00000000      -0.00000000 </v>
   <v>       0.00000000      -0.00000000       0.00000000 </v>
   <v>       0.00000000       0.00000000       0.00000000 </v>
   <v>      -0.00000000      -0.00000000      -0.00000000 </v>
   <v>      -0.00000000       0.00000000      -0.00000000 </v>
   <v>       0.00000000       0.00000000      -0.00000000 </v>
   <v>       0.00000000       0.00000000      -0.00000000 </v>
   <v>      -0.00000000      -0.00000000       0.00000000 </v>
   <v>      -0.00000000       0.00000000      -0.00000000 </v>
   <v>       0.00000000      -0.00000000      -0.00000000 </v>
   <v>      -0.00000000       0.00000000       0.00000000 </v>
   <v>      -0.00000000      -0.00000000       0.00000000 </v>
   <v>       0.00000000      -0.00000000       0.00000000 </v>
   <v>       0.00000000      -0.00000000       0.00000000 </v>
   <v>       0.00000000      -0.00000000       0.00000000 </v>
   <v>       0.00000000       0.00000000      -0.00000000 </v>
   <v>       0.00000000       0.00000000       0.00000000 </v>
   <v>       0.00000000      -0.00000000      -0.00000000 </v>
   <v>      -0.00000000       0.00000000       0.00000000 </v>
   <v>       0.00000000      -0.00000000      -0.00000000 </v>
[...]
       <r>    -1.8018     2.7957     0.4021 </r>
       <r>    -1.7563     3.3127     0.5526 </r>
       <r>    -1.7109     3.6771     0.7198 </r>
       <r>    -1.6654     3.8678     0.8955 </r>
       <r>    -1.6200     3.9352     1.0744 </r>
       <r>    -1.5745     3.9657     1.2546 </r>
       <r>    -1.5291     4.0372     1.4381 </r>
       <r>    -1.4836     4.2010     1.6291 </r>
       <r>    -1.4382     4.4847     1.8329 </r>
       <r>    -1.3927     4.8998     2.0556 </r>
       <r>    -1.3473     5.4408     2.3029 </r>
       <r>    -1.3018     6.0733     2.5789 </r>
       <r>    -1.2564     6.7078     2.8838 </r>
       <r>    -1.2109     7.1859     3.2103 </r>
       <r>    -1.1655     7.3246     3.5432 </r>
       <r>    -1.1200     7.0228     3.8624 </r>
       <r>    -1.0746     6.3620     4.1516 </r>
       <r>    -1.0291     5.6084     4.4065 </r>
       <r>    -0.9837     5.0999     4.6383 </r>
       <r>    -0.9382     5.0937     4.8698 </r>
       <r>    -0.8928     5.6714     5.1275 </r>
       <r>    -0.8473     6.7418     5.4339 </r>
       <r>    -0.8019     8.1069     5.8024 </r>
       <r>    -0.7564     9.5214     6.2351 </r>
       <r>    -0.7110    10.7082     6.7218 </r>
       <r>    -0.6655    11.3667     7.2384 </r>
       <r>    -0.6201    11.2502     7.7497 </r>
       <r>    -0.5746    10.3154     8.2186 </r>
       <r>    -0.5292     8.8372     8.6202 </r>
       <r>    -0.4837     7.3535     8.9544 </r>
       <r>    -0.4383     6.4375     9.2470 </r>
       <r>    -0.3928     6.4351     9.5395 </r>
       <r>    -0.3474     7.3339     9.8728 </r>
       <r>    -0.3020     8.8182    10.2736 </r>
       <r>    -0.2565    10.4361    10.7479 </r>
       <r>    -0.2111    11.7676    11.2827 </r>
       <r>    -0.1656    12.5324    11.8523 </r>
       <r>    -0.1202    12.6475    12.4271 </r>
       <r>    -0.0747    12.2490    12.9838 </r>
       <r>    -0.0293    11.6534    13.5135 </r>
       <r>     0.0162    11.2296    14.0239 </r>
       <r>     0.0616    11.2284    14.5342 </r>
       <r>     0.1071    11.6721    15.0647 </r>
       <r>     0.1525    12.3826    15.6275 </r>
       <r>     0.1980    13.1154    16.2235 </r>
       <r>     0.2434    13.6923    16.8459 </r>
       <r>     0.2889    14.0433    17.4841 </r>
       <r>     0.3343    14.1634    18.1278 </r>
       <r>     0.3798    14.0546    18.7666 </r>
       <r>     0.4252    13.7135    19.3899 </r>
       <r>     0.4707    13.1696    19.9884 </r>
       <r>     0.5161    12.5408    20.5584 </r>
       <r>     0.5616    12.0745    21.1072 </r>
       <r>     0.6070    12.1266    21.6583 </r>
       <r>     0.6525    13.0310    22.2506 </r>
       <r>     0.6979    14.8772    22.9267 </r>
       <r>     0.7434    17.3342    23.7146 </r>
       <r>     0.7888    19.7058    24.6102 </r>
       <r>     0.8343    21.2610    25.5765 </r>
       <r>     0.8797    21.6468    26.5603 </r>
       <r>     0.9252    21.0738    27.5181 </r>
       <r>     0.9706    20.1117    28.4322 </r>
       <r>     1.0161    19.2475    29.3069 </r>
       <r>     1.0615    18.5708    30.1510 </r>
       <r>     1.1070    17.8564    30.9625 </r>
       <r>     1.1524    16.9698    31.7338 </r>
       <r>     1.1979    16.2227    32.4711 </r>
       <r>     1.2433    16.3368    33.2136 </r>
       <r>     1.2888    18.0058    34.0320 </r>
       <r>     1.3342    21.3780    35.0036 </r>
       <r>     1.3797    25.8236    36.1772 </r>
       <r>     1.4251    30.1273    37.5465 </r>
       <r>     1.4706    32.9870    39.0457 </r>
       <r>     1.5160    33.5690    40.5714 </r>
       <r>     1.5615    31.8921    42.0209 </r>
       <r>     1.6069    28.9004    43.3344 </r>
       <r>     1.6524    26.2023    44.5253 </r>
       <r>     1.6978    25.5722    45.6875 </r>
       <r>     1.7433    28.3846    46.9776 </r>
       <r>     1.7887    35.1640    48.5758 </r>
       <r>     1.8342    45.4100    50.6396 </r>
       <r>     1.8796    57.7907    53.2662 </r>
       <r>     1.9251    70.6439    56.4769 </r>
       <r>     1.9705    82.5174    60.2272 </r>
       <r>     2.0160    92.4310    64.4282 </r>
       <r>     2.0614    99.7900    68.9635 </r>
       <r>     2.1069   104.2290    73.7007 </r>
       <r>     2.1523   105.6986    78.5046 </r>
       <r>     2.1978   104.7563    83.2657 </r>
       <r>     2.2432   102.6852    87.9327 </r>
       <r>     2.2887   101.1445    92.5296 </r>
       <r>     2.3341   101.4551    97.1407 </r>
       <r>     2.3796   103.9541   101.8653 </r>
       <r>     2.4250   107.8634   106.7677 </r>
       <r>     2.4705   111.8315   111.8503 </r>
       <r>     2.5159   114.8764   117.0714 </r>
       <r>     2.5614   117.1037   122.3937 </r>
       <r>     2.6068   119.6155   127.8301 </r>
       <r>     2.6523   123.6059   133.4479 </r>
       <r>     2.6977   129.3518   139.3269 </r>
       <r>     2.7432   135.9741   145.5068 </r>
       <r>     2.7886   142.1901   151.9692 </r>
       <r>     2.8341   147.3762   158.6674 </r>
       <r>     2.8795   151.9698   165.5743 </r>
       <r>     2.9250   156.8560   172.7033 </r>
       <r>     2.9704   162.3115   180.0803 </r>
       <r>     3.0158   167.4712   187.6917 </r>
       <r>     3.0613   170.8100   195.4549 </r>
       <r>     3.1067   171.2372   203.2375 </r>
       <r>     3.1522   168.8721   210.9127 </r>
       <r>     3.1976   164.8710   218.4059 </r>
       <r>     3.2431   160.5489   225.7028 </r>
       <r>     3.2885   156.6461   232.8222 </r>
       <r>     3.3340   153.3444   239.7916 </r>
       <r>     3.3794   150.7928   246.6451 </r>
       <r>     3.4249   149.3913   253.4348 </r>
       <r>     3.4703   149.4374   260.2266 </r>
       <r>     3.5158   150.5346   267.0683 </r>
       <r>     3.5612   151.4756   273.9528 </r>
       <r>     3.6067   150.8464   280.8087 </r>
       <r>     3.6521   147.9140   287.5312 </r>
       <r>     3.6976   143.1426   294.0370 </r>
       <r>     3.7430   138.0052   300.3092 </r>
       <r>     3.7885   134.1980   306.4084 </r>
       <r>     3.8339   132.6649   312.4380 </r>
       <r>     3.8794   132.9742   318.4815 </r>
       <r>     3.9248   133.5265   324.5502 </r>
       <r>     3.9703   132.6388   330.5786 </r>
       <r>     4.0157   129.8655   336.4809 </r>
       <r>     4.0612   126.5442   342.2322 </r>
       <r>     4.1066   125.0025   347.9135 </r>
       <r>     4.1521   126.9511   353.6833 </r>
       <r>     4.1975   132.3709   359.6995 </r>
       <r>     4.2430   139.8375   366.0550 </r>
       <r>     4.2884   147.9178   372.7778 </r>
       <r>     4.3339   156.2449   379.8790 </r>
       <r>     4.3793   165.2223   387.3883 </r>
       <r>     4.4248   174.7354   395.3299 </r>
       <r>     4.4702   183.2726   403.6595 </r>
       <r>     4.5157   188.4397   412.2239 </r>
       <r>     4.5611   188.5010   420.7912 </r>
       <r>     4.6066   183.7209   429.1412 </r>
       <r>     4.6520   176.5924   437.1672 </r>
       <r>     4.6975   170.9227   444.9355 </r>
       <r>     4.7429   170.3195   452.6764 </r>
       <r>     4.7884   176.7028   460.7074 </r>
       <r>     4.8338   189.4007   469.3156 </r>
       <r>     4.8793   205.2891   478.6458 </r>
       <r>     4.9247   220.0740   488.6480 </r>
       <r>     4.9702   230.1585   499.1086 </r>
       <r>     5.0156   234.0869   509.7477 </r>
       <r>     5.0611   232.7983   520.3282 </r>
       <r>     5.1065   228.7559   530.7250 </r>
       <r>     5.1520   224.7221   540.9385 </r>
       <r>     5.1974   222.9611   551.0719 </r>
       <r>     5.2429   225.0337   561.2995 </r>
       <r>     5.2883   231.7217   571.8311 </r>
       <r>     5.3338   242.5949   582.8569 </r>
       <r>     5.3792   255.3680   594.4632 </r>
       <r>     5.4247   265.8683   606.5467 </r>
       <r>     5.4701   269.3248   618.7874 </r>
       <r>     5.5156   262.6608   630.7251 </r>
       <r>     5.5610   246.3682   641.9224 </r>
       <r>     5.6065   224.5104   652.1262 </r>
       <r>     5.6519   202.6410   661.3361 </r>
       <r>     5.6974   184.9595   669.7424 </r>
       <r>     5.7428   172.5768   677.5859 </r>
       <r>     5.7883   163.8898   685.0346 </r>
       <r>     5.8337   156.5288   692.1487 </r>
       <r>     5.8792   149.3477   698.9365 </r>
       <r>     5.9246   143.1403   705.4421 </r>
       <r>     5.9701   139.8484   711.7981 </r>
       <r>     6.0155   141.0618   718.2093 </r>
       <r>     6.0610   146.8961   724.8856 </r>
       <r>     6.1064   155.8734   731.9700 </r>
       <r>     6.1519   165.7087   739.5013 </r>
       <r>     6.1973   174.4577   747.4303 </r>
       <r>     6.2428   181.4043   755.6750 </r>
       <r>     6.2882   187.2181   764.1839 </r>
       <r>     6.3337   193.2140   772.9654 </r>
       <r>     6.3791   200.0776   782.0588 </r>
       <r>     6.4245   206.9696   791.4654 </r>
       <r>     6.4700   211.8788   801.0951 </r>
       <r>     6.5154   213.1508   810.7827 </r>
       <r>     6.5609   210.9623   820.3708 </r>
       <r>     6.6063   207.3340   829.7940 </r>
       <r>     6.6518   204.4836   839.0876 </r>
       <r>     6.6972   202.8767   848.3082 </r>
       <r>     6.7427   200.7484   857.4321 </r>
       <r>     6.7881   195.6564   866.3246 </r>
       <r>     6.8336   186.8328   874.8160 </r>
       <r>     6.8790   176.3401   882.8305 </r>
       <r>     6.9245   167.9898   890.4655 </r>
       <r>     6.9699   164.8463   897.9577 </r>
       <r>     7.0154   167.2806   905.5605 </r>
       <r>     7.0608   173.0074   913.4236 </r>
       <r>     7.1063   178.8665   921.5529 </r>
       <r>     7.1517   182.8160   929.8618 </r>
       <r>     7.1972   184.7508   938.2586 </r>
       <r>     7.2426   185.9665   946.7106 </r>
       <r>     7.2881   188.0900   955.2592 </r>
       <r>     7.3335   192.2681   963.9976 </r>
       <r>     7.3790   198.7307   973.0298 </r>
       <r>     7.4244   206.4434   982.4125 </r>
       <r>     7.4699   212.8192   992.0850 </r>
       <r>     7.5153   213.9094  1001.8071 </r>
       <r>     7.5608   205.4885  1011.1464 </r>
       <r>     7.6062   184.8700  1019.5486 </r>
       <r>     7.6517   152.5866  1026.4836 </r>
       <r>     7.6971   112.8600  1031.6130 </r>
       <r>     7.7426    72.3387  1034.9007 </r>
       <r>     7.7880    37.6218  1036.6106 </r>
       <r>     7.8335    12.8785  1037.1959 </r>
       <r>     7.8789    -1.1931  1037.1417 </r>
       <r>     7.9244    -6.7309  1036.8358 </r>
       <r>     7.9698    -7.0848  1036.5138 </r>
       <r>     8.0153    -5.2712  1036.2742 </r>
       <r>     8.0607    -3.1940  1036.1290 </r>
       <r>     8.1062    -1.6513  1036.0540 </r>
       <r>     8.1516    -0.7439  1036.0202 </r>
       <r>     8.1971    -0.2953  1036.0068 </r>
       <r>     8.2425    -0.1040  1036.0020 </r>
       <r>     8.2880    -0.0326  1036.0005 </r>
       <r>     8.3334    -0.0091  1036.0001 </r>
       <r>     8.3789    -0.0023  1036.0000 </r>
       <r>     8.4243    -0.0005  1036.0000 </r>
       <r>     8.4698    -0.0001  1036.0000 </r>
       <r>     8.5152    -0.0000  1036.0000 </r>
       <r>     8.5607    -0.0000  1036.0000 </r>
       <r>     8.6061    -0.0000  1036.0000 </r>
       <r>     8.6516    -0.0000  1036.0000 </r>
       <r>     8.6970    -0.0000  1036.0000 </r>
       <r>     8.7425    -0.0000  1036.0000 </r>
       <r>     8.7879    -0.0000  1036.0000 </r>
       <r>     8.8334    -0.0000  1036.0000 </r>
       <r>     8.8788    -0.0000  1036.0000 </r>
       <r>     8.9243    -0.0000  1036.0000 </r>
       <r>     8.9697     0.0000  1036.0000 </r>
       <r>     9.0152     0.0000  1036.0000 </r>
       <r>     9.0606     0.0000  1036.0000 </r>
       <r>     9.1061     0.0000  1036.0000 </r>
       <r>     9.1515     0.0000  1036.0000 </r>
       <r>     9.1970     0.0000  1036.0000 </r>
       <r>     9.2424     0.0000  1036.0000 </r>
       <r>     9.2879     0.0000  1036.0000 </r>
       <r>     9.3333     0.0000  1036.0000 </r>
       <r>     9.3788     0.0000  1036.0000 </r>
       <r>     9.4242     0.0000  1036.0000 </r>
       <r>     9.4697     0.0000  1036.0000 </r>
       <r>     9.5151     0.0000  1036.0000 </r>
       <r>     9.5606     0.0000  1036.0000 </r>
       <r>     9.6060     0.0000  1036.0000 </r>
       <r>     9.6515     0.0000  1036.0000 </r>
       <r>     9.6969     0.0000  1036.0000 </r>
      </set>
     </set>
    </array>
   </total>
  </dos>
 </calculation>
 <structure name="finalpos" >
  <crystal>
   <varray name="basis" >
    <v>      10.34277492       0.00000000      -0.00000000 </v>
    <v>      -0.00000000      10.34277492       0.00000000 </v>
    <v>      -0.00000000      -0.00000000      10.34277492 </v>
   </varray>
   <i name="volume">   1106.39758855 </i>
   <varray name="rec_basis" >
    <v>       0.09668585       0.00000000       0.00000000 </v>
    <v>       0.00000000       0.09668585       0.00000000 </v>
    <v>       0.00000000      -0.00000000       0.09668585 </v>
   </varray>
  </crystal>
  <varray name="positions" >
   <v>      -0.00000000      -0.00000000      -0.00000000 </v>
   <v>      -0.00000000       0.16666893       0.16666893 </v>
   <v>       0.16666893      -0.00000000       0.16666893 </v>
   <v>       0.16666893       0.16666893      -0.00000000 </v>
   <v>       0.33333106      -0.00000000      -0.00000000 </v>
   <v>       0.33333107       0.16666893       0.16666893 </v>
   <v>       0.50000000       0.00000000       0.16666894 </v>
   <v>       0.50000000       0.16666894      -0.00000000 </v>
   <v>       0.66666897      -0.00000000      -0.00000000 </v>
   <v>       0.66666896       0.16666893       0.16666893 </v>
   <v>       0.83333104       0.00000000       0.16666893 </v>
   <v>       0.83333104       0.16666893      -0.00000000 </v>
   <v>      -0.00000000       0.33333106      -0.00000000 </v>
   <v>       0.00000000       0.50000000       0.16666894 </v>
   <v>       0.16666893       0.33333107       0.16666893 </v>
   <v>       0.16666894       0.50000000      -0.00000000 </v>
   <v>       0.33333107       0.33333107      -0.00000000 </v>
   <v>       0.33333107       0.50000000       0.16666893 </v>
   <v>       0.50000000       0.33333107       0.16666893 </v>
   <v>       0.50000000       0.50000000       0.00000000 </v>
   <v>       0.66666896       0.33333107      -0.00000000 </v>
   <v>       0.66666896       0.50000000       0.16666893 </v>
   <v>       0.83333104       0.33333107       0.16666893 </v>
   <v>       0.83333103       0.50000000       0.00000000 </v>
   <v>      -0.00000000       0.66666897       0.00000000 </v>
   <v>      -0.00000000       0.83333104       0.16666893 </v>
   <v>       0.16666893       0.66666896       0.16666893 </v>
   <v>       0.16666893       0.83333104       0.00000000 </v>
   <v>       0.33333107       0.66666896       0.00000000 </v>
   <v>       0.33333107       0.83333104       0.16666893 </v>
   <v>       0.50000000       0.66666896       0.16666893 </v>
   <v>       0.50000000       0.83333103      -0.00000000 </v>
   <v>       0.66666896       0.66666896      -0.00000000 </v>
   <v>       0.66666896       0.83333104       0.16666893 </v>
   <v>       0.83333104       0.66666896       0.16666893 </v>
   <v>       0.83333104       0.83333104       0.00000000 </v>
   <v>      -0.00000000      -0.00000000       0.33333106 </v>
   <v>       0.00000000       0.16666894       0.50000000 </v>
   <v>       0.16666894       0.00000000       0.50000000 </v>
   <v>       0.16666893       0.16666893       0.33333107 </v>
   <v>       0.33333107      -0.00000000       0.33333107 </v>
   <v>       0.33333107       0.16666893       0.50000000 </v>
   <v>       0.50000000       0.00000000       0.50000000 </v>
   <v>       0.50000000       0.16666893       0.33333107 </v>
   <v>       0.66666896      -0.00000000       0.33333107 </v>
   <v>       0.66666896       0.16666893       0.50000000 </v>
   <v>       0.83333103       0.00000000       0.50000000 </v>
   <v>       0.83333104       0.16666893       0.33333107 </v>
   <v>      -0.00000000       0.33333107       0.33333107 </v>
   <v>       0.00000000       0.50000000       0.50000000 </v>
   <v>       0.16666893       0.33333107       0.50000000 </v>
   <v>       0.16666893       0.50000000       0.33333107 </v>
   <v>       0.33333107       0.33333107       0.33333107 </v>
   <v>       0.33333106       0.50000000       0.50000000 </v>
   <v>       0.50000000       0.33333106       0.50000000 </v>
   <v>       0.50000000       0.50000000       0.33333106 </v>
   <v>       0.66666896       0.33333107       0.33333107 </v>
   <v>       0.66666897       0.50000000       0.50000000 </v>
   <v>       0.83333104       0.33333107       0.50000000 </v>
   <v>       0.83333104       0.50000000       0.33333107 </v>
   <v>      -0.00000000       0.66666896       0.33333107 </v>
   <v>      -0.00000000       0.83333103       0.50000000 </v>
   <v>       0.16666893       0.66666896       0.50000000 </v>
   <v>       0.16666893       0.83333104       0.33333107 </v>
   <v>       0.33333107       0.66666896       0.33333107 </v>
   <v>       0.33333107       0.83333104       0.50000000 </v>
   <v>       0.50000000       0.66666897       0.50000000 </v>
   <v>       0.50000000       0.83333104       0.33333107 </v>
   <v>       0.66666896       0.66666896       0.33333107 </v>
   <v>       0.66666896       0.83333104       0.50000000 </v>
   <v>       0.83333104       0.66666896       0.50000000 </v>
   <v>       0.83333104       0.83333104       0.33333107 </v>
   <v>      -0.00000000      -0.00000000       0.66666897 </v>
   <v>       0.00000000       0.16666893       0.83333104 </v>
   <v>       0.16666893      -0.00000000       0.83333104 </v>
   <v>       0.16666893       0.16666893       0.66666896 </v>
   <v>       0.33333107      -0.00000000       0.66666896 </v>
   <v>       0.33333107       0.16666893       0.83333104 </v>
   <v>       0.50000000       0.00000000       0.83333103 </v>
   <v>       0.50000000       0.16666893       0.66666896 </v>
   <v>       0.66666896      -0.00000000       0.66666896 </v>
   <v>       0.66666896       0.16666893       0.83333104 </v>
   <v>       0.83333104       0.00000000       0.83333104 </v>
   <v>       0.83333104       0.16666893       0.66666896 </v>
   <v>      -0.00000000       0.33333107       0.66666896 </v>
   <v>       0.00000000       0.50000000       0.83333103 </v>
   <v>       0.16666893       0.33333107       0.83333104 </v>
   <v>       0.16666893       0.50000000       0.66666896 </v>
   <v>       0.33333107       0.33333107       0.66666896 </v>
   <v>       0.33333107       0.50000000       0.83333104 </v>
   <v>       0.50000000       0.33333107       0.83333104 </v>
   <v>       0.50000000       0.50000000       0.66666897 </v>
   <v>       0.66666896       0.33333107       0.66666896 </v>
   <v>       0.66666896       0.50000000       0.83333104 </v>
   <v>       0.83333104       0.33333107       0.83333104 </v>
   <v>       0.83333104       0.50000000       0.66666896 </v>
   <v>      -0.00000000       0.66666896       0.66666896 </v>
   <v>      -0.00000000       0.83333104       0.83333104 </v>
   <v>       0.16666893       0.66666896       0.83333104 </v>
   <v>       0.16666893       0.83333104       0.66666896 </v>
   <v>       0.33333107       0.66666896       0.66666896 </v>
   <v>       0.33333107       0.83333104       0.83333104 </v>
   <v>       0.50000000       0.66666896       0.83333104 </v>
   <v>       0.50000000       0.83333104       0.66666896 </v>
   <v>       0.66666896       0.66666896       0.66666896 </v>
   <v>       0.66666896       0.83333104       0.83333104 </v>
   <v>       0.83333104       0.66666896       0.83333104 </v>
   <v>       0.83333104       0.83333104       0.66666896 </v>
  </varray>
 </structure>
</modeling>
