       N       E                     dE             d eps       ncg     rms          rms(c)
DAV:   1     0.750858124047E+04    0.75086E+04   -0.28618E+05 32936   0.183E+03
DAV:   2    -0.252367337217E+02   -0.75338E+04   -0.73660E+04 32896   0.456E+02
DAV:   3    -0.841598694438E+03   -0.81636E+03   -0.69766E+03 33200   0.190E+02
DAV:   4    -0.101622847312E+04   -0.17463E+03   -0.16379E+03 60000   0.569E+01
DAV:   5    -0.103121136533E+04   -0.14983E+02   -0.14132E+02 52560   0.216E+01    0.929E+01
RMM:   6    -0.880829713789E+03    0.15038E+03   -0.14023E+03 32896   0.112E+02    0.399E+01
RMM:   7    -0.114228004940E+04   -0.26145E+03   -0.43852E+02 43174   0.351E+01    0.171E+02
RMM:   8    -0.887239905180E+03    0.25504E+03   -0.23286E+02 32896   0.438E+01    0.586E+01
RMM:   9    -0.868211992858E+03    0.19028E+02   -0.68846E+01 33639   0.180E+01    0.199E+01
RMM:  10    -0.870899017285E+03   -0.26870E+01   -0.50744E+01 48330   0.916E+00    0.155E+01
RMM:  11    -0.870488130165E+03    0.41089E+00   -0.11622E+01 38401   0.607E+00    0.164E+01
RMM:  12    -0.869352756973E+03    0.11354E+01   -0.40666E+00 40145   0.343E+00    0.115E+01
RMM:  13    -0.869108042379E+03    0.24471E+00   -0.20100E+00 40596   0.232E+00    0.105E+01
RMM:  14    -0.868506616919E+03    0.60143E+00   -0.17981E+00 34212   0.312E+00    0.631E+00
RMM:  15    -0.868552139254E+03   -0.45522E-01   -0.14136E+00 48378   0.123E+00    0.730E+00
RMM:  16    -0.868448376090E+03    0.10376E+00   -0.35407E-01 37224   0.120E+00    0.658E+00
RMM:  17    -0.868317777925E+03    0.13060E+00   -0.23865E-01 34545   0.109E+00    0.457E+00
RMM:  18    -0.868293544899E+03    0.24233E-01   -0.26059E-01 38262   0.919E-01    0.378E+00
RMM:  19    -0.868227206155E+03    0.66339E-01   -0.14689E-01 34669   0.846E-01    0.104E+00
RMM:  20    -0.868234040321E+03   -0.68342E-02   -0.11371E-01 48911   0.369E-01    0.931E-01
RMM:  21    -0.868236561503E+03   -0.25212E-02   -0.47997E-02 40255   0.341E-01    0.123E+00
RMM:  22    -0.868235767418E+03    0.79409E-03   -0.21360E-02 44477   0.198E-01    0.117E+00
RMM:  23    -0.868234008299E+03    0.17591E-02   -0.76588E-03 36269   0.181E-01    0.100E+00
RMM:  24    -0.868229517860E+03    0.44904E-02   -0.61934E-03 33677   0.197E-01    0.322E-01
RMM:  25    -0.868229597666E+03   -0.79806E-04   -0.34200E-03 47590   0.713E-02    0.236E-01
RMM:  26    -0.868229408943E+03    0.18872E-03   -0.14318E-03 41932   0.563E-02    0.134E-01
RMM:  27    -0.868229345121E+03    0.63822E-04   -0.39812E-04 42547   0.315E-02    0.563E-02
RMM:  28    -0.868229348319E+03   -0.31984E-05   -0.14269E-04 46671   0.176E-02    0.762E-02
RMM:  29    -0.868229296932E+03    0.51387E-04   -0.23857E-05 37607   0.169E-02    0.416E-02
RMM:  30    -0.868229289092E+03    0.78402E-05    0.91845E-07 45818   0.865E-03    0.403E-02
RMM:  31    -0.868229271561E+03    0.17531E-04    0.29890E-05 34727   0.760E-03    0.294E-02
RMM:  32    -0.868229261991E+03    0.95693E-05    0.34409E-05 27792   0.566E-03    0.142E-02
RMM:  33    -0.868229259269E+03    0.27227E-05    0.35218E-05 22372   0.367E-03    0.119E-02
RMM:  34    -0.868229256888E+03    0.23803E-05    0.30311E-05 21214   0.414E-03    0.389E-03
RMM:  35    -0.868229254228E+03    0.26608E-05    0.27899E-05 18954   0.206E-03    0.413E-03
RMM:  36    -0.868229252010E+03    0.22180E-05    0.26940E-05 18554   0.210E-03    0.214E-03
RMM:  37    -0.868229249621E+03    0.23887E-05    0.24232E-05 18169   0.130E-03    0.109E-03
RMM:  38    -0.868229247439E+03    0.21820E-05    0.23691E-05 17642   0.132E-03    0.170E-03
RMM:  39    -0.868229245468E+03    0.19712E-05    0.20999E-05 17371   0.973E-04    0.111E-03
RMM:  40    -0.868229243504E+03    0.19641E-05    0.19880E-05 15607   0.816E-04    0.120E-03
RMM:  41    -0.868229241798E+03    0.17053E-05    0.17474E-05 14384   0.650E-04    0.640E-04
RMM:  42    -0.868229240154E+03    0.16445E-05    0.16341E-05 10894   0.482E-04    0.584E-04
RMM:  43    -0.868229238566E+03    0.15875E-05    0.15779E-05 10634   0.474E-04    0.530E-04
RMM:  44    -0.868229237140E+03    0.14260E-05    0.14117E-05  7809   0.360E-04    0.491E-04
RMM:  45    -0.868229235834E+03    0.13062E-05    0.13015E-05  7807   0.374E-04    0.419E-04
RMM:  46    -0.868229234712E+03    0.11222E-05    0.11268E-05  6965   0.320E-04    0.156E-04
RMM:  47    -0.868229233685E+03    0.10265E-05    0.10170E-05  6380   0.317E-04    0.182E-04
RMM:  48    -0.868229232676E+03    0.10096E-05    0.10071E-05  5977   0.299E-04    0.160E-04
RMM:  49    -0.868229231823E+03    0.85287E-06    0.84350E-06  5740   0.299E-04
   1 F= -.86822923E+03 E0= -.86821237E+03  d E =-.868229E+03
       N       E                     dE             d eps       ncg     rms          rms(c)
DAV:   1    -0.868359522015E+03   -0.13029E+00   -0.45007E+01 32936   0.954E+00    0.246E+00
RMM:   2    -0.871280082338E+03   -0.29206E+01   -0.92476E+00 36150   0.667E+00    0.207E+01
RMM:   3    -0.868470990018E+03    0.28091E+01   -0.18206E+00 32896   0.400E+00    0.395E+00
RMM:   4    -0.868409598074E+03    0.61392E-01   -0.39464E-01 43681   0.799E-01    0.161E+00
RMM:   5    -0.868420774349E+03   -0.11176E-01   -0.15069E-01 44262   0.495E-01    0.186E+00
RMM:   6    -0.868404366641E+03    0.16408E-01   -0.61956E-02 37238   0.441E-01    0.699E-01
RMM:   7    -0.868414639202E+03   -0.10273E-01   -0.62164E-02 40607   0.418E-01    0.159E+00
RMM:   8    -0.868403316426E+03    0.11323E-01   -0.22170E-02 32991   0.354E-01    0.836E-01
RMM:   9    -0.868401566889E+03    0.17495E-02   -0.11710E-02 38762   0.198E-01    0.596E-01
RMM:  10    -0.868401865355E+03   -0.29847E-03   -0.77482E-03 38163   0.162E-01    0.622E-01
RMM:  11    -0.868399914387E+03    0.19510E-02   -0.29013E-03 33870   0.133E-01    0.136E-01
RMM:  12    -0.868400046181E+03   -0.13179E-03   -0.22020E-03 45147   0.581E-02    0.165E-01
RMM:  13    -0.868399950834E+03    0.95347E-04   -0.41401E-04 37233   0.365E-02    0.920E-02
RMM:  14    -0.868399931223E+03    0.19611E-04   -0.18815E-04 40874   0.218E-02    0.608E-02
RMM:  15    -0.868399943152E+03   -0.11929E-04   -0.11034E-04 39461   0.186E-02    0.753E-02
RMM:  16    -0.868399916712E+03    0.26440E-04   -0.34923E-05 33819   0.152E-02    0.278E-02
RMM:  17    -0.868399918969E+03   -0.22564E-05   -0.31826E-05 43144   0.850E-03    0.324E-02
RMM:  18    -0.868399916134E+03    0.28347E-05   -0.10844E-05 33736   0.754E-03    0.202E-02
RMM:  19    -0.868399914146E+03    0.19879E-05   -0.29887E-06 26309   0.530E-03    0.845E-03
RMM:  20    -0.868399914555E+03   -0.40865E-06   -0.19718E-06 23631   0.389E-03
   2 F= -.86839991E+03 E0= -.86838246E+03  d E =-.170683E+00
       N       E                     dE             d eps       ncg     rms          rms(c)
DAV:   1    -0.868451298106E+03   -0.51384E-01   -0.26318E+01 32912   0.727E+00    0.149E+00
RMM:   2    -0.869584483250E+03   -0.11332E+01   -0.31125E+00 35709   0.398E+00    0.138E+01
RMM:   3    -0.868500349597E+03    0.10841E+01   -0.61878E-01 32896   0.232E+00    0.212E+00
RMM:   4    -0.868479694952E+03    0.20655E-01   -0.15820E-01 43898   0.510E-01    0.915E-01
RMM:   5    -0.868485739485E+03   -0.60445E-02   -0.70172E-02 43597   0.365E-01    0.135E+00
RMM:   6    -0.868476246981E+03    0.94925E-02   -0.23398E-02 35845   0.303E-01    0.444E-01
RMM:   7    -0.868483246725E+03   -0.69997E-02   -0.32685E-02 40396   0.304E-01    0.126E+00
RMM:   8    -0.868476455754E+03    0.67910E-02   -0.98085E-03 33124   0.230E-01    0.662E-01
RMM:   9    -0.868474406121E+03    0.20496E-02   -0.57401E-03 35544   0.159E-01    0.239E-01
RMM:  10    -0.868475101068E+03   -0.69495E-03   -0.51035E-03 41203   0.115E-01    0.406E-01
RMM:  11    -0.868474253245E+03    0.84782E-03   -0.13594E-03 34479   0.866E-02    0.962E-02
RMM:  12    -0.868474313612E+03   -0.60367E-04   -0.10520E-03 47503   0.344E-02    0.107E-01
RMM:  13    -0.868474275185E+03    0.38427E-04   -0.16360E-04 36844   0.243E-02    0.677E-02
RMM:  14    -0.868474262199E+03    0.12986E-04   -0.79998E-05 39610   0.155E-02    0.407E-02
RMM:  15    -0.868474271613E+03   -0.94139E-05   -0.61809E-05 41284   0.130E-02    0.570E-02
RMM:  16    -0.868474257172E+03    0.14441E-04   -0.22055E-05 33596   0.116E-02    0.207E-02
RMM:  17    -0.868474257234E+03   -0.62500E-07   -0.16828E-05 38731   0.646E-03    0.183E-02
RMM:  18    -0.868474257531E+03   -0.29695E-06   -0.68874E-06 30435   0.568E-03
   3 F= -.86847426E+03 E0= -.86845666E+03  d E =-.743430E-01
       N       E                     dE             d eps       ncg     rms          rms(c)
DAV:   1    -0.868490488558E+03   -0.16231E-01   -0.11306E+01 33116   0.477E+00    0.597E-01
RMM:   2    -0.868670713050E+03   -0.18022E+00   -0.46120E-01 35099   0.165E+00    0.559E+00
RMM:   3    -0.868507480699E+03    0.16323E+00   -0.91536E-02 32896   0.878E-01    0.808E-01
RMM:   4    -0.868503017143E+03    0.44636E-02   -0.31627E-02 43932   0.247E-01    0.419E-01
RMM:   5    -0.868503393164E+03   -0.37602E-03   -0.13575E-02 42633   0.169E-01    0.647E-01
RMM:   6    -0.868500938159E+03    0.24550E-02   -0.62819E-03 34837   0.174E-01    0.259E-01
RMM:   7    -0.868504613888E+03   -0.36757E-02   -0.14763E-02 37949   0.226E-01    0.910E-01
RMM:   8    -0.868500460669E+03    0.41532E-02   -0.39324E-03 32900   0.169E-01    0.255E-01
RMM:   9    -0.868500248675E+03    0.21199E-03   -0.20786E-03 40636   0.670E-02    0.115E-01
RMM:  10    -0.868500352230E+03   -0.10356E-03   -0.96779E-04 43032   0.483E-02    0.177E-01
RMM:  11    -0.868500199054E+03    0.15318E-03   -0.25848E-04 34580   0.366E-02    0.460E-02
RMM:  12    -0.868500211142E+03   -0.12088E-04   -0.20312E-04 48757   0.146E-02    0.521E-02
RMM:  13    -0.868500200283E+03    0.10859E-04   -0.32486E-05 35793   0.118E-02    0.261E-02
RMM:  14    -0.868500199441E+03    0.84220E-06   -0.19280E-05 39146   0.687E-03    0.199E-02
RMM:  15    -0.868500202465E+03   -0.30240E-05   -0.14349E-05 36144   0.734E-03    0.294E-02
RMM:  16    -0.868500198494E+03    0.39705E-05   -0.50834E-06 26768   0.612E-03    0.878E-03
RMM:  17    -0.868500198468E+03    0.25750E-07   -0.19413E-06 20588   0.290E-03
   4 F= -.86850020E+03 E0= -.86848282E+03  d E =-.259409E-01
       N       E                     dE             d eps       ncg     rms          rms(c)
DAV:   1    -0.868505767596E+03   -0.55691E-02   -0.99170E+00 32896   0.447E+00    0.446E-01
RMM:   2    -0.868584619447E+03   -0.78852E-01   -0.23669E-01 33826   0.130E+00    0.357E+00
RMM:   3    -0.868518761893E+03    0.65858E-01   -0.42466E-02 32896   0.576E-01    0.548E-01
RMM:   4    -0.868517055040E+03    0.17069E-02   -0.16221E-02 45163   0.184E-01    0.368E-01
RMM:   5    -0.868516403582E+03    0.65146E-03   -0.64564E-03 41134   0.128E-01    0.489E-01
RMM:   6    -0.868514969994E+03    0.14336E-02   -0.43173E-03 33812   0.154E-01    0.269E-01
RMM:   7    -0.868516712917E+03   -0.17429E-02   -0.85736E-03 37818   0.172E-01    0.668E-01
RMM:   8    -0.868514436174E+03    0.22767E-02   -0.22112E-03 32901   0.127E-01    0.166E-01
RMM:   9    -0.868514371783E+03    0.64391E-04   -0.12850E-03 43752   0.502E-02    0.933E-02
RMM:  10    -0.868514367624E+03    0.41593E-05   -0.40508E-04 42008   0.303E-02    0.102E-01
RMM:  11    -0.868514317078E+03    0.50546E-04   -0.10787E-04 36030   0.211E-02    0.304E-02
RMM:  12    -0.868514322957E+03   -0.58788E-05   -0.80908E-05 47506   0.108E-02    0.405E-02
RMM:  13    -0.868514315446E+03    0.75108E-05   -0.18064E-05 35153   0.934E-03    0.171E-02
RMM:  14    -0.868514315725E+03   -0.27951E-06   -0.11165E-05 34180   0.545E-03    0.163E-02
RMM:  15    -0.868514317659E+03   -0.19337E-05   -0.87103E-06 32815   0.569E-03    0.238E-02
RMM:  16    -0.868514315087E+03    0.25723E-05   -0.30813E-06 21311   0.511E-03    0.626E-03
RMM:  17    -0.868514315111E+03   -0.24025E-07   -0.12686E-06 18462   0.238E-03
   5 F= -.86851432E+03 E0= -.86849718E+03  d E =-.141166E-01
       N       E                     dE             d eps       ncg     rms          rms(c)
DAV:   1    -0.868521011115E+03   -0.66960E-02   -0.22737E+00 33680   0.213E+00    0.190E-01
RMM:   2    -0.868533503548E+03   -0.12492E-01   -0.44947E-02 33030   0.575E-01    0.143E+00
RMM:   3    -0.868523700723E+03    0.98028E-02   -0.80723E-03 32896   0.246E-01    0.232E-01
RMM:   4    -0.868523497105E+03    0.20362E-03   -0.30633E-03 47392   0.749E-02    0.157E-01
RMM:   5    -0.868523337034E+03    0.16007E-03   -0.13003E-03 41304   0.574E-02    0.235E-01
RMM:   6    -0.868523004701E+03    0.33233E-03   -0.10417E-03 33082   0.760E-02    0.138E-01
RMM:   7    -0.868523614739E+03   -0.61004E-03   -0.22182E-03 36486   0.920E-02    0.375E-01
RMM:   8    -0.868522900558E+03    0.71418E-03   -0.67926E-04 32897   0.732E-02    0.673E-02
RMM:   9    -0.868522889878E+03    0.10679E-04   -0.24711E-04 45301   0.204E-02    0.349E-02
RMM:  10    -0.868522893637E+03   -0.37592E-05   -0.79423E-05 44585   0.117E-02    0.429E-02
RMM:  11    -0.868522884996E+03    0.86411E-05   -0.18347E-05 35803   0.817E-03    0.154E-02
RMM:  12    -0.868522885327E+03   -0.33022E-06   -0.11562E-05 34210   0.448E-03    0.154E-02
RMM:  13    -0.868522884292E+03    0.10347E-05   -0.31958E-06 21635   0.453E-03    0.877E-03
RMM:  14    -0.868522884086E+03    0.20592E-06   -0.17076E-06 18686   0.355E-03
   6 F= -.86852288E+03 E0= -.86850591E+03  d E =-.856898E-02
       N       E                     dE             d eps       ncg     rms          rms(c)
DAV:   1    -0.868527147529E+03   -0.42632E-02   -0.98483E-01 33448   0.140E+00    0.147E-01
RMM:   2    -0.868537908551E+03   -0.10761E-01   -0.26635E-02 34484   0.414E-01    0.140E+00
RMM:   3    -0.868528368960E+03    0.95396E-02   -0.54523E-03 32896   0.211E-01    0.165E-01
RMM:   4    -0.868528177327E+03    0.19163E-03   -0.18180E-03 45490   0.605E-02    0.115E-01
RMM:   5    -0.868528141938E+03    0.35389E-04   -0.72130E-04 41961   0.404E-02    0.181E-01
RMM:   6    -0.868527962164E+03    0.17977E-03   -0.42250E-04 33320   0.483E-02    0.837E-02
RMM:   7    -0.868528220272E+03   -0.25811E-03   -0.10172E-03 36733   0.621E-02    0.241E-01
RMM:   8    -0.868527919643E+03    0.30063E-03   -0.29220E-04 32896   0.477E-02    0.566E-02
RMM:   9    -0.868527908851E+03    0.10792E-04   -0.12034E-04 42701   0.154E-02    0.253E-02
RMM:  10    -0.868527916449E+03   -0.75986E-05   -0.54133E-05 44138   0.104E-02    0.439E-02
RMM:  11    -0.868527906955E+03    0.94939E-05   -0.14740E-05 33843   0.857E-03    0.114E-02
RMM:  12    -0.868527907310E+03   -0.35468E-06   -0.86977E-06 30936   0.389E-03
   7 F= -.86852791E+03 E0= -.86851105E+03  d E =-.502322E-02
       N       E                     dE             d eps       ncg     rms          rms(c)
DAV:   1    -0.868529284068E+03   -0.13771E-02   -0.15387E-01 34160   0.555E-01    0.680E-02
RMM:   2    -0.868532076282E+03   -0.27922E-02   -0.62145E-03 35566   0.183E-01    0.716E-01
RMM:   3    -0.868529484495E+03    0.25918E-02   -0.13254E-03 32896   0.104E-01    0.784E-02
RMM:   4    -0.868529431657E+03    0.52838E-04   -0.46629E-04 43142   0.292E-02    0.493E-02
RMM:   5    -0.868529426257E+03    0.53994E-05   -0.17699E-04 44875   0.167E-02    0.688E-02
RMM:   6    -0.868529405126E+03    0.21132E-04   -0.76476E-05 34508   0.192E-02    0.383E-02
RMM:   7    -0.868529441949E+03   -0.36823E-04   -0.16301E-04 38351   0.232E-02    0.963E-02
RMM:   8    -0.868529394498E+03    0.47451E-04   -0.43380E-05 32896   0.180E-02    0.244E-02
RMM:   9    -0.868529392991E+03    0.15067E-05   -0.22995E-05 38496   0.734E-03    0.146E-02
RMM:  10    -0.868529393945E+03   -0.95385E-06   -0.83606E-06 30599   0.484E-03
   8 F= -.86852939E+03 E0= -.86851257E+03  d E =-.148663E-02
