NEB                                     
           1
    10.334847    0.000000    0.000000
     0.000000   10.334847    0.000000
     0.000000    0.000000   10.334847
   Fe
 107
Direct configuration=     1
   0.99995806  0.00000074  0.00012434
   0.99993626  0.16648002  0.16660513
   0.00004790  0.33376692  0.99985483
   0.00049821  0.49999927  0.16716656
   0.00004783  0.66623237  0.99985480
   0.99993623  0.83352069  0.16660521
   0.00004778  0.00000071  0.33331836
   0.00049819  0.16731121  0.50032455
   0.99997159  0.33362314  0.33344424
   0.00045885  0.49999924  0.50034269
   0.99997153  0.66637620  0.33344427
   0.00049825  0.83268949  0.50032451
   0.00004784  0.00000070  0.66655689
   0.99993630  0.16674972  0.83307019
   0.99997169  0.33364051  0.66670067
   0.00049835  0.49999922  0.83249059
   0.99997169  0.66635882  0.66670061
   0.99993630  0.83325105  0.83307014
   0.16665190  0.00000074  0.16671662
   0.16658699  0.16652667  0.00018952
   0.16658697  0.83347418  0.00018950
   0.16682828  0.33346955  0.49989333
   0.16840778  0.49999952  0.33507415
   0.16682816  0.66652986  0.49989328
   0.16692164  0.00000068  0.83295861
   0.16828985  0.49999916  0.66642191
   0.16677776  0.33362282  0.16664027
   0.16677774  0.66637646  0.16664032
   0.16644336  0.16645048  0.33310915
   0.16644334  0.83355030  0.33310925
   0.16812686  0.16813384  0.66670032
   0.16654903  0.33319069  0.83346595
   0.16654892  0.66680868  0.83346593
   0.16812683  0.83186699  0.66670018
   0.16827846  0.49999921  0.99850348
   0.16692767  0.00000063  0.50032463
   0.33366037  0.00000073  0.99985478
   0.33366041  0.16731075  0.16716625
   0.33366041  0.83269004  0.16716622
   0.33322780  0.33346969  0.33349422
   0.33322769  0.66652963  0.33349411
   0.33322838  0.16708205  0.83293997
   0.33406405  0.33430493  0.66642432
   0.33406294  0.66569450  0.66642448
   0.33322827  0.83291890  0.83293996
   0.33322854  0.33334091  0.00008354
   0.33367795  0.49999919  0.16712748
   0.33322852  0.66665840  0.00008362
   0.33366043  0.00000073  0.33359399
   0.33322850  0.16704351  0.49989361
   0.33322830  0.83295742  0.49989356
   0.33367780  0.00000068  0.66655098
   0.33406484  0.49999912  0.83214068
   0.49989229  0.00000074  0.16671652
   0.49989218  0.16821207  0.99850344
   0.50003594  0.33364056  0.16664022
   0.49988623  0.49999913  0.99862220
   0.50003597  0.66635874  0.16664018
   0.49989226  0.83178878  0.99850335
   0.49988625  0.00000067  0.50034275
   0.50003589  0.16813574  0.33479562
   0.49975748  0.33430540  0.50073121
   0.49975656  0.49999929  0.33495654
   0.49975794  0.66569286  0.50073104
   0.50003594  0.83186510  0.33479551
   0.49989223  0.00000069  0.83294054
   0.50003591  0.16801773  0.66670069
   0.50003664  0.33402664  0.83262811
   0.50003665  0.66597269  0.83262832
   0.50003590  0.83198339  0.66670067
   0.66672348  0.33333519  0.00008361
   0.66582373  0.49999922  0.16716658
   0.66672358  0.66666423  0.00008373
   0.66629172  0.00000064  0.33358815
   0.66627325  0.16708237  0.49989359
   0.66627326  0.83291816  0.49989346
   0.66627430  0.00000064  0.66655671
   0.66543660  0.49999909  0.83210126
   0.66640352  0.16674955  0.16660509
   0.66640355  0.83325119  0.16660504
   0.66679958  0.33319137  0.33321582
   0.66679975  0.66680802  0.33321562
   0.66683551  0.16652084  0.83350107
   0.66596424  0.33402641  0.66670312
   0.66596452  0.66597293  0.66670315
   0.66683560  0.83348009  0.83350122
   0.66638153  0.00000064  0.99985482
   0.66547675  0.49999828  0.50073120
   0.83183521  0.49999928  0.99850350
   0.83318600  0.00000065  0.50032455
   0.83318623  0.33376684  0.16671657
   0.83318622  0.66623248  0.16671658
   0.83352066  0.16652665  0.33325318
   0.83352061  0.83347407  0.33325323
   0.83183717  0.16820997  0.66655618
   0.83341500  0.33333464  0.83338969
   0.83341512  0.66666472  0.83338977
   0.83183717  0.83179082  0.66655605
   0.83345574  0.00000071  0.16662686
   0.83352071  0.16643678  0.00018956
   0.83352064  0.83356399  0.00018958
   0.83341491  0.33334073  0.49989351
   0.83183543  0.49999930  0.33494518
   0.83341510  0.66665864  0.49989340
   0.83318603  0.00000070  0.83304844
   0.83195348  0.49999915  0.66655082
   0.37548949  0.49999911  0.54215414
Direct configuration=     2
   0.99987809  0.00000039  0.00019139
   0.99983568  0.16640132  0.16650363
   0.00003155  0.33380670  0.99990193
   0.00153983  0.49999964  0.16820726
   0.00003149  0.66619296  0.99990192
   0.99983567  0.83359907  0.16650367
   0.00012285  0.00000038  0.33339653
   0.00110623  0.16788691  0.50023186
   1.00008869  0.33356129  0.33355117
   0.00101856  0.49999959  0.50012858
   1.00008863  0.66643837  0.33355111
   0.00110620  0.83211345  0.50023181
   0.00002435  0.00000042  0.66652385
   0.99995115  0.16672329  0.83312813
   1.00031705  0.33369633  0.66673578
   0.00062247  0.49999962  0.83247714
   1.00031702  0.66630329  0.66673575
   0.99995113  0.83327711  0.83312811
   0.16672998  0.00000039  0.16679072
   0.16666804  0.16656844  0.00023892
   0.16666804  0.83343200  0.00023891
   0.16731633  0.33418138  0.49995522
   0.16786383  0.49999984  0.33453048
   0.16731628  0.66581835  0.49995518
   0.16690210  0.00000039  0.83284275
   0.16818407  0.49999957  0.66580674
   0.16688455  0.33356112  0.16675639
   0.16688454  0.66643854  0.16675639
   0.16639993  0.16650127  0.33306601
   0.16639993  0.83349918  0.33306603
   0.16784053  0.16800455  0.66677053
   0.16657811  0.33303367  0.83351718
   0.16657806  0.66696599  0.83351721
   0.16784047  0.83199594  0.66677044
   0.16858418  0.49999963  0.99788339
   0.16698168  0.00000035  0.50040313
   0.33359961  0.00000041  0.99942410
   0.33356680  0.16788668  0.16777339
   0.33356679  0.83211375  0.16777332
   0.33328919  0.33418148  0.33398270
   0.33328916  0.66581826  0.33398260
   0.33320967  0.16670595  0.83342775
   0.33392958  0.33013202  0.66887403
   0.33392914  0.66986760  0.66887385
   0.33320963  0.83329450  0.83342769
   0.33323243  0.33330176 -0.00016876
   0.33346316  0.49999960  0.16768623
   0.33323242  0.66669789 -0.00016874
   0.33373800  0.00000038  0.33364825
   0.33324659  0.16728963  0.49991242
   0.33324660  0.83271074  0.49991239
   0.33367001  0.00000036  0.66666237
   0.33423606  0.49999913  0.83223587
   0.49985856  0.00000039  0.16669219
   0.49982597  0.16836523  0.99828413
   0.50007030  0.33369645  0.16698472
   0.49990444  0.49999959  0.99842478
   0.50007030  0.66630319  0.16698470
   0.49982598  0.83163520  0.99828403
   0.49999689  0.00000031  0.50033567
   0.50010508  0.16800559  0.33450842
   0.50220729  0.33013255  0.50059715
   0.49914081  0.49999967  0.33485095
   0.50220743  0.66986646  0.50059723
   0.50010510  0.83199481  0.33450835
   0.49984840  0.00000035  0.83299267
   0.50022515  0.16790559  0.66689072
   0.50027731  0.33398933  0.83296973
   0.50027729  0.66601042  0.83296975
   0.50022511  0.83209485  0.66689064
   0.66676534  0.33336504  0.00007123
   0.66581023  0.49999960  0.16728980
   0.66676537  0.66663462  0.00007126
   0.66617585  0.00000035  0.33356887
   0.66676094  0.16670631  0.49987552
   0.66676085  0.83329379  0.49987546
   0.66632630  0.00000031  0.66651363
   0.66551196  0.49999959  0.83217782
   0.66646143  0.16672329  0.16661899
   0.66646143  0.83327705  0.16661899
   0.66685051  0.33303425  0.33324535
   0.66685056  0.66696536  0.33324530
   0.66678746  0.16655595  0.83345339
   0.66630473  0.33398866  0.66694353
   0.66630487  0.66601106  0.66694352
   0.66678751  0.83344447  0.83345341
   0.66641781  0.00000039  0.99987065
   0.66557146  0.49999917  0.50090206
   0.83153279  0.49999965  0.99820012
   0.83275631  0.00000035  0.50026471
   0.83323416  0.33380674  0.16669934
   0.83323420  0.66619294  0.16669930
   0.83357008  0.16656833  0.33333469
   0.83357005  0.83343205  0.33333471
   0.83161786  0.16836416  0.66649096
   0.83340377  0.33336469  0.83343176
   0.83340384  0.66663497  0.83343180
   0.83161786  0.83163621  0.66649085
   0.83352362  0.00000039  0.16654598
   0.83356655  0.16641879  0.00023445
   0.83356655  0.83358161  0.00023447
   0.83316368  0.33330157  0.49989809
   0.83121615  0.49999962  0.33525108
   0.83316366  0.66669801  0.49989806
   0.83320286  0.00000039  0.83308466
   0.83175745  0.49999960  0.66656987
   0.37547134  0.49999977  0.54213710
Direct configuration=     3
   0.99986006  0.00000058  0.00026891
   0.99978322  0.16631636  0.16645045
  -0.00002629  0.33394666  1.00008647
   0.00217029  0.49999947  0.16883717
  -0.00002630  0.66605285  1.00008636
   0.99978319  0.83368424  0.16645051
   0.00028916  0.00000056  0.33350194
   0.00152202  0.16822685  0.50024784
   1.00011801  0.33346431  0.33364332
   0.00127463  0.49999945  0.50005289
   1.00011794  0.66653521  0.33364334
   0.00152197  0.83177369  0.50024777
  -0.00017999  0.00000057  0.66643665
   0.99990079  0.16674873  0.83313596
   1.00062516  0.33388351  0.66676378
   0.00082618  0.49999951  0.83251716
   1.00062521  0.66611601  0.66676376
   0.99990084  0.83325178  0.83313590
   0.16683508  0.00000061  0.16695632
   0.16668514  0.16659867  0.00036208
   0.16668505  0.83340198  0.00036201
   0.16804278  0.33480119  0.50018088
   0.16739307  0.49999961  0.33406022
   0.16804268  0.66519838  0.50018081
   0.16682010  0.00000059  0.83277819
   0.16871588  0.49999945  0.66520242
   0.16697652  0.33346423  0.16678501
   0.16697650  0.66653526  0.16678504
   0.16638880  0.16652183  0.33305535
   0.16638881  0.83347880  0.33305541
   0.16746966  0.16768408  0.66677900
   0.16653907  0.33291242  0.83366094
   0.16653899  0.66708705  0.83366091
   0.16746955  0.83231656  0.66677888
   0.16882872  0.49999946  0.99737722
   0.16685126  0.00000049  0.50045151
   0.33358280  0.00000060  0.99966639
   0.33358173  0.16822687  0.16818868
   0.33358178  0.83177377  0.16818863
   0.33351423  0.33480117  0.33470965
   0.33351432  0.66519844  0.33470960
   0.33317950  0.16601627  0.83427522
   0.33312777  0.32696924  0.66971162
   0.33312756  0.67303030  0.66971155
   0.33317943  0.83398438  0.83427513
   0.33327262  0.33336509 -0.00030015
   0.33338651  0.49999940  0.16794155
   0.33327257  0.66663437 -0.00030021
   0.33378541  0.00000052  0.33351818
   0.33323685  0.16741245  0.49990347
   0.33323700  0.83258803  0.49990345
   0.33365481  0.00000053  0.66667852
   0.33458596  0.49999868  0.83183192
   0.49977059  0.00000049  0.16648721
   0.49986025  0.16852126  0.99814667
   0.50009760  0.33388360  0.16729218
   0.49989289  0.49999931  0.99824055
   0.50009766  0.66611597  0.16729230
   0.49986026  0.83147946  0.99814666
   0.50001238  0.00000040  0.50032138
   0.50011265  0.16768463  0.33413719
   0.50304477  0.32696985  0.49979568
   0.49853602  0.49999957  0.33538307
   0.50304382  0.67302828  0.49979578
   0.50011274  0.83231582  0.33413724
   0.49992689  0.00000057  0.83336118
   0.50053831  0.16758116  0.66720467
   0.50049489  0.33395481  0.83326156
   0.50049483  0.66604470  0.83326151
   0.50053826  0.83241941  0.66720440
   0.66688625  0.33331850  0.00022805
   0.66585065  0.49999942  0.16749297
   0.66688625  0.66668100  0.00022811
   0.66611143  0.00000045  0.33348723
   0.66760869  0.16601641  0.49984621
   0.66760852  0.83398392  0.49984608
   0.66669499  0.00000050  0.66659280
   0.66573097  0.49999938  0.83239689
   0.66646944  0.16674893  0.16656791
   0.66646939  0.83325162  0.16656802
   0.66699432  0.33291299  0.33320652
   0.66699424  0.66708656  0.33320663
   0.66685775  0.16656757  0.83352364
   0.66659615  0.33395435  0.66716129
   0.66659626  0.66604521  0.66716112
   0.66685775  0.83343308  0.83352364
   0.66635513  0.00000059  0.99984005
   0.66516728  0.49999937  0.50125203
   0.83122405  0.49999944  0.99789060
   0.83299953  0.00000049  0.50024899
   0.83341952  0.33394683  0.16664088
   0.83341953  0.66605271  0.16664092
   0.83369497  0.16659874  0.33335200
   0.83369489  0.83340181  0.33335205
   0.83148071  0.16852068  0.66652618
   0.83356149  0.33331831  0.83355248
   0.83356166  0.66668116  0.83355247
   0.83148077  0.83147985  0.66652599
   0.83360207  0.00000056  0.16652723
   0.83364550  0.16642958  0.00031239
   0.83364556  0.83357104  0.00031243
   0.83303322  0.33336506  0.49993917
   0.83071078  0.49999949  0.33549569
   0.83303316  0.66663440  0.49993908
   0.83317327  0.00000063  0.83302161
   0.83157414  0.49999942  0.66655904
   0.37473816  0.49999955  0.54140490
Direct configuration=     4
   0.99991047  0.00000019  0.00029072
   0.99977863  0.16625215  0.16644560
  -0.00006888  0.33410883  1.00035503
   0.00246266  0.49999990  0.16912913
  -0.00006882  0.66589110  1.00035492
   0.99977863  0.83374806  0.16644566
   0.00050815  0.00000020  0.33359252
   0.00174285  0.16840807  0.50028004
   1.00010924  0.33335455  0.33369010
   0.00135834  0.49999985  0.50004892
   1.00010930  0.66664535  0.33369007
   0.00174293  0.83159211  0.50027998
  -0.00060212  0.00000010  0.66641762
   0.99982063  0.16678475  0.83320484
   1.00084866  0.33414785  0.66678409
   0.00107777  0.49999989  0.83260614
   1.00084888  0.66585211  0.66678405
   0.99982074  0.83321541  0.83320476
   0.16692588  0.00000022  0.16717509
   0.16664547  0.16662245  0.00051011
   0.16664555  0.83337766  0.00050995
   0.16875103  0.33533598  0.50042446
   0.16703350  0.49999992  0.33370023
   0.16875100  0.66466404  0.50042446
   0.16668067  0.00000007  0.83284768
   0.16946265  0.49999992  0.66481951
   0.16702348  0.33335462  0.16677600
   0.16702350  0.66664529  0.16677587
   0.16636715  0.16658116  0.33303361
   0.16636716  0.83341910  0.33303367
   0.16685166  0.16705533  0.66679684
   0.16652867  0.33284236  0.83383220
   0.16652882  0.66715616  0.83383184
   0.16685171  0.83294480  0.66679681
   0.16897160  0.49999997  0.99702059
   0.16654211  0.00000007  0.50045671
   0.33354786  0.00000020  1.00039273
   0.33361394  0.16840804  0.16840938
   0.33361385  0.83159211  0.16840915
   0.33375786  0.33533598  0.33541776
   0.33375773  0.66466395  0.33541756
   0.33318371  0.16532375  0.83508679
   0.33288843  0.32569061  0.66943262
   0.33288809  0.67430941  0.66943273
   0.33318354  0.83467629  0.83508669
   0.33333311  0.33354806 -0.00036019
   0.33338231  0.49999991  0.16802496
   0.33333304  0.66645178 -0.00036037
   0.33379037  0.00000015  0.33320883
   0.33316270  0.16718519  0.49982919
   0.33316258  0.83281495  0.49982932
   0.33367591  0.00000008  0.66669119
   0.33503303  0.49999991  0.83087808
   0.49975145  0.00000024  0.16606485
   0.49994446  0.16865903  0.99820603
   0.50011766  0.33414785  0.16751553
   0.49986375  0.49999994  0.99818135
   0.50011760  0.66585190  0.16751539
   0.49994437  0.83134104  0.99820578
   0.50002475  0.00000019  0.50034250
   0.50013044  0.16705566  0.33351881
   0.50276580  0.32569106  0.49955578
   0.49815279  0.49999976  0.33612943
   0.50276579  0.67430887  0.49955600
   0.50013034  0.83294449  0.33351882
   0.50005634  0.00000010  0.83382249
   0.50086230  0.16719556  0.66752876
   0.50053652  0.33391270  0.83323100
   0.50053641  0.66608728  0.83323102
   0.50086213  0.83280454  0.66752872
   0.66696218  0.33323185  0.00044761
   0.66593941  0.49999988  0.16774426
   0.66696219  0.66676799  0.00044757
   0.66618056  0.00000041  0.33334778
   0.66842011  0.16532394  0.49985021
   0.66841995  0.83467611  0.49985025
   0.66715604  0.00000013  0.66672263
   0.66593666  0.49999989  0.83260302
   0.66653820  0.16678473  0.16648764
   0.66653828  0.83321543  0.16648758
   0.66716497  0.33284381  0.33319587
   0.66716491  0.66715591  0.33319584
   0.66701161  0.16660360  0.83367790
   0.66656509  0.33391219  0.66720295
   0.66656516  0.66608775  0.66720300
   0.66701166  0.83339652  0.83367790
   0.66634872  0.00000021  0.99985172
   0.66421224  0.49999970  0.50169944
   0.83103741  0.49999993  0.99770399
   0.83372582  0.00000013  0.50021413
   0.83368808  0.33410880  0.16659806
   0.83368805  0.66589105  0.16659794
   0.83384304  0.16662253  0.33331218
   0.83384307  0.83337775  0.33331214
   0.83153973  0.16865891  0.66661028
   0.83378109  0.33323182  0.83362869
   0.83378102  0.66676812  0.83362869
   0.83153980  0.83134133  0.66661030
   0.83362371  0.00000022  0.16657748
   0.83376594  0.16644001  0.00043290
   0.83376590  0.83356016  0.00043281
   0.83297321  0.33354778  0.49999968
   0.83035411  0.49999979  0.33563814
   0.83297321  0.66645199  0.49999971
   0.83318483  0.00000013  0.83301532
   0.83151494  0.49999979  0.66653029
   0.37451810  0.49999958  0.54118538
Direct configuration=     5
   1.00001012 -0.00000013  0.00029812
   0.99979659  0.16619711  0.16646306
  -0.00002196  0.33426100  1.00056449
   0.00266312  0.50000011  0.16932946
  -0.00002197  0.66573912  1.00056439
   0.99979657  0.83380287  0.16646305
   0.00075208 -0.00000002  0.33362574
   0.00196632  0.16875117  0.50031580
   1.00012995  0.33323864  0.33376790
   0.00142286  0.50000008  0.50005743
   1.00012989  0.66676146  0.33376786
   0.00196626  0.83124877  0.50031568
  -0.00105501 -0.00000007  0.66652944
   0.99979645  0.16688229  0.83336081
   1.00108653  0.33444777  0.66682110
   0.00138617  0.50000005  0.83265809
   1.00108649  0.66555227  0.66682103
   0.99979649  0.83311763  0.83336080
   0.16695930 -0.00000013  0.16741862
   0.16657466  0.16670252  0.00064568
   0.16657467  0.83329738  0.00064558
   0.16939394  0.33577495  0.50060597
   0.16672562  0.50000003  0.33339222
   0.16939391  0.66422512  0.50060591
   0.16654315 -0.00000012  0.83301978
   0.17019053  0.50000002  0.66459346
   0.16710145  0.33323863  0.16679638
   0.16710143  0.66676146  0.16679621
   0.16632568  0.16674766  0.33299195
   0.16632568  0.83325238  0.33299188
   0.16636846  0.16650899  0.66685292
   0.16660558  0.33266198  0.83392933
   0.16660558  0.66733772  0.83392932
   0.16636841  0.83349102  0.66685298
   0.16919177  0.50000005  0.99663629
   0.16620145 -0.00000007  0.50043643
   0.33344768 -0.00000009  1.00112155
   0.33364919  0.16875115  0.16863259
   0.33364917  0.83124878  0.16863238
   0.33393926  0.33577467  0.33606080
   0.33393908  0.66422527  0.33606036
   0.33316329  0.16482268  0.83568206
   0.33285372  0.32454697  0.66929962
   0.33285367  0.67545294  0.66929953
   0.33316320  0.83517721  0.83568212
   0.33340384  0.33379103 -0.00046030
   0.33339061  0.50000009  0.16808912
   0.33340383  0.66620902 -0.00046037
   0.33376973 -0.00000006  0.33286789
   0.33301885  0.16670087  0.49968569
   0.33301885  0.83329904  0.49968567
   0.33370172 -0.00000005  0.66675096
   0.33560100  0.50000023  0.82979086
   0.49986273 -0.00000004  0.16561144
   0.50003866  0.16894647  0.99826406
   0.50015426  0.33444783  0.16775285
   0.49985141  0.50000014  0.99816230
   0.50015422  0.66555228  0.16775269
   0.50003863  0.83105338  0.99826391
   0.50008387 -0.00000000  0.50036869
   0.50018602  0.16650908  0.33303512
   0.50263254  0.32454725  0.49952090
   0.49792637  0.50000004  0.33685716
   0.50263266  0.67545307  0.49952091
   0.50018600  0.83349084  0.33303509
   0.50020838 -0.00000011  0.83430269
   0.50116760  0.16676356  0.66783459
   0.50052729  0.33388811  0.83306813
   0.50052725  0.66611199  0.83306810
   0.50116757  0.83323628  0.66783457
   0.66697368  0.33316342  0.00060116
   0.66599129  0.50000008  0.16805239
   0.66697368  0.66683671  0.00060111
   0.66635277  0.00000006  0.33320987
   0.66901534  0.16482278  0.49983000
   0.66901537  0.83517715  0.49983006
   0.66763605 -0.00000009  0.66687522
   0.66608710  0.50000011  0.83275375
   0.66669406  0.16688240  0.16646307
   0.66669406  0.83311753  0.16646303
   0.66726243  0.33266241  0.33327230
   0.66726242  0.66733767  0.33327230
   0.66721745  0.16670280  0.83388396
   0.66640167  0.33388788  0.66719414
   0.66640174  0.66611227  0.66719414
   0.66721751  0.83329707  0.83388395
   0.66645646 -0.00000009  0.99986868
   0.66312428  0.50000006  0.50226788
   0.83091200  0.50000015  0.99757839
   0.83445495 -0.00000006  0.50011429
   0.83389776  0.33426105  0.16664468
   0.83389777  0.66573907  0.16664454
   0.83397899  0.16670269  0.33324120
   0.83397895  0.83329727  0.33324118
   0.83159774  0.16894644  0.66670523
   0.83393472  0.33316337  0.83364038
   0.83393473  0.66683670  0.83364037
   0.83159776  0.83105345  0.66670515
   0.83363136 -0.00000006  0.16667675
   0.83392399  0.16645769  0.00059058
   0.83392398  0.83354222  0.00059055
   0.83287343  0.33379103  0.50007046
   0.82996994  0.50000006  0.33585813
   0.83287340  0.66620905  0.50007048
   0.83320202 -0.00000016  0.83312316
   0.83149599  0.50000012  0.66651830
   0.37419051  0.50000010  0.54085802
Direct configuration=     6
   1.00010402  0.00000008  0.00030323
   0.99982887  0.16618805  0.16649507
   0.00007457  0.33437775  1.00058888
   0.00262041  0.49999990  0.16928664
   0.00007455  0.66562214  1.00058876
   0.99982885  0.83381204  0.16649512
   0.00085861  0.00000012  0.33362264
   0.00199493  0.16904018  0.50036566
   1.00014568  0.33326321  0.33384498
   0.00145160  0.49999987  0.50008212
   1.00014564  0.66673667  0.33384495
   0.00199495  0.83095992  0.50036554
  -0.00127767  0.00000009  0.66667891
   0.99984959  0.16698238  0.83345927
   1.00123216  0.33464077  0.66685959
   0.00155083  0.49999988  0.83267291
   1.00123217  0.66535914  0.66685953
   0.99984961  0.83301768  0.83345922
   0.16695606  0.00000008  0.16752479
   0.16656603  0.16677371  0.00072556
   0.16656599  0.83322638  0.00072554
   0.16964094  0.33589614  0.50065256
   0.16674391  0.49999986  0.33341053
   0.16964088  0.66410376  0.50065245
   0.16649391  0.00000010  0.83317522
   0.17047144  0.49999984  0.66461624
   0.16717844  0.33326321  0.16681187
   0.16717839  0.66673669  0.16681179
   0.16630444  0.16688288  0.33297097
   0.16630444  0.83311723  0.33297089
   0.16635391  0.16641144  0.66688362
   0.16671634  0.33252088  0.83390549
   0.16671628  0.66747908  0.83390554
   0.16635388  0.83358867  0.66688364
   0.16938176  0.49999988  0.99646146
   0.16597796  0.00000008  0.50042129
   0.33339735  0.00000008  1.00145632
   0.33369861  0.16904011  0.16866106
   0.33369864  0.83096002  0.16866093
   0.33398548  0.33589593  0.33630759
   0.33398541  0.66410399  0.33630733
   0.33318715  0.16473748  0.83576812
   0.33298808  0.32425974  0.66919863
   0.33298801  0.67574021  0.66919864
   0.33318709  0.83526265  0.83576817
   0.33346156  0.33394249 -0.00052475
   0.33341504  0.49999981  0.16811771
   0.33346151  0.66605738 -0.00052474
   0.33375435  0.00000006  0.33264451
   0.33291671  0.16630986  0.49958392
   0.33291670  0.83369026  0.49958383
   0.33369167  0.00000005  0.66685281
   0.33604304  0.49999986  0.82915595
   0.50001196  0.00000009  0.16538854
   0.50006198  0.16917354  0.99830476
   0.50019250  0.33464075  0.16789829
   0.49987569  0.49999987  0.99819654
   0.50019254  0.66535921  0.16789819
   0.50006197  0.83082653  0.99830469
   0.50018556  0.00000012  0.50035881
   0.50021662  0.16641135  0.33302058
   0.50253154  0.32425967  0.49965533
   0.49794906  0.49999991  0.33713810
   0.50253148  0.67574023  0.49965514
   0.50021658  0.83358876  0.33302050
   0.50030956  0.00000009  0.83461658
   0.50130952  0.16643774  0.66797672
   0.50051428  0.33391851  0.83290101
   0.50051427  0.66608135  0.83290096
   0.50130951  0.83356240  0.66797672
   0.66696290  0.33321045  0.00063970
   0.66600617  0.49999992  0.16821698
   0.66696291  0.66678948  0.00063972
   0.66650846  0.00000007  0.33316053
   0.66910148  0.16473744  0.49985416
   0.66910153  0.83526272  0.49985417
   0.66794994  0.00000012  0.66697660
   0.66606447  0.49999987  0.83273107
   0.66679250  0.16698245  0.16651590
   0.66679246  0.83301764  0.16651591
   0.66723884  0.33252090  0.33338301
   0.66723885  0.66747904  0.33338298
   0.66736576  0.16675761  0.83403242
   0.66623448  0.33391846  0.66718135
   0.66623452  0.66608146  0.66718125
   0.66736581  0.83324249  0.83403238
   0.66658532  0.00000011  0.99989122
   0.66248944  0.49999989  0.50271013
   0.83094905  0.49999990  0.99761522
   0.83479002  0.00000013  0.50006432
   0.83392247  0.33437780  0.16674088
   0.83392248  0.66562211  0.16674082
   0.83405920  0.16677377  0.33323270
   0.83405918  0.83322636  0.33323263
   0.83163853  0.16917352  0.66672896
   0.83397349  0.33321041  0.83362959
   0.83397355  0.66678948  0.83362958
   0.83163860  0.83082658  0.66672885
   0.83363680  0.00000010  0.16677039
   0.83401827  0.16650932  0.00068459
   0.83401828  0.83349075  0.00068461
   0.83280912  0.33394250  0.50012853
   0.82979520  0.49999990  0.33604826
   0.83280914  0.66605743  0.50012843
   0.83322491  0.00000010  0.83325198
   0.83153047  0.49999987  0.66654276
   0.37388498  0.49999993  0.54055250
Direct configuration=     7
   1.00016223  0.00000005  0.00032278
   0.99985652  0.16621015  0.16652290
   0.00015069  0.33445998  1.00058576
   0.00257759  0.49999985  0.16924369
   0.00015067  0.66553996  1.00058569
   0.99985653  0.83378986  0.16652295
   0.00090325  0.00000005  0.33363171
   0.00196872  0.16921620  0.50043448
   1.00014855  0.33334570  0.33389585
   0.00147619  0.49999991  0.50010437
   1.00014857  0.66665421  0.33389580
   0.00196873  0.83078387  0.50043433
  -0.00137993  0.00000009  0.66676089
   0.99990056  0.16705237  0.83348195
   1.00132592  0.33475604  0.66689415
   0.00166053  0.49999994  0.83269585
   1.00132593  0.66524389  0.66689406
   0.99990054  0.83294767  0.83348193
   0.16696530  0.00000006  0.16756955
   0.16660463  0.16682400  0.00078178
   0.16660459  0.83317604  0.00078183
   0.16977594  0.33594516  0.50067623
   0.16682635  0.49999996  0.33349249
   0.16977589  0.66405481  0.50067604
   0.16648906  0.00000009  0.83325635
   0.17063898  0.49999973  0.66463269
   0.16722951  0.33334576  0.16681488
   0.16722947  0.66665419  0.16681487
   0.16629669  0.16694659  0.33296310
   0.16629668  0.83305342  0.33296299
   0.16639534  0.16638523  0.66688594
   0.16680128  0.33246540  0.83388274
   0.16680123  0.66753466  0.83388285
   0.16639514  0.83361512  0.66688613
   0.16953199  0.49999996  0.99636332
   0.16581739  0.00000007  0.50042421
   0.33341090  0.00000007  1.00163494
   0.33376783  0.16921608  0.16863507
   0.33376782  0.83078396  0.16863492
   0.33400960  0.33594504  0.33644207
   0.33400937  0.66405499  0.33644150
   0.33323946  0.16471163  0.83580645
   0.33312046  0.32414055  0.66908122
   0.33312042  0.67585948  0.66908125
   0.33323945  0.83528845  0.83580656
   0.33350886  0.33403644 -0.00055464
   0.33343778  0.49999992  0.16814259
   0.33350883  0.66596347 -0.00055462
   0.33375770  0.00000005  0.33248378
   0.33285251  0.16606503  0.49951918
   0.33285251  0.83393500  0.49951913
   0.33367045  0.00000004  0.66693985
   0.33639127  0.49999969  0.82875881
   0.50009407  0.00000005  0.16528640
   0.50007363  0.16932043  0.99836303
   0.50022712  0.33475602  0.16799229
   0.49990887  0.49999992  0.99821348
   0.50022713  0.66524393  0.16799220
   0.50007363  0.83067961  0.99836296
   0.50027284  0.00000005  0.50033705
   0.50021904  0.16638522  0.33306180
   0.50241429  0.32414054  0.49978705
   0.49796538  0.49999998  0.33730531
   0.50241425  0.67585941  0.49978692
   0.50021901  0.83361483  0.33306174
   0.50039007  0.00000007  0.83486252
   0.50139910  0.16621538  0.66806617
   0.50053935  0.33395554  0.83277991
   0.50053939  0.66604438  0.83277985
   0.50139912  0.83378468  0.66806615
   0.66697080  0.33328254  0.00066388
   0.66602878  0.49999996  0.16832688
   0.66697081  0.66671741  0.00066389
   0.66658941  0.00000001  0.33315540
   0.66913957  0.16471159  0.49990609
   0.66913957  0.83528849  0.49990612
   0.66819559  0.00000007  0.66705700
   0.66601396  0.49999995  0.83268080
   0.66681493  0.16705236  0.16656697
   0.66681491  0.83294768  0.16656694
   0.66721578  0.33246531  0.33346767
   0.66721581  0.66753465  0.33346769
   0.66746513  0.16675722  0.83413218
   0.66611333  0.33395540  0.66720660
   0.66611335  0.66604456  0.66720648
   0.66746517  0.83324286  0.83413213
   0.66668331  0.00000006  0.99992517
   0.66209195  0.49999995  0.50305810
   0.83100234  0.49999982  0.99766864
   0.83496836  0.00000008  0.50007752
   0.83391907  0.33445998  0.16681706
   0.83391909  0.66553998  0.16681700
   0.83411515  0.16682397  0.33327108
   0.83411516  0.83317610  0.33327101
   0.83169634  0.16932039  0.66674055
   0.83399732  0.33328250  0.83363781
   0.83399731  0.66671742  0.83363777
   0.83169638  0.83067967  0.66674043
   0.83365609  0.00000005  0.16682864
   0.83407843  0.16657006  0.00074513
   0.83407844  0.83342999  0.00074517
   0.83277876  0.33403636  0.50017549
   0.82969660  0.49999995  0.33619827
   0.83277879  0.66596359  0.50017535
   0.83325852  0.00000008  0.83335024
   0.83154695  0.49999994  0.66657580
   0.37368873  0.49999997  0.54035576
Direct configuration=     8
   1.00018391  0.00000006  0.00034722
   0.99987504  0.16624171  0.16654160
   0.00019413  0.33447682  1.00057134
   0.00257595  0.49999990  0.16924236
   0.00019407  0.66552311  1.00057125
   0.99987504  0.83375831  0.16654164
   0.00090226  0.00000004  0.33363245
   0.00194449  0.16926757  0.50046448
   1.00015156  0.33340236  0.33391732
   0.00150177  0.49999997  0.50012473
   1.00015158  0.66659756  0.33391731
   0.00194452  0.83073245  0.50046434
  -0.00135997  0.00000010  0.66677262
   0.99993877  0.16707971  0.83347548
   1.00135666  0.33478040  0.66691565
   0.00169946  0.49999999  0.83271104
   1.00135674  0.66521954  0.66691552
   0.99993873  0.83292027  0.83347548
   0.16696597  0.00000008  0.16756874
   0.16664479  0.16684102  0.00079540
   0.16664477  0.83315899  0.00079535
   0.16980978  0.33593264  0.50068062
   0.16690025  0.50000000  0.33356669
   0.16980978  0.66406738  0.50068057
   0.16651631  0.00000011  0.83327147
   0.17069159  0.49999989  0.66462472
   0.16725088  0.33340230  0.16681808
   0.16725081  0.66659763  0.16681802
   0.16629790  0.16694970  0.33296438