 108 108   0   0
  0.1022088E+02  0.1033485E-08  0.1033485E-08  0.1033485E-08  0.5000000E-15
  1.000000000000000E-004
  CAR 
 Opt                                     
      9.78914835     -3.98192292  301      6.80704212      1.00000000
     -3.982  0.0000E+00  0.0000E+00
     -3.936  0.0000E+00  0.0000E+00
     -3.890  0.0000E+00  0.0000E+00
     -3.844  0.0000E+00  0.0000E+00
     -3.798  0.0000E+00  0.0000E+00
     -3.752  0.0000E+00  0.0000E+00
     -3.707  0.0000E+00  0.0000E+00
     -3.661  0.0000E+00  0.0000E+00
     -3.615 -0.1779E-30 -0.8167E-32
     -3.569 -0.7176E-29 -0.3376E-30
     -3.523 -0.2533E-27 -0.1196E-28
     -3.477 -0.8044E-26 -0.3812E-27
     -3.431 -0.2298E-24 -0.1093E-25
     -3.385 -0.5907E-23 -0.2821E-24
     -3.339 -0.1366E-21 -0.6553E-23
     -3.293 -0.2842E-20 -0.1370E-21
     -3.247 -0.5319E-19 -0.2579E-20
     -3.202 -0.8955E-18 -0.4369E-19
     -3.156 -0.1319E-16 -0.6490E-18
     -3.110 -0.1788E-15 -0.8857E-17
     -3.064 -0.2191E-14 -0.1094E-15
     -3.018 -0.2409E-13 -0.1215E-14
     -2.972 -0.2381E-12 -0.1215E-13
     -2.926 -0.2117E-11 -0.1093E-12
     -2.880 -0.1692E-10 -0.8859E-12
     -2.834 -0.1215E-09 -0.6464E-11
     -2.788 -0.7844E-09 -0.4247E-10
     -2.743 -0.4548E-08 -0.2512E-09
     -2.697 -0.2368E-07 -0.1338E-08
     -2.651 -0.1106E-06 -0.6416E-08
     -2.605 -0.4635E-06 -0.2769E-07
     -2.559 -0.1740E-05 -0.1076E-06
     -2.513 -0.5843E-05 -0.3758E-06
     -2.467 -0.1752E-04 -0.1180E-05
     -2.421 -0.4677E-04 -0.3327E-05
     -2.375 -0.1107E-03 -0.8407E-05
     -2.329 -0.2305E-03 -0.1899E-04
     -2.283 -0.4172E-03 -0.3814E-04
     -2.238 -0.6404E-03 -0.6753E-04
     -2.192 -0.7854E-03 -0.1036E-03
     -2.146 -0.6239E-03 -0.1322E-03
     -2.100  0.1665E-03 -0.1246E-03
     -2.054  0.1912E-02 -0.3683E-04
     -2.008  0.4800E-02  0.1835E-03
     -1.962  0.8771E-02  0.5861E-03
     -1.916  0.1350E-01  0.1206E-02
     -1.870  0.1851E-01  0.2055E-02
     -1.824  0.2334E-01  0.3127E-02
     -1.779  0.2770E-01  0.4398E-02
     -1.733  0.3149E-01  0.5844E-02
     -1.687  0.3476E-01  0.7439E-02
     -1.641  0.3764E-01  0.9167E-02
     -1.595  0.4030E-01  0.1102E-01
     -1.549  0.4286E-01  0.1298E-01
     -1.503  0.4532E-01  0.1506E-01
     -1.457  0.4765E-01  0.1725E-01
     -1.411  0.4983E-01  0.1954E-01
     -1.365  0.5194E-01  0.2192E-01
     -1.320  0.5415E-01  0.2441E-01
     -1.274  0.5650E-01  0.2700E-01
     -1.228  0.5883E-01  0.2970E-01
     -1.182  0.6089E-01  0.3250E-01
     -1.136  0.6262E-01  0.3537E-01
     -1.090  0.6427E-01  0.3832E-01
     -1.044  0.6624E-01  0.4136E-01
     -0.998  0.6865E-01  0.4451E-01
     -0.952  0.7123E-01  0.4778E-01
     -0.906  0.7350E-01  0.5116E-01
     -0.860  0.7518E-01  0.5461E-01
     -0.815  0.7643E-01  0.5812E-01
     -0.769  0.7776E-01  0.6169E-01
     -0.723  0.7965E-01  0.6534E-01
     -0.677  0.8229E-01  0.6912E-01
     -0.631  0.8534E-01  0.7304E-01
     -0.585  0.8811E-01  0.7708E-01
     -0.539  0.8998E-01  0.8121E-01
     -0.493  0.9085E-01  0.8538E-01
     -0.447  0.9142E-01  0.8958E-01
     -0.401  0.9276E-01  0.9384E-01
     -0.356  0.9552E-01  0.9822E-01
     -0.310  0.9935E-01  0.1028E+00
     -0.264  0.1031E+00  0.1075E+00
     -0.218  0.1056E+00  0.1124E+00
     -0.172  0.1066E+00  0.1173E+00
     -0.126  0.1070E+00  0.1222E+00
     -0.080  0.1079E+00  0.1271E+00
     -0.034  0.1101E+00  0.1322E+00
      0.012  0.1135E+00  0.1374E+00
      0.058  0.1174E+00  0.1428E+00
      0.103  0.1209E+00  0.1483E+00
      0.149  0.1238E+00  0.1540E+00
      0.195  0.1259E+00  0.1598E+00
      0.241  0.1274E+00  0.1656E+00
      0.287  0.1286E+00  0.1715E+00
      0.333  0.1301E+00  0.1775E+00
      0.379  0.1327E+00  0.1836E+00
      0.425  0.1368E+00  0.1899E+00
      0.471  0.1420E+00  0.1964E+00
      0.517  0.1470E+00  0.2032E+00
      0.563  0.1505E+00  0.2101E+00
      0.608  0.1519E+00  0.2170E+00
      0.654  0.1525E+00  0.2240E+00
      0.700  0.1539E+00  0.2311E+00
      0.746  0.1579E+00  0.2383E+00
      0.792  0.1641E+00  0.2459E+00
      0.838  0.1710E+00  0.2537E+00
      0.884  0.1765E+00  0.2618E+00
      0.930  0.1797E+00  0.2701E+00
      0.976  0.1816E+00  0.2784E+00
      1.022  0.1844E+00  0.2869E+00
      1.067  0.1894E+00  0.2956E+00
      1.113  0.1966E+00  0.3046E+00
      1.159  0.2043E+00  0.3140E+00
      1.205  0.2109E+00  0.3237E+00
      1.251  0.2163E+00  0.3336E+00
      1.297  0.2216E+00  0.3438E+00
      1.343  0.2286E+00  0.3542E+00
      1.389  0.2375E+00  0.3651E+00
      1.435  0.2472E+00  0.3765E+00
      1.481  0.2563E+00  0.3883E+00
      1.527  0.2643E+00  0.4004E+00
      1.572  0.2723E+00  0.4129E+00
      1.618  0.2823E+00  0.4258E+00
      1.664  0.2963E+00  0.4394E+00
      1.710  0.3167E+00  0.4540E+00
      1.756  0.3481E+00  0.4700E+00
      1.802  0.3972E+00  0.4882E+00
      1.848  0.4699E+00  0.5098E+00
      1.894  0.5665E+00  0.5358E+00
      1.940  0.6792E+00  0.5670E+00
      1.986  0.7931E+00  0.6034E+00
      2.031  0.8927E+00  0.6443E+00
      2.077  0.9676E+00  0.6888E+00
      2.123  0.1016E+01  0.7354E+00
      2.169  0.1042E+01  0.7832E+00
      2.215  0.1054E+01  0.8316E+00
      2.261  0.1057E+01  0.8801E+00
      2.307  0.1058E+01  0.9287E+00
      2.353  0.1059E+01  0.9773E+00
      2.399  0.1062E+01  0.1026E+01
      2.445  0.1070E+01  0.1075E+01
      2.490  0.1085E+01  0.1125E+01
      2.536  0.1109E+01  0.1176E+01
      2.582  0.1144E+01  0.1228E+01
      2.628  0.1192E+01  0.1283E+01
      2.674  0.1250E+01  0.1340E+01
      2.720  0.1313E+01  0.1401E+01
      2.766  0.1376E+01  0.1464E+01
      2.812  0.1436E+01  0.1530E+01
      2.858  0.1492E+01  0.1598E+01
      2.904  0.1543E+01  0.1669E+01
      2.950  0.1590E+01  0.1742E+01
      2.995  0.1630E+01  0.1817E+01
      3.041  0.1661E+01  0.1893E+01
      3.087  0.1678E+01  0.1970E+01
      3.133  0.1680E+01  0.2047E+01
      3.179  0.1668E+01  0.2124E+01
      3.225  0.1644E+01  0.2199E+01
      3.271  0.1612E+01  0.2273E+01
      3.317  0.1576E+01  0.2346E+01
      3.363  0.1541E+01  0.2416E+01
      3.409  0.1511E+01  0.2486E+01
      3.454  0.1488E+01  0.2554E+01
      3.500  0.1476E+01  0.2622E+01
      3.546  0.1474E+01  0.2689E+01
      3.592  0.1476E+01  0.2757E+01
      3.638  0.1475E+01  0.2825E+01
      3.684  0.1466E+01  0.2892E+01
      3.730  0.1447E+01  0.2959E+01
      3.776  0.1418E+01  0.3024E+01
      3.822  0.1382E+01  0.3087E+01
      3.868  0.1343E+01  0.3149E+01
      3.913  0.1303E+01  0.3209E+01
      3.959  0.1268E+01  0.3267E+01
      4.005  0.1243E+01  0.3324E+01
      4.051  0.1235E+01  0.3381E+01
      4.097  0.1248E+01  0.3438E+01
      4.143  0.1282E+01  0.3497E+01
      4.189  0.1336E+01  0.3558E+01
      4.235  0.1403E+01  0.3622E+01
      4.281  0.1475E+01  0.3690E+01
      4.327  0.1544E+01  0.3761E+01
      4.373  0.1605E+01  0.3835E+01
      4.418  0.1657E+01  0.3911E+01
      4.464  0.1703E+01  0.3989E+01
      4.510  0.1746E+01  0.4069E+01
      4.556  0.1784E+01  0.4151E+01
      4.602  0.1811E+01  0.4234E+01
      4.648  0.1825E+01  0.4318E+01
      4.694  0.1828E+01  0.4402E+01
      4.740  0.1832E+01  0.4486E+01
      4.786  0.1850E+01  0.4571E+01
      4.832  0.1891E+01  0.4658E+01
      4.877  0.1957E+01  0.4747E+01
      4.923  0.2039E+01  0.4841E+01
      4.969  0.2123E+01  0.4938E+01
      5.015  0.2194E+01  0.5039E+01
      5.061  0.2243E+01  0.5142E+01
      5.107  0.2266E+01  0.5246E+01
      5.153  0.2272E+01  0.5350E+01
      5.199  0.2277E+01  0.5455E+01
      5.245  0.2301E+01  0.5561E+01
      5.291  0.2358E+01  0.5669E+01
      5.337  0.2447E+01  0.5781E+01
      5.382  0.2549E+01  0.5898E+01
      5.428  0.2630E+01  0.6019E+01
      5.474  0.2653E+01  0.6141E+01
      5.520  0.2595E+01  0.6260E+01
      5.566  0.2459E+01  0.6373E+01
      5.612  0.2272E+01  0.6477E+01
      5.658  0.2073E+01  0.6572E+01
      5.704  0.1896E+01  0.6659E+01
      5.750  0.1757E+01  0.6740E+01
      5.796  0.1657E+01  0.6816E+01
      5.841  0.1588E+01  0.6889E+01
      5.887  0.1541E+01  0.6959E+01
      5.933  0.1508E+01  0.7029E+01
      5.979  0.1487E+01  0.7097E+01
      6.025  0.1476E+01  0.7165E+01
      6.071  0.1480E+01  0.7233E+01
      6.117  0.1503E+01  0.7302E+01
      6.163  0.1550E+01  0.7373E+01
      6.209  0.1622E+01  0.7447E+01
      6.255  0.1712E+01  0.7526E+01
      6.300  0.1812E+01  0.7609E+01
      6.346  0.1909E+01  0.7697E+01
      6.392  0.1995E+01  0.7788E+01
      6.438  0.2065E+01  0.7883E+01
      6.484  0.2116E+01  0.7980E+01
      6.530  0.2144E+01  0.8079E+01
      6.576  0.2146E+01  0.8177E+01
      6.622  0.2119E+01  0.8274E+01
      6.668  0.2069E+01  0.8369E+01
      6.714  0.2006E+01  0.8461E+01
      6.760  0.1941E+01  0.8551E+01
      6.805  0.1884E+01  0.8637E+01
      6.851  0.1837E+01  0.8721E+01
      6.897  0.1800E+01  0.8804E+01
      6.943  0.1772E+01  0.8885E+01
      6.989  0.1752E+01  0.8966E+01
      7.035  0.1739E+01  0.9045E+01
      7.081  0.1733E+01  0.9125E+01
      7.127  0.1732E+01  0.9205E+01
      7.173  0.1739E+01  0.9284E+01
      7.219  0.1753E+01  0.9365E+01
      7.264  0.1776E+01  0.9446E+01
      7.310  0.1808E+01  0.9529E+01
      7.356  0.1847E+01  0.9614E+01
      7.402  0.1893E+01  0.9701E+01
      7.448  0.1940E+01  0.9790E+01
      7.494  0.1977E+01  0.9881E+01
      7.540  0.1989E+01  0.9972E+01
      7.586  0.1948E+01  0.1006E+02
      7.632  0.1828E+01  0.1015E+02
      7.678  0.1613E+01  0.1022E+02
      7.723  0.1311E+01  0.1028E+02
      7.769  0.9563E+00  0.1032E+02
      7.815  0.6046E+00  0.1035E+02
      7.861  0.3091E+00  0.1037E+02
      7.907  0.1021E+00  0.1037E+02
      7.953 -0.1337E-01  0.1037E+02
      7.999 -0.5741E-01  0.1037E+02
      8.045 -0.5900E-01  0.1036E+02
      8.091 -0.4338E-01  0.1036E+02
      8.137 -0.2608E-01  0.1036E+02
      8.183 -0.1341E-01  0.1036E+02
      8.228 -0.6020E-02  0.1036E+02
      8.274 -0.2384E-02  0.1036E+02
      8.320 -0.8385E-03  0.1036E+02
      8.366 -0.2629E-03  0.1036E+02
      8.412 -0.7370E-04  0.1036E+02
      8.458 -0.1850E-04  0.1036E+02
      8.504 -0.4166E-05  0.1036E+02
      8.550 -0.8421E-06  0.1036E+02
      8.596 -0.1529E-06  0.1036E+02
      8.642 -0.2496E-07  0.1036E+02
      8.687 -0.3663E-08  0.1036E+02
      8.733 -0.4835E-09  0.1036E+02
      8.779 -0.5743E-10  0.1036E+02
      8.825 -0.6139E-11  0.1036E+02
      8.871 -0.5906E-12  0.1036E+02
      8.917 -0.5111E-13  0.1036E+02
      8.963 -0.4025E-14  0.1036E+02
      9.009 -0.2630E-15  0.1036E+02
      9.055 -0.4535E-17  0.1036E+02
      9.101  0.0000E+00  0.1036E+02
      9.146  0.0000E+00  0.1036E+02
      9.192  0.0000E+00  0.1036E+02
      9.238  0.0000E+00  0.1036E+02
      9.284  0.0000E+00  0.1036E+02
      9.330  0.0000E+00  0.1036E+02
      9.376  0.0000E+00  0.1036E+02
      9.422  0.0000E+00  0.1036E+02
      9.468  0.0000E+00  0.1036E+02
      9.514  0.0000E+00  0.1036E+02
      9.560  0.0000E+00  0.1036E+02
      9.606  0.0000E+00  0.1036E+02
      9.651  0.0000E+00  0.1036E+02
      9.697  0.0000E+00  0.1036E+02
      9.743  0.0000E+00  0.1036E+02
      9.789  0.0000E+00  0.1036E+02
