  108  108  100    1
  0.1022088E+02  0.1033485E-08  0.1033485E-08  0.1033485E-08  0.5000000E-15
  1.000000000000000E-004
  CAR 
 Opt                                     
    864     20    518
 
  0.6250000E-01  0.6250000E-01  0.6250000E-01  0.1562500E-01
    1       -1.981923   1.000000
    2       -0.666081   1.000000
    3       -0.666081   1.000000
    4       -0.666081   1.000000
    5       -0.322188   1.000000
    6       -0.322188   1.000000
    7       -0.322188   1.000000
    8        0.494916   1.000000
    9        0.494916   1.000000
   10        0.494916   1.000000
   11        0.794762   1.000000
   12        0.794762   1.000000
   13        0.794762   1.000000
   14        0.794762   1.000000
   15        0.794762   1.000000
   16        0.794762   1.000000
   17        1.080719   1.000000
   18        1.080719   1.000000
   19        1.080719   1.000000
   20        1.199274   1.000000
   21        1.366443   1.000000
   22        1.366443   1.000000
   23        1.366443   1.000000
   24        1.500406   1.000000
   25        1.500406   1.000000
   26        1.500406   1.000000
   27        1.600253   1.000000
   28        1.851811   1.000000
   29        1.851811   1.000000
   30        1.851811   1.000000
   31        1.875539   1.000000
   32        1.875539   1.000000
   33        1.875539   1.000000
   34        1.948139   1.000000
   35        1.948139   1.000000
   36        1.948139   1.000000
   37        2.476070   1.000000
   38        2.476070   1.000000
   39        2.476070   1.000000
   40        2.528387   1.000000
   41        2.528387   1.000000
   42        2.528387   1.000000
   43        2.528387   1.000000
   44        2.528387   1.000000
   45        2.528387   1.000000
   46        2.553036   1.000000
   47        2.553036   1.000000
   48        2.553036   1.000000
   49        2.599027   1.000000
   50        2.599027   1.000000
   51        2.599027   1.000000
   52        2.599027   1.000000
   53        2.599027   1.000000
   54        2.599027   1.000000
   55        2.616130   1.000000
   56        2.616130   1.000000
   57        2.616130   1.000000
   58        2.623015   1.000000
   59        2.623015   1.000000
   60        2.623015   1.000000
   61        2.676211   1.000000
   62        2.676211   1.000000
   63        2.676211   1.000000
   64        2.676211   1.000000
   65        2.676211   1.000000
   66        2.676211   1.000000
   67        2.699240   1.000000
   68        2.699240   1.000000
   69        2.699240   1.000000
   70        2.733376   1.000000
   71        2.733376   1.000000
   72        2.733376   1.000000
   73        2.733377   1.000000
   74        2.733377   1.000000
   75        2.733377   1.000000
   76        2.746139   1.000000
   77        2.746139   1.000000
   78        2.746139   1.000000
   79        2.746139   1.000000
   80        2.746139   1.000000
   81        2.746139   1.000000
   82        2.813582   1.000000
   83        2.813582   1.000000
   84        2.813582   1.000000
   85        2.813582   1.000000
   86        2.813582   1.000000
   87        2.813582   1.000000
   88        2.930271   1.000000
   89        2.930271   1.000000
   90        2.930271   1.000000
   91        2.930271   1.000000
   92        2.930271   1.000000
   93        2.930271   1.000000
   94        3.007880   1.000000
   95        3.007880   1.000000
   96        3.007880   1.000000
   97        3.007880   1.000000
   98        3.007880   1.000000
   99        3.007880   1.000000
  100        3.125286   1.000000
  101        3.125286   1.000000
  102        3.125286   1.000000
  103        3.187458   1.000000
  104        3.187458   1.000000
  105        3.187458   1.000000
  106        3.240670   1.000000
  107        3.240670   1.000000
  108        3.240670   1.000000
  109        3.240670   1.000000
  110        3.240670   1.000000
  111        3.240670   1.000000
  112        3.260114   1.000000
  113        3.260114   1.000000
  114        3.260114   1.000000
  115        3.319375   1.000000
  116        3.319375   1.000000
  117        3.319376   1.000000
  118        3.319378   1.000000
  119        3.319378   1.000000
  120        3.319378   1.000000
  121        3.416820   1.000000
  122        3.416820   1.000000
  123        3.416820   1.000000
  124        3.418704   1.000000
  125        3.418704   1.000000
  126        3.418704   1.000000
  127        3.418704   1.000000
  128        3.418704   1.000000
  129        3.418704   1.000000
  130        3.511717   1.000000
  131        3.511717   1.000000
  132        3.511717   1.000000
  133        3.571540   1.000000
  134        3.571540   1.000000
  135        3.571541   1.000000
  136        3.571543   1.000000
  137        3.571543   1.000000
  138        3.571544   1.000000
  139        3.593052   1.000000
  140        3.593053   1.000000
  141        3.593053   1.000000
  142        3.593053   1.000000
  143        3.593053   1.000000
  144        3.593053   1.000000
  145        3.633837   1.000000
  146        3.633837   1.000000
  147        3.633837   1.000000
  148        3.684208   1.000000
  149        3.684208   1.000000
  150        3.684208   1.000000
  151        3.684208   1.000000
  152        3.684208   1.000000
  153        3.684208   1.000000
  154        3.721118   1.000000
  155        3.721118   1.000000
  156        3.721118   1.000000
  157        3.721118   1.000000
  158        3.721118   1.000000
  159        3.721118   1.000000
  160        3.798583   1.000000
  161        3.798583   1.000000
  162        3.798583   1.000000
  163        3.798584   1.000000
  164        3.798584   1.000000
  165        3.798584   1.000000
  166        4.112814   1.000000
  167        4.112814   1.000000
  168        4.112814   1.000000
  169        4.211823   1.000000
  170        4.211823   1.000000
  171        4.211823   1.000000
  172        4.211823   1.000000
  173        4.211823   1.000000
  174        4.211823   1.000000
  175        4.284560   1.000000
  176        4.284560   1.000000
  177        4.284560   1.000000
  178        4.304677   1.000000
  179        4.304677   1.000000
  180        4.304677   1.000000
  181        4.314370   1.000000
  182        4.314370   1.000000
  183        4.314370   1.000000
  184        4.344344   1.000000
  185        4.344344   1.000000
  186        4.344344   1.000000
  187        4.344345   1.000000
  188        4.344345   1.000000
  189        4.344345   1.000000
  190        4.382620   1.000000
  191        4.382620   1.000000
  192        4.382620   1.000000
  193        4.382621   1.000000
  194        4.382621   1.000000
  195        4.382621   1.000000
  196        4.386724   1.000000
  197        4.386724   1.000000
  198        4.386724   1.000000
  199        4.410632   1.000000
  200        4.410632   1.000000
  201        4.410632   1.000000
  202        4.478989   1.000000
  203        4.478989   1.000000
  204        4.478989   1.000000
  205        4.536097   1.000000
  206        4.536097   1.000000
  207        4.536097   1.000000
  208        4.536098   1.000000
  209        4.536098   1.000000
  210        4.536098   1.000000
  211        4.541506   1.000000
  212        4.541506   1.000000
  213        4.541506   1.000000
  214        4.559816   1.000000
  215        4.559816   1.000000
  216        4.559816   1.000000
  217        4.559817   1.000000
  218        4.559817   1.000000
  219        4.559817   1.000000
  220        4.732613   1.000000
  221        4.732613   1.000000
  222        4.732613   1.000000
  223        4.732614   1.000000
  224        4.732614   1.000000
  225        4.732614   1.000000
  226        4.747606   1.000000
  227        4.747606   1.000000
  228        4.747606   1.000000
  229        4.792618   1.000000
  230        4.792618   1.000000
  231        4.792618   1.000000
  232        4.792618   1.000000
  233        4.792618   1.000000
  234        4.792618   1.000000
  235        4.862468   1.000000
  236        4.864597   1.000000
  237        4.864597   1.000000
  238        4.864597   1.000000
  239        4.864598   1.000000
  240        4.864598   1.000000
  241        4.864598   1.000000
  242        4.954346   1.000000
  243        4.954346   1.000000
  244        4.954347   1.000000
  245        5.022423   1.000000
  246        5.022423   1.000000
  247        5.022424   1.000000
  248        5.091974   1.000000
  249        5.091974   1.000000
  250        5.091975   1.000000
  251        5.125581   1.000000
  252        5.125581   1.000000
  253        5.125581   1.000000
  254        5.148449   1.000000
  255        5.148449   1.000000
  256        5.148449   1.000000
  257        5.170896   1.000000
  258        5.183620   1.000000
  259        5.183620   1.000000
  260        5.193337   1.000000
  261        5.193337   1.000000
  262        5.193337   1.000000
  263        5.193338   1.000000
  264        5.193338   1.000000
  265        5.193338   1.000000
  266        5.244715   1.000000
  267        5.244715   1.000000
  268        5.244715   1.000000
  269        5.244716   1.000000
  270        5.244716   1.000000
  271        5.244716   1.000000
  272        5.257464   1.000000
  273        5.257464   1.000000
  274        5.257464   1.000000
  275        5.259595   1.000000
  276        5.259595   1.000000
  277        5.265011   1.000000
  278        5.265011   1.000000
  279        5.265011   1.000000
  280        5.265025   1.000000
  281        5.265025   1.000000
  282        5.265025   1.000000
  283        5.278147   1.000000
  284        5.285237   1.000000
  285        5.285237   1.000000
  286        5.285253   1.000000
  287        5.292734   1.000000
  288        5.292734   1.000000
  289        5.292734   1.000000
  290        5.300946   1.000000
  291        5.300946   1.000000
  292        5.300946   1.000000
  293        5.306474   1.000000
  294        5.306474   1.000000
  295        5.306474   1.000000
  296        5.324834   1.000000
  297        5.324834   1.000000
  298        5.324834   1.000000
  299        5.324834   1.000000
  300        5.324834   1.000000
  301        5.324834   1.000000
  302        5.330979   1.000000
  303        5.330979   1.000000
  304        5.330981   1.000000
  305        5.347083   1.000000
  306        5.347083   1.000000
  307        5.385479   1.000000
  308        5.385479   1.000000
  309        5.385479   1.000000
  310        5.386530   1.000000
  311        5.386530   1.000000
  312        5.386530   1.000000
  313        5.547759   1.000000
  314        5.547759   1.000000
  315        5.547759   1.000000
  316        5.608525   1.000000
  317        5.608525   1.000000
  318        5.608525   1.000000
  319        5.608526   1.000000
  320        5.608526   1.000000
  321        5.608526   1.000000
  322        5.635521   1.000000
  323        5.635521   1.000000
  324        5.635521   1.000000
  325        5.635521   1.000000
  326        5.635521   1.000000
  327        5.635521   1.000000
  328        5.654657   1.000000
  329        5.654657   1.000000
  330        5.654657   1.000000
  331        5.669836   1.000000
  332        5.669836   1.000000
  333        5.669836   1.000000
  334        5.674250   1.000000
  335        5.674250   1.000000
  336        5.674250   1.000000
  337        5.713401   1.000000
  338        5.713401   1.000000
  339        5.713401   1.000000
  340        5.746119   1.000000
  341        5.746119   1.000000
  342        5.746119   1.000000
  343        5.746119   1.000000
  344        5.746119   1.000000
  345        5.746119   1.000000
  346        5.792699   1.000000
  347        5.792699   1.000000
  348        5.792699   1.000000
  349        5.809100   1.000000
  350        5.809100   1.000000
  351        5.809100   1.000000
  352        5.828479   1.000000
  353        5.828479   1.000000
  354        5.828479   1.000000
  355        5.851652   1.000000
  356        5.851652   1.000000
  357        5.851652   1.000000
  358        5.934506   1.000000
  359        5.934506   1.000000
  360        5.934506   1.000000
  361        5.934507   1.000000
  362        5.934507   1.000000
  363        5.934507   1.000000
  364        5.986099   1.000000
  365        5.986099   1.000000
  366        5.986099   1.000000
  367        6.074088   1.000001
  368        6.074088   1.000001
  369        6.074088   1.000001
  370        6.145478   1.000015
  371        6.145478   1.000015
  372        6.145478   1.000015
  373        6.163182   1.000026
  374        6.163182   1.000026
  375        6.163182   1.000026
  376        6.163184   1.000026
  377        6.163184   1.000026
  378        6.163184   1.000026
  379        6.180350   1.000043
  380        6.180350   1.000043
  381        6.180350   1.000043
  382        6.182829   1.000047
  383        6.182829   1.000047
  384        6.182829   1.000047
  385        6.365145   1.003836
  386        6.365145   1.003836
  387        6.365148   1.003837
  388        6.439418   1.013010
  389        6.439421   1.013010
  390        6.439421   1.013010
  391        6.526949   1.031755
  392        6.526949   1.031755
  393        6.526949   1.031755
  394        6.526950   1.031755
  395        6.526950   1.031755
  396        6.526950   1.031755
  397        6.599994   1.028408
  398        6.599994   1.028408
  399        6.599994   1.028408
  400        6.599995   1.028408
  401        6.599995   1.028408
  402        6.599995   1.028408
  403        6.620519   1.016647
  404        6.620519   1.016647
  405        6.620521   1.016646
  406        6.705141   0.875274
  407        6.705141   0.875274
  408        6.705141   0.875274
  409        6.705142   0.875272
  410        6.705142   0.875272
  411        6.705142   0.875272
  412        6.719127   0.835128
  413        6.719127   0.835128
  414        6.719127   0.835128
  415        6.719128   0.835126
  416        6.719128   0.835126
  417        6.719128   0.835126
  418        6.731185   0.796814
  419        6.731185   0.796814
  420        6.731193   0.796788
  421        6.735117   0.783619
  422        6.735117   0.783619
  423        6.832236   0.394329
  424        6.832236   0.394329
  425        6.832236   0.394329
  426        6.832236   0.394326
  427        6.832236   0.394326
  428        6.832236   0.394326
  429        6.884190   0.198927
  430        6.884190   0.198927
  431        6.884190   0.198927
  432        6.884190   0.198927
  433        6.884190   0.198927
  434        6.884190   0.198927
  435        6.960204   0.019225
  436        6.960204   0.019225
  437        6.960204   0.019225
  438        7.018607  -0.030134
  439        7.018607  -0.030134
  440        7.018607  -0.030134
  441        7.034110  -0.034071
  442        7.034110  -0.034071
  443        7.034110  -0.034071
  444        7.034932  -0.034202
  445        7.034932  -0.034202
  446        7.034932  -0.034202
  447        7.034932  -0.034202
  448        7.034932  -0.034202
  449        7.034932  -0.034202
  450        7.081518  -0.032733
  451        7.081518  -0.032733
  452        7.081518  -0.032733
  453        7.081518  -0.032733
  454        7.081518  -0.032733
  455        7.081518  -0.032733
  456        7.084125  -0.032292
  457        7.084125  -0.032292
  458        7.084125  -0.032292
  459        7.084125  -0.032292
  460        7.084125  -0.032292
  461        7.084125  -0.032292
  462        7.119249  -0.024869
  463        7.119249  -0.024869
  464        7.119250  -0.024869
  465        7.165833  -0.014665
  466        7.165833  -0.014665
  467        7.197141  -0.009350
  468        7.197142  -0.009350
  469        7.197142  -0.009350
  470        7.217403  -0.006738
  471        7.217403  -0.006738
  472        7.217403  -0.006738
  473        7.247594  -0.003935
  474        7.247596  -0.003935
  475        7.247596  -0.003935
  476        7.256269  -0.003336
  477        7.256269  -0.003336
  478        7.256269  -0.003336
  479        7.256269  -0.003336
  480        7.256269  -0.003336
  481        7.256269  -0.003336
  482        7.259895  -0.003109
  483        7.259895  -0.003109
  484        7.259895  -0.003109
  485        7.259895  -0.003109
  486        7.259895  -0.003109
  487        7.259895  -0.003109
  488        7.303701  -0.001247
  489        7.303708  -0.001247
  490        7.303836  -0.001244
  491        7.339844  -0.000540
  492        7.340380  -0.000533
  493        7.343858  -0.000489
  494        7.351679  -0.000403
  495        7.352784  -0.000392
  496        7.356251  -0.000360
  497        7.387200  -0.000161
  498        7.393729  -0.000135
  499        7.403905  -0.000102
  500        7.407424  -0.000092
  501        7.411090  -0.000083
  502        7.423430  -0.000059
  503        7.425008  -0.000056
  504        7.426057  -0.000054
  505        7.428238  -0.000051
  506        7.432345  -0.000045
  507        7.440264  -0.000036
  508        7.442875  -0.000033
  509        7.456557  -0.000022
  510        7.473371  -0.000013
  511        7.493781  -0.000007
  512        7.499392  -0.000006
  513        7.516949  -0.000003
  514        7.524656  -0.000002
  515        7.547514  -0.000001
  516        7.576351  -0.000000
  517        7.585666  -0.000000
  518        7.677618  -0.000000
 
  0.1875000E+00  0.6250000E-01  0.6250000E-01  0.4687500E-01
    1       -1.932361   1.000000
    2       -0.979814   1.000000
    3       -0.621920   1.000000
    4       -0.621920   1.000000
    5       -0.279445   1.000000
    6       -0.279445   1.000000
    7        0.043630   1.000000
    8        0.220219   1.000000
    9        0.220219   1.000000
   10        0.523629   1.000000
   11        0.531854   1.000000
   12        0.531854   1.000000
   13        0.818619   1.000000
   14        0.818619   1.000000
   15        1.041500   1.000000
   16        1.098511   1.000000
   17        1.112860   1.000000
   18        1.112860   1.000000
   19        1.240006   1.000000
   20        1.240006   1.000000
   21        1.382923   1.000000
   22        1.382923   1.000000
   23        1.407490   1.000000
   24        1.539400   1.000000
   25        1.639826   1.000000
   26        1.639826   1.000000
   27        1.685472   1.000000
   28        1.706520   1.000000
   29        1.887845   1.000000
   30        1.887845   1.000000
   31        1.887910   1.000000
   32        1.906319   1.000000
   33        1.906319   1.000000
   34        1.983483   1.000000
   35        1.983483   1.000000
   36        1.988362   1.000000
   37        2.333088   1.000000
   38        2.378349   1.000000
   39        2.378349   1.000000
   40        2.396996   1.000000
   41        2.435404   1.000000
   42        2.435404   1.000000
   43        2.447068   1.000000
   44        2.447068   1.000000
   45        2.511460   1.000000
   46        2.511460   1.000000
   47        2.539631   1.000000
   48        2.539631   1.000000
   49        2.577814   1.000000
   50        2.577814   1.000000
   51        2.578270   1.000000
   52        2.578270   1.000000
   53        2.583284   1.000000
   54        2.583284   1.000000
   55        2.590101   1.000000
   56        2.590101   1.000000
   57        2.617430   1.000000
   58        2.617430   1.000000
   59        2.622998   1.000000
   60        2.622998   1.000000
   61        2.624241   1.000000
   62        2.624242   1.000000
   63        2.635294   1.000000
   64        2.638495   1.000000
   65        2.638495   1.000000
   66        2.657592   1.000000
   67        2.657592   1.000000
   68        2.724288   1.000000
   69        2.724288   1.000000
   70        2.724687   1.000000
   71        2.724687   1.000000
   72        2.735976   1.000000
   73        2.735976   1.000000
   74        2.766521   1.000000
   75        2.766521   1.000000
   76        2.771421   1.000000
   77        2.771724   1.000000
   78        2.771725   1.000000
   79        2.776958   1.000000
   80        2.776958   1.000000
   81        2.810899   1.000000
   82        2.810899   1.000000
   83        2.819613   1.000000
   84        2.819614   1.000000
   85        2.829555   1.000000
   86        2.829555   1.000000
   87        2.832987   1.000000
   88        2.875533   1.000000
   89        2.875533   1.000000
   90        2.905386   1.000000
   91        2.905386   1.000000
   92        2.992945   1.000000
   93        2.992945   1.000000
   94        3.003367   1.000000
   95        3.016917   1.000000
   96        3.016917   1.000000
   97        3.061118   1.000000
   98        3.061118   1.000000
   99        3.084642   1.000000
  100        3.084642   1.000000
  101        3.118190   1.000000
  102        3.118190   1.000000
  103        3.142407   1.000000
  104        3.142407   1.000000
  105        3.183594   1.000000
  106        3.194379   1.000000
  107        3.194379   1.000000
  108        3.207303   1.000000
  109        3.207304   1.000000
  110        3.250216   1.000000
  111        3.250216   1.000000
  112        3.254104   1.000000
  113        3.254104   1.000000
  114        3.275898   1.000000
  115        3.275898   1.000000
  116        3.303298   1.000000
  117        3.303301   1.000000
  118        3.378016   1.000000
  119        3.406323   1.000000
  120        3.422189   1.000000
  121        3.422189   1.000000
  122        3.430262   1.000000
  123        3.430262   1.000000
  124        3.448325   1.000000
  125        3.448325   1.000000
  126        3.454768   1.000000
  127        3.454769   1.000000
  128        3.478667   1.000000
  129        3.478667   1.000000
  130        3.485054   1.000000
  131        3.485054   1.000000
  132        3.509686   1.000000
  133        3.509686   1.000000
  134        3.519733   1.000000
  135        3.523892   1.000000
  136        3.523892   1.000000
  137        3.581024   1.000000
  138        3.581025   1.000000
  139        3.581393   1.000000
  140        3.581393   1.000000
  141        3.611845   1.000000
  142        3.611845   1.000000
  143        3.617054   1.000000
  144        3.617054   1.000000
  145        3.618525   1.000000
  146        3.618525   1.000000
  147        3.649747   1.000000
  148        3.649747   1.000000
  149        3.653815   1.000000
  150        3.710126   1.000000
  151        3.710126   1.000000
  152        3.712980   1.000000
  153        3.712980   1.000000
  154        3.734013   1.000000
  155        3.734013   1.000000
  156        3.780822   1.000000
  157        3.780822   1.000000
  158        3.825166   1.000000
  159        3.825166   1.000000
  160        3.859599   1.000000
  161        3.859599   1.000000
  162        3.879543   1.000000
  163        3.879543   1.000000
  164        3.921938   1.000000
  165        3.921938   1.000000
  166        3.953158   1.000000
  167        4.003075   1.000000
  168        4.003075   1.000000
  169        4.050938   1.000000
  170        4.050938   1.000000
  171        4.101732   1.000000
  172        4.101732   1.000000
  173        4.156447   1.000000
  174        4.169730   1.000000
  175        4.169730   1.000000
  176        4.224469   1.000000
  177        4.252831   1.000000
  178        4.252831   1.000000
  179        4.265741   1.000000
  180        4.265741   1.000000
  181        4.273105   1.000000
  182        4.273105   1.000000
  183        4.290614   1.000000
  184        4.290614   1.000000
  185        4.332210   1.000000
  186        4.346267   1.000000
  187        4.346267   1.000000
  188        4.358993   1.000000
  189        4.358994   1.000000
  190        4.366301   1.000000
  191        4.366302   1.000000
  192        4.371797   1.000000
  193        4.371797   1.000000
  194        4.388804   1.000000
  195        4.388804   1.000000
  196        4.400711   1.000000
  197        4.400711   1.000000
  198        4.427635   1.000000
  199        4.455508   1.000000
  200        4.455508   1.000000
  201        4.461615   1.000000
  202        4.462520   1.000000
  203        4.462520   1.000000
  204        4.541480   1.000000
  205        4.541480   1.000000
  206        4.555584   1.000000
  207        4.555584   1.000000
  208        4.556692   1.000000
  209        4.556692   1.000000
  210        4.571972   1.000000
  211        4.571972   1.000000
  212        4.576717   1.000000
  213        4.576717   1.000000
  214        4.595955   1.000000
  215        4.595955   1.000000
  216        4.620030   1.000000
  217        4.620030   1.000000
  218        4.642157   1.000000
  219        4.642157   1.000000
  220        4.643379   1.000000
  221        4.685649   1.000000
  222        4.698279   1.000000
  223        4.698279   1.000000
  224        4.734674   1.000000
  225        4.734674   1.000000
  226        4.751667   1.000000
  227        4.751667   1.000000
  228        4.762472   1.000000
  229        4.783642   1.000000
  230        4.809453   1.000000
  231        4.809453   1.000000
  232        4.812287   1.000000
  233        4.812287   1.000000
  234        4.883737   1.000000
  235        4.883737   1.000000
  236        4.904371   1.000000
  237        4.904371   1.000000
  238        4.905028   1.000000
  239        4.939604   1.000000
  240        4.939604   1.000000
  241        4.946800   1.000000
  242        4.946800   1.000000
  243        4.968146   1.000000
  244        4.968146   1.000000
  245        5.020039   1.000000
  246        5.026308   1.000000
  247        5.042772   1.000000
  248        5.042772   1.000000
  249        5.058128   1.000000
  250        5.058128   1.000000
  251        5.060075   1.000000
  252        5.060075   1.000000
  253        5.079646   1.000000
  254        5.079646   1.000000
  255        5.102546   1.000000
  256        5.103253   1.000000
  257        5.103253   1.000000
  258        5.137244   1.000000
  259        5.137244   1.000000
  260        5.147145   1.000000
  261        5.166916   1.000000
  262        5.166917   1.000000
  263        5.168807   1.000000
  264        5.169053   1.000000
  265        5.169053   1.000000
  266        5.189742   1.000000
  267        5.189744   1.000000
  268        5.200127   1.000000
  269        5.201476   1.000000
  270        5.210769   1.000000
  271        5.215505   1.000000
  272        5.221116   1.000000
  273        5.221116   1.000000
  274        5.238970   1.000000
  275        5.238970   1.000000
  276        5.245420   1.000000
  277        5.246987   1.000000
  278        5.246994   1.000000
  279        5.251154   1.000000
  280        5.251934   1.000000
  281        5.251943   1.000000
  282        5.260514   1.000000
  283        5.260514   1.000000
  284        5.262104   1.000000
  285        5.287564   1.000000
  286        5.287565   1.000000
  287        5.288697   1.000000
  288        5.288697   1.000000
  289        5.296309   1.000000
  290        5.326031   1.000000
  291        5.326032   1.000000
  292        5.327468   1.000000
  293        5.327468   1.000000
  294        5.333176   1.000000
  295        5.340105   1.000000
  296        5.340105   1.000000
  297        5.344418   1.000000
  298        5.372078   1.000000
  299        5.374396   1.000000
  300        5.374399   1.000000
  301        5.381078   1.000000
  302        5.381078   1.000000
  303        5.381113   1.000000
  304        5.387885   1.000000
  305        5.395435   1.000000
  306        5.395435   1.000000
  307        5.431716   1.000000
  308        5.431716   1.000000
  309        5.437295   1.000000
  310        5.454711   1.000000
  311        5.462196   1.000000
  312        5.474589   1.000000
  313        5.474589   1.000000
  314        5.522066   1.000000
  315        5.522066   1.000000
  316        5.537978   1.000000
  317        5.537979   1.000000
  318        5.552512   1.000000
  319        5.554074   1.000000
  320        5.560010   1.000000
  321        5.560010   1.000000
  322        5.579277   1.000000
  323        5.579277   1.000000
  324        5.585392   1.000000
  325        5.585392   1.000000
  326        5.588337   1.000000
  327        5.588338   1.000000
  328        5.610475   1.000000
  329        5.643580   1.000000
  330        5.643580   1.000000
  331        5.674113   1.000000
  332        5.674113   1.000000
  333        5.683318   1.000000
  334        5.683318   1.000000
  335        5.730008   1.000000
  336        5.730008   1.000000
  337        5.743756   1.000000
  338        5.743756   1.000000
  339        5.772147   1.000000
  340        5.772990   1.000000
  341        5.784315   1.000000
  342        5.784315   1.000000
  343        5.807731   1.000000
  344        5.807731   1.000000
  345        5.813240   1.000000
  346        5.813240   1.000000
  347        5.824444   1.000000
  348        5.824446   1.000000
  349        5.848300   1.000000
  350        5.858549   1.000000
  351        5.858549   1.000000
  352        5.865344   1.000000
  353        5.867269   1.000000
  354        5.867269   1.000000
  355        5.886180   1.000000
  356        5.886180   1.000000
  357        5.932445   1.000000
  358        5.932445   1.000000
  359        5.953342   1.000000
  360        5.957641   1.000000
  361        5.968593   1.000000
  362        5.968593   1.000000
  363        6.024550   1.000000
  364        6.024550   1.000000
  365        6.025050   1.000000
  366        6.025050   1.000000
  367        6.042688   1.000000
  368        6.078475   1.000002
  369        6.137946   1.000012
  370        6.137946   1.000012
  371        6.182572   1.000046
  372        6.182573   1.000046
  373        6.190923   1.000059
  374        6.190923   1.000059
  375        6.191952   1.000061
  376        6.191952   1.000061
  377        6.210577   1.000103
  378        6.210577   1.000103
  379        6.210877   1.000104
  380        6.210877   1.000104
  381        6.226165   1.000158