 running on    8 total cores
 distrk:  each k-point on    8 cores,    1 groups
 distr:  one band on    4 cores,    2 groups
 using from now: INCAR     
 vasp.5.4.4.18Apr17-6-g9f103f2a35 (build Aug 17 2017 06:00:38) complex          
  
 POSCAR found type information on POSCAR  Fe
 POSCAR found :  1 types and     108 ions
 scaLAPACK will be used
 LDA part: xc-table for Pade appr. of Perdew
 POSCAR, INCAR and KPOINTS ok, starting setup
 FFT: planning ...
 WAVECAR not read
 entering main loop
       N       E                     dE             d eps       ncg     rms          rms(c)
DAV:   1     0.759127097062E+04    0.75913E+04   -0.28849E+05 20744   0.184E+03
DAV:   2    -0.246092004825E+02   -0.76159E+04   -0.74467E+04 20720   0.457E+02
DAV:   3    -0.851037738554E+03   -0.82643E+03   -0.70638E+03 20848   0.191E+02
DAV:   4    -0.102990744838E+04   -0.17887E+03   -0.16780E+03 37640   0.573E+01
DAV:   5    -0.104509630706E+04   -0.15189E+02   -0.14354E+02 33120   0.218E+01    0.934E+01
RMM:   6    -0.877469565572E+03    0.16763E+03   -0.13539E+03 20721   0.110E+02    0.901E+00
RMM:   7    -0.880255145818E+03   -0.27856E+01   -0.10984E+02 22564   0.237E+01    0.326E+00
RMM:   8    -0.879412894630E+03    0.84225E+00   -0.12774E+01 22108   0.999E+00    0.513E+00
RMM:   9    -0.879693296899E+03   -0.28040E+00   -0.44555E+00 28219   0.203E+00    0.294E+00
RMM:  10    -0.879525586241E+03    0.16771E+00   -0.89511E-01 26860   0.114E+00    0.563E-01
RMM:  11    -0.879537208070E+03   -0.11622E-01   -0.11606E-01 29019   0.328E-01    0.506E-01
RMM:  12    -0.879532898490E+03    0.43096E-02   -0.21534E-02 23023   0.371E-01    0.118E-01
RMM:  13    -0.879533278834E+03   -0.38034E-03   -0.10581E-02 27657   0.104E-01    0.450E-02
RMM:  14    -0.879533312153E+03   -0.33318E-04   -0.48077E-04 26819   0.417E-02    0.110E-02
RMM:  15    -0.879533288331E+03    0.23822E-04    0.18852E-04 27477   0.145E-02    0.245E-03
RMM:  16    -0.879533252085E+03    0.36246E-04    0.25811E-04 21772   0.358E-03    0.150E-03
RMM:  17    -0.879533227250E+03    0.24834E-04    0.24266E-04 14496   0.303E-03    0.775E-04
RMM:  18    -0.879533208531E+03    0.18719E-04    0.17802E-04 13741   0.236E-03    0.856E-04
RMM:  19    -0.879533193313E+03    0.15218E-04    0.14471E-04 13333   0.197E-03    0.484E-04
RMM:  20    -0.879533179294E+03    0.14019E-04    0.13471E-04 13016   0.166E-03    0.618E-04
RMM:  21    -0.879533166076E+03    0.13218E-04    0.12414E-04 12631   0.119E-03    0.168E-04
RMM:  22    -0.879533156118E+03    0.99573E-05    0.93786E-05 12094   0.104E-03    0.465E-04
RMM:  23    -0.879533146522E+03    0.95963E-05    0.91512E-05 11021   0.812E-04    0.325E-05
RMM:  24    -0.879533137667E+03    0.88545E-05    0.84453E-05  9809   0.682E-04    0.327E-04
RMM:  25    -0.879533130008E+03    0.76599E-05    0.73566E-05  8983   0.595E-04    0.907E-05
RMM:  26    -0.879533121599E+03    0.84087E-05    0.79757E-05  7995   0.524E-04    0.249E-04
RMM:  27    -0.879533113907E+03    0.76918E-05    0.72907E-05  7268   0.479E-04    0.138E-04
RMM:  28    -0.879533107329E+03    0.65784E-05    0.62436E-05  6605   0.433E-04    0.212E-04
RMM:  29    -0.879533102479E+03    0.48501E-05    0.46491E-05  6228   0.408E-04    0.953E-05
RMM:  30    -0.879533097285E+03    0.51936E-05    0.50234E-05  5436   0.336E-04    0.124E-04
RMM:  31    -0.879533093156E+03    0.41287E-05    0.39653E-05  4681   0.324E-04    0.708E-05
RMM:  32    -0.879533089577E+03    0.35791E-05    0.34859E-05  4349   0.296E-04    0.118E-04
RMM:  33    -0.879533085982E+03    0.35949E-05    0.35095E-05  4274   0.298E-04    0.838E-05
RMM:  34    -0.879533082958E+03    0.30245E-05    0.29195E-05  3967   0.280E-04    0.115E-04
RMM:  35    -0.879533080274E+03    0.26837E-05    0.26280E-05  3905   0.280E-04    0.935E-05
RMM:  36    -0.879533077827E+03    0.24470E-05    0.24035E-05  3656   0.268E-04    0.112E-04
RMM:  37    -0.879533075589E+03    0.22381E-05    0.22019E-05  3616   0.266E-04    0.983E-05
RMM:  38    -0.879533073536E+03    0.20526E-05    0.20197E-05  3465   0.257E-04    0.109E-04
RMM:  39    -0.879533071658E+03    0.18784E-05    0.18510E-05  3391   0.255E-04    0.103E-04
RMM:  40    -0.879533069688E+03    0.19700E-05    0.19459E-05  3384   0.239E-04    0.964E-05
RMM:  41    -0.879533067878E+03    0.18104E-05    0.17608E-05  3346   0.225E-04    0.731E-05
RMM:  42    -0.879533066396E+03    0.14818E-05    0.14374E-05  3161   0.219E-04    0.583E-05
RMM:  43    -0.879533065074E+03    0.13215E-05    0.12990E-05  3132   0.225E-04    0.463E-05
RMM:  44    -0.879533063812E+03    0.12622E-05    0.12417E-05  3033   0.231E-04    0.364E-05
RMM:  45    -0.879533062744E+03    0.10678E-05    0.10454E-05  3067   0.252E-04    0.171E-05
RMM:  46    -0.879533061781E+03    0.96306E-06    0.94869E-06  2976   0.259E-04
   1 F= -.87953306E+03 E0= -.87954833E+03  d E =-.879533E+03
 curvature:   0.00 expect dE= 0.000E+00 dE for cont linesearch  0.000E+00
 trial: gam= 0.00000 g(F)=  0.284E-37 g(S)=  0.116E-03 ort = 0.000E+00 (trialstep = 0.100E+01)
 search vector abs. value=  0.116E-03
 reached required accuracy - stopping structural energy minimisation
