 vasp.5.4.4.18Apr17-6-g9f103f2a35 (build Aug 17 2017 06:00:38) complex          
  
 executed on             LinuxIFC date 2019.07.13  00:54:31
 running on    8 total cores
 distrk:  each k-point on    8 cores,    1 groups
 distr:  one band on NCORES_PER_BAND=   4 cores,    2 groups


--------------------------------------------------------------------------------------------------------


 INCAR:
 POTCAR:   PAW_PBE Fe 06Sep2000                   
 POTCAR:   PAW_PBE Fe 06Sep2000                   
   VRHFIN =Fe:  d7 s1                                                           
   LEXCH  = PE                                                                  
   EATOM  =   594.4687 eV,   43.6922 Ry                                         
                                                                                
   TITEL  = PAW_PBE Fe 06Sep2000                                                
   LULTRA =        F    use ultrasoft PP ?                                      
   IUNSCR =        1    unscreen: 0-lin 1-nonlin 2-no                           
   RPACOR =    2.000    partial core radius                                     
   POMASS =   55.847; ZVAL   =    8.000    mass and valenz                      
   RCORE  =    2.300    outmost cutoff radius                                   
   RWIGS  =    2.460; RWIGS  =    1.302    wigner-seitz radius (au A)           
   ENMAX  =  267.883; ENMIN  =  200.912 eV                                      
   RCLOC  =    1.701    cutoff for local pot                                    
   LCOR   =        T    correct aug charges                                     
   LPAW   =        T    paw PP                                                  
   EAUG   =  511.368                                                            
   DEXC   =    -.022                                                            
   RMAX   =    2.817    core radius for proj-oper                               
   RAUG   =    1.300    factor for augmentation sphere                          
   RDEP   =    2.442    radius for radial grids                                 
   QCUT   =   -4.437; QGAM   =    8.874    optimization parameters              
                                                                                
   Description                                                                  
     l     E      TYP  RCUT    TYP  RCUT                                        
     2   .000     23  2.300                                                     
     2   .000     23  2.300                                                     
     0   .000     23  2.300                                                     
     0   .000     23  2.300                                                     
     1  -.200     23  2.300                                                     
     1   .000     23  2.300                                                     
     3   .000      7   .000                                                     
  local pseudopotential read in
  partial core-charges read in
  atomic valenz-charges read in
  non local Contribution for L=           2  read in
    real space projection operators read in
  non local Contribution for L=           2  read in
    real space projection operators read in
  non local Contribution for L=           0  read in
    real space projection operators read in
  non local Contribution for L=           0  read in
    real space projection operators read in
  non local Contribution for L=           1  read in
    real space projection operators read in
  non local Contribution for L=           1  read in
    real space projection operators read in
    PAW grid and wavefunctions read in
 
   number of l-projection  operators is LMAX  =           6
   number of lm-projection operators is LMMAX =          18
 
 Optimization of the real space projectors (new method)

 maximal supplied QI-value         = 16.25
 optimisation between [QCUT,QGAM] = [ 10.24, 20.48] = [ 29.35,117.42] Ry 
 Optimized for a Real-space Cutoff    1.51 Angstroem

   l    n(q)    QCUT    max X(q) W(low)/X(q) W(high)/X(q)  e(spline) 
   2      8    10.239     4.378    0.29E-04    0.57E-04    0.52E-07
   2      8    10.239    23.237    0.44E-03    0.68E-03    0.20E-06
   0      9    10.239    17.641    0.18E-04    0.41E-06    0.72E-08
   0      9    10.239    50.908    0.75E-04    0.38E-04    0.65E-07
   1      9    10.239     6.148    0.18E-04    0.27E-04    0.19E-07
   1      9    10.239     8.345    0.39E-04    0.13E-03    0.98E-07
 PAW_PBE Fe 06Sep2000                   :
 energy of atom  1       EATOM= -594.4687
 kinetic energy error for atom=    0.0088 (will be added to EATOM!!)
 
 
 POSCAR: fcc_Fe_CON_333                          
  positions in direct lattice
  velocities in cartesian coordinates
 exchange correlation table for  LEXCH =        8
   RHO(1)=    0.500       N(1)  =     2000
   RHO(2)=  100.500       N(2)  =     4000
 


--------------------------------------------------------------------------------------------------------


 ion  position               nearest neighbor table
   1  0.000  0.000  0.000-   2 2.44   3 2.44   4 2.44  11 2.44  12 2.44  26 2.44  28 2.44  74 2.44
                            75 2.44  36 2.44  83 2.44  98 2.44
   2  0.000  0.167  0.167-  49 2.44  37 2.44  13 2.44  40 2.44  15 2.44  48 2.44  23 2.44   3 2.44
                             4 2.44   1 2.44  12 2.44  11 2.44
   3  0.167  0.000  0.167-  41 2.44  37 2.44   5 2.44  40 2.44   6 2.44  30 2.44  64 2.44   2 2.44
                             4 2.44   1 2.44  28 2.44  26 2.44
   4  0.167  0.167  0.000-  17 2.44  13 2.44   5 2.44  15 2.44   6 2.44  78 2.44  87 2.44   2 2.44
                             3 2.44   1 2.44  74 2.44  75 2.44
   5  0.333  0.000  0.000-   3 2.44   4 2.44  28 2.44  75 2.44   6 2.44   7 2.44   8 2.44  30 2.44
                            78 2.44  32 2.44  79 2.44 102 2.44
   6  0.333  0.167  0.167-  15 2.44  40 2.44  53 2.44  17 2.44  19 2.44   4 2.44  41 2.44  44 2.44
                             3 2.44   7 2.44   8 2.44   5 2.44
   7  0.500  0.000  0.167-  41 2.44  44 2.44  45 2.44  68 2.44   6 2.44   5 2.44   8 2.44  10 2.44
                            30 2.44   9 2.44  32 2.44  34 2.44
   8  0.500  0.167  0.000-  17 2.44  19 2.44  21 2.44  91 2.44   6 2.44   5 2.44   7 2.44  78 2.44
                            10 2.44  79 2.44   9 2.44  82 2.44
   9  0.667  0.000  0.000-  11 2.44  12 2.44  36 2.44  83 2.44  10 2.44  82 2.44  34 2.44   8 2.44
                             7 2.44 106 2.44  79 2.44  32 2.44
  10  0.667  0.167  0.167-  23 2.44  48 2.44  57 2.44  12 2.44  11 2.44  21 2.44  45 2.44  44 2.44
                            19 2.44   9 2.44   7 2.44   8 2.44
  11  0.833  0.000  0.167-  45 2.44   9 2.44  10 2.44  34 2.44  48 2.44  37 2.44  72 2.44  12 2.44
                             2 2.44  36 2.44   1 2.44  26 2.44
  12  0.833  0.167  0.000-  21 2.44   9 2.44  10 2.44  82 2.44  23 2.44  13 2.44  95 2.44  11 2.44
                             1 2.44  83 2.44   2 2.44  74 2.44
  13  0.000  0.333  0.000-   2 2.44   4 2.44  12 2.44  74 2.44  15 2.44  16 2.44  14 2.44  23 2.44
                            87 2.44  86 2.44  24 2.44  95 2.44
  14  0.000  0.500  0.167-  49 2.44  52 2.44  60 2.44  61 2.44  15 2.44  13 2.44  16 2.44  23 2.44
                            27 2.44  25 2.44  24 2.44  35 2.44
  15  0.167  0.333  0.167-   6 2.44  40 2.44  53 2.44  17 2.44  18 2.44   4 2.44  49 2.44  52 2.44
                             2 2.44  13 2.44  14 2.44  16 2.44
  16  0.167  0.500  0.000-  17 2.44  18 2.44  29 2.44  90 2.44  15 2.44  14 2.44  13 2.44  87 2.44
                            27 2.44  25 2.44  86 2.44  99 2.44
  17  0.333  0.333  0.000-   4 2.44   8 2.44  16 2.44  15 2.44   6 2.44  78 2.44  87 2.44  20 2.44
                            18 2.44  19 2.44  90 2.44  91 2.44
  18  0.333  0.500  0.167-  52 2.44  16 2.44  56 2.44  53 2.44  15 2.44  27 2.44  65 2.44  20 2.44
                            17 2.44  19 2.44  29 2.44  31 2.44
  19  0.500  0.333  0.167-  44 2.44   8 2.44  56 2.44  53 2.44   6 2.44  10 2.44  57 2.44  18 2.44
                            20 2.44  17 2.44  21 2.44  22 2.44
  20  0.500  0.500  0.000-  17 2.44  18 2.44  19 2.44  21 2.44  22 2.44  29 2.44  31 2.44  90 2.44
                            91 2.44  33 2.44  94 2.44 103 2.44
  21  0.667  0.333  0.000-  12 2.44  24 2.44  23 2.44  95 2.44  10 2.44   8 2.44  82 2.44  22 2.44
                            20 2.44  94 2.44  19 2.44  91 2.44
  22  0.667  0.500  0.167-  60 2.44  24 2.44  23 2.44  35 2.44  57 2.44  56 2.44  69 2.44  21 2.44
                            33 2.44  20 2.44  19 2.44  31 2.44
  23  0.833  0.333  0.167-  10 2.44  57 2.44  48 2.44  21 2.44  22 2.44  12 2.44  60 2.44   2 2.44
                            49 2.44  24 2.44  14 2.44  13 2.44
  24  0.833  0.500  0.000-  21 2.44  22 2.44  33 2.44  94 2.44  23 2.44  35 2.44  95 2.44  14 2.44
                            13 2.44 107 2.44  86 2.44  25 2.44
  25  0.000  0.667  0.000-  26 2.44  28 2.44  36 2.44  98 2.44  27 2.44  35 2.44  99 2.44  16 2.44
                            14 2.44 107 2.44  86 2.44  24 2.44
  26  0.000  0.833  0.167-  61 2.44  25 2.44  27 2.44  35 2.44  64 2.44  37 2.44  72 2.44  28 2.44
                             3 2.44  36 2.44   1 2.44  11 2.44
  27  0.167  0.667  0.167-  30 2.44  64 2.44  65 2.44  28 2.44  26 2.44  29 2.44  61 2.44  52 2.44
                            18 2.44  25 2.44  14 2.44  16 2.44
  28  0.167  0.833  0.000-  29 2.44  25 2.44  27 2.44  99 2.44  30 2.44   5 2.44 102 2.44  26 2.44
                            98 2.44   1 2.44   3 2.44  75 2.44
  29  0.333  0.667  0.000-  28 2.44  32 2.44  30 2.44 102 2.44  27 2.44  16 2.44  99 2.44  31 2.44
                            20 2.44  18 2.44 103 2.44  90 2.44
  30  0.333  0.833  0.167-  27 2.44  65 2.44  64 2.44  29 2.44  31 2.44  28 2.44  68 2.44  41 2.44
                             3 2.44  32 2.44   7 2.44   5 2.44
  31  0.500  0.667  0.167-  68 2.44  32 2.44  30 2.44  34 2.44  65 2.44  56 2.44  69 2.44  29 2.44
                            33 2.44  20 2.44  18 2.44  22 2.44
  32  0.500  0.833  0.000-  29 2.44  31 2.44  33 2.44 103 2.44  30 2.44 102 2.44  34 2.44   7 2.44
                             5 2.44 106 2.44  79 2.44   9 2.44
  33  0.667  0.667  0.000-  36 2.44  35 2.44  34 2.44  32 2.44  24 2.44 106 2.44 107 2.44  22 2.44
                            31 2.44 103 2.44  20 2.44  94 2.44
  34  0.667  0.833  0.167-  35 2.44  69 2.44  72 2.44  33 2.44  36 2.44  31 2.44  11 2.44  45 2.44
                            68 2.44  32 2.44   9 2.44   7 2.44
  35  0.833  0.667  0.167-  34 2.44  69 2.44  72 2.44  33 2.44  36 2.44  26 2.44  22 2.44  60 2.44
                            61 2.44  24 2.44  25 2.44  14 2.44
  36  0.833  0.833  0.000-  33 2.44  34 2.44  35 2.44  25 2.44   9 2.44 106 2.44 107 2.44  26 2.44
                            11 2.44  98 2.44   1 2.44  83 2.44
  37  0.000  0.000  0.333-   2 2.44   3 2.44  11 2.44  26 2.44  40 2.44  39 2.44  38 2.44  48 2.44
                            64 2.44  62 2.44  47 2.44  72 2.44
  38  0.000  0.167  0.500-  49 2.44  51 2.44  59 2.44  85 2.44  40 2.44  39 2.44  37 2.44  76 2.44
                            48 2.44  47 2.44  73 2.44  84 2.44
  39  0.167  0.000  0.500-  41 2.44  42 2.44  66 2.44  77 2.44  40 2.44  38 2.44  37 2.44  76 2.44
                            64 2.44  62 2.44  73 2.44 100 2.44
  40  0.167  0.167  0.333-   6 2.44  15 2.44  53 2.44   3 2.44  41 2.44  42 2.44  49 2.44  51 2.44
                             2 2.44  39 2.44  37 2.44  38 2.44
  41  0.333  0.000  0.333-   3 2.44   7 2.44  39 2.44   6 2.44  40 2.44  30 2.44  64 2.44  43 2.44
                            44 2.44  42 2.44  66 2.44  68 2.44
  42  0.333  0.167  0.500-  51 2.44  39 2.44  55 2.44  53 2.44  40 2.44  76 2.44  89 2.44  44 2.44
                            41 2.44  43 2.44  80 2.44  77 2.44
  43  0.500  0.000  0.500-  41 2.44  42 2.44  44 2.44  45 2.44  46 2.44  66 2.44  68 2.44  77 2.44
                            80 2.44  70 2.44  81 2.44 104 2.44
  44  0.500  0.167  0.333-  19 2.44   7 2.44  55 2.44  53 2.44   6 2.44  10 2.44  57 2.44  41 2.44
                            42 2.44  43 2.44  46 2.44  45 2.44
  45  0.667  0.000  0.333-  11 2.44  47 2.44  48 2.44  72 2.44  10 2.44   7 2.44  34 2.44  46 2.44
                            43 2.44  70 2.44  44 2.44  68 2.44
  46  0.667  0.167  0.500-  59 2.44  47 2.44  48 2.44  84 2.44  57 2.44  55 2.44  93 2.44  45 2.44
                            81 2.44  43 2.44  44 2.44  80 2.44
  47  0.833  0.000  0.500-  45 2.44  46 2.44  70 2.44  81 2.44  48 2.44  72 2.44  84 2.44  38 2.44
                            37 2.44 108 2.44  73 2.44  62 2.44
  48  0.833  0.167  0.333-  10 2.44  57 2.44  23 2.44  46 2.44  45 2.44  11 2.44  59 2.44   2 2.44
                            49 2.44  47 2.44  37 2.44  38 2.44
  49  0.000  0.333  0.333-   2 2.44  14 2.44  38 2.44  15 2.44  40 2.44  23 2.44  48 2.44  50 2.44
                            51 2.44  52 2.44  59 2.44  60 2.44
  50  0.000  0.500  0.500-  49 2.44  51 2.44  52 2.44  59 2.44  60 2.44  61 2.44  63 2.44  85 2.44
                            88 2.44  71 2.44  96 2.44  97 2.44
  51  0.167  0.333  0.500-  42 2.44  38 2.44  54 2.44  53 2.44  40 2.44  76 2.44  89 2.44  50 2.44
                            52 2.44  49 2.44  88 2.44  85 2.44
  52  0.167  0.500  0.333-  18 2.44  14 2.44  54 2.44  53 2.44  15 2.44  27 2.44  65 2.44  49 2.44
                            50 2.44  51 2.44  63 2.44  61 2.44
  53  0.333  0.333  0.333-   6 2.44  15 2.44  40 2.44  19 2.44  18 2.44  42 2.44  44 2.44  51 2.44
                            52 2.44  54 2.44  55 2.44  56 2.44
  54  0.333  0.500  0.500-  51 2.44  52 2.44  63 2.44  88 2.44  53 2.44  55 2.44  56 2.44  65 2.44
                            89 2.44  67 2.44  92 2.44 101 2.44
  55  0.500  0.333  0.500-  42 2.44  44 2.44  46 2.44  80 2.44  53 2.44  56 2.44  54 2.44  57 2.44
                            89 2.44  58 2.44  92 2.44  93 2.44
  56  0.500  0.500  0.333-  18 2.44  19 2.44  22 2.44  31 2.44  53 2.44  54 2.44  55 2.44  57 2.44
                            65 2.44  58 2.44  67 2.44  69 2.44
  57  0.667  0.333  0.333-  23 2.44  48 2.44  10 2.44  59 2.44  60 2.44  46 2.44  22 2.44  19 2.44
                            44 2.44  58 2.44  56 2.44  55 2.44
  58  0.667  0.500  0.500-  59 2.44  60 2.44  71 2.44  96 2.44  57 2.44  93 2.44  69 2.44  56 2.44
                            55 2.44 105 2.44  92 2.44  67 2.44
  59  0.833  0.333  0.500-  46 2.44  58 2.44  57 2.44  93 2.44  48 2.44  38 2.44  84 2.44  60 2.44
                            50 2.44  49 2.44  96 2.44  85 2.44
  60  0.833  0.500  0.333-  22 2.44  58 2.44  57 2.44  69 2.44  23 2.44  14 2.44  35 2.44  59 2.44
                            49 2.44  50 2.44  71 2.44  61 2.44
  61  0.000  0.667  0.333-  26 2.44  62 2.44  64 2.44  72 2.44  27 2.44  14 2.44  35 2.44  63 2.44
                            50 2.44  71 2.44  52 2.44  60 2.44
  62  0.000  0.833  0.500-  61 2.44  63 2.44  71 2.44  97 2.44  64 2.44  72 2.44 100 2.44  39 2.44
                            37 2.44 108 2.44  73 2.44  47 2.44
  63  0.167  0.667  0.500-  66 2.44  62 2.44  64 2.44 100 2.44  65 2.44  54 2.44 101 2.44  61 2.44
                            97 2.44  50 2.44  52 2.44  88 2.44
  64  0.167  0.833  0.333-  27 2.44  65 2.44  30 2.44  63 2.44  61 2.44  26 2.44  66 2.44   3 2.44
                            41 2.44  62 2.44  37 2.44  39 2.44
  65  0.333  0.667  0.333-  30 2.44  64 2.44  27 2.44  66 2.44  68 2.44  63 2.44  31 2.44  18 2.44
                            52 2.44  67 2.44  56 2.44  54 2.44
  66  0.333  0.833  0.500-  63 2.44  67 2.44  65 2.44 101 2.44  64 2.44  39 2.44 100 2.44  68 2.44
                            43 2.44  41 2.44 104 2.44  77 2.44
  67  0.500  0.667  0.500-  66 2.44  68 2.44  70 2.44 104 2.44  65 2.44 101 2.44  69 2.44  56 2.44
                            54 2.44 105 2.44  92 2.44  58 2.44
  68  0.500  0.833  0.333-  31 2.44  67 2.44  65 2.44  69 2.44  30 2.44   7 2.44  34 2.44  66 2.44
                            41 2.44  43 2.44  70 2.44  45 2.44
  69  0.667  0.667  0.333-  72 2.44  35 2.44  34 2.44  71 2.44  70 2.44  68 2.44  60 2.44  31 2.44
                            22 2.44  58 2.44  67 2.44  56 2.44
  70  0.667  0.833  0.500-  71 2.44  69 2.44  72 2.44  67 2.44  47 2.44 105 2.44 108 2.44  68 2.44
                            45 2.44 104 2.44  43 2.44  81 2.44
  71  0.833  0.667  0.500-  70 2.44  69 2.44  72 2.44  62 2.44  58 2.44 105 2.44 108 2.44  60 2.44
                            61 2.44  97 2.44  50 2.44  96 2.44
  72  0.833  0.833  0.333-  69 2.44  35 2.44  34 2.44  70 2.44  71 2.44  61 2.44  45 2.44  26 2.44
                            11 2.44  62 2.44  47 2.44  37 2.44
  73  0.000  0.000  0.667-  74 2.44  75 2.44  83 2.44  98 2.44  76 2.44  84 2.44 100 2.44  39 2.44
                            38 2.44 108 2.44  47 2.44  62 2.44
  74  0.000  0.167  0.833-  85 2.44  73 2.44  76 2.44  84 2.44  87 2.44  13 2.44  95 2.44  75 2.44
                             4 2.44  83 2.44   1 2.44  12 2.44
  75  0.167  0.000  0.833-  77 2.44  73 2.44  76 2.44 100 2.44  78 2.44   5 2.44 102 2.44  74 2.44
                            98 2.44   1 2.44   4 2.44  28 2.44
  76  0.167  0.167  0.667-  78 2.44  87 2.44  89 2.44  75 2.44  74 2.44  77 2.44  85 2.44  51 2.44
                            42 2.44  73 2.44  38 2.44  39 2.44
  77  0.333  0.000  0.667-  75 2.44  79 2.44  78 2.44 102 2.44  76 2.44  39 2.44 100 2.44  80 2.44
                            43 2.44  42 2.44 104 2.44  66 2.44
  78  0.333  0.167  0.833-  76 2.44  89 2.44  87 2.44  77 2.44  80 2.44  75 2.44  91 2.44  17 2.44
                             4 2.44  79 2.44   8 2.44   5 2.44
  79  0.500  0.000  0.833-  77 2.44  80 2.44  81 2.44 104 2.44  78 2.44 102 2.44  82 2.44   8 2.44
                             5 2.44 106 2.44   9 2.44  32 2.44
  80  0.500  0.167  0.667-  91 2.44  79 2.44  78 2.44  82 2.44  89 2.44  55 2.44  93 2.44  77 2.44
                            43 2.44  81 2.44  42 2.44  46 2.44
  81  0.667  0.000  0.667-  83 2.44  82 2.44  84 2.44  79 2.44  47 2.44 106 2.44 108 2.44  80 2.44
                            46 2.44 104 2.44  70 2.44  43 2.44
  82  0.667  0.167  0.833-  84 2.44  93 2.44  95 2.44  83 2.44  81 2.44  80 2.44  12 2.44  21 2.44
                            91 2.44  79 2.44   9 2.44   8 2.44
  83  0.833  0.000  0.833-  81 2.44  82 2.44  84 2.44  73 2.44   9 2.44 106 2.44 108 2.44  74 2.44
                            12 2.44  98 2.44  36 2.44   1 2.44
  84  0.833  0.167  0.667-  82 2.44  93 2.44  95 2.44  81 2.44  83 2.44  74 2.44  46 2.44  59 2.44
                            85 2.44  73 2.44  47 2.44  38 2.44
  85  0.000  0.333  0.667-  74 2.44  86 2.44  87 2.44  95 2.44  76 2.44  38 2.44  84 2.44  88 2.44
                            51 2.44  50 2.44  96 2.44  59 2.44
  86  0.000  0.500  0.833-  85 2.44  88 2.44  96 2.44  97 2.44  87 2.44  95 2.44  99 2.44  16 2.44
                            13 2.44 107 2.44  24 2.44  25 2.44
  87  0.167  0.333  0.833-  76 2.44  89 2.44  78 2.44  88 2.44  85 2.44  74 2.44  90 2.44  17 2.44
                             4 2.44  86 2.44  16 2.44  13 2.44
  88  0.167  0.500  0.667-  90 2.44  86 2.44  87 2.44  99 2.44  89 2.44  54 2.44 101 2.44  85 2.44
                            97 2.44  50 2.44  51 2.44  63 2.44
  89  0.333  0.333  0.667-  78 2.44  87 2.44  76 2.44  90 2.44  91 2.44  80 2.44  88 2.44  51 2.44
                            42 2.44  92 2.44  54 2.44  55 2.44
  90  0.333  0.500  0.833-  88 2.44  92 2.44  89 2.44 101 2.44  87 2.44  16 2.44  99 2.44  91 2.44
                            20 2.44  17 2.44 103 2.44  29 2.44
  91  0.500  0.333  0.833-  80 2.44  92 2.44  89 2.44  93 2.44  78 2.44   8 2.44  82 2.44  90 2.44
                            20 2.44  17 2.44  94 2.44  21 2.44
  92  0.500  0.500  0.667-  90 2.44  91 2.44  94 2.44 103 2.44  89 2.44 101 2.44  93 2.44  55 2.44
                            54 2.44 105 2.44  58 2.44  67 2.44
  93  0.667  0.333  0.667-  95 2.44  84 2.44  82 2.44  94 2.44  96 2.44  91 2.44  59 2.44  46 2.44
                            80 2.44  92 2.44  58 2.44  55 2.44
  94  0.667  0.500  0.833-  96 2.44  95 2.44  93 2.44  92 2.44  24 2.44 105 2.44 107 2.44  21 2.44
                            91 2.44 103 2.44  33 2.44  20 2.44
  95  0.833  0.333  0.833-  93 2.44  84 2.44  82 2.44  94 2.44  96 2.44  85 2.44  21 2.44  12 2.44
                            74 2.44  86 2.44  24 2.44  13 2.44
  96  0.833  0.500  0.667-  94 2.44  93 2.44  95 2.44  86 2.44  58 2.44 105 2.44 107 2.44  59 2.44
                            85 2.44  97 2.44  71 2.44  50 2.44
  97  0.000  0.667  0.667-  98 2.44  99 2.44 100 2.44  86 2.44  62 2.44 107 2.44 108 2.44  88 2.44
                            63 2.44  96 2.44  50 2.44  71 2.44
  98  0.000  0.833  0.833-  97 2.44  99 2.44 100 2.44  73 2.44  25 2.44 107 2.44 108 2.44  75 2.44
                            28 2.44  83 2.44   1 2.44  36 2.44
  99  0.167  0.667  0.833- 100 2.44 101 2.44 102 2.44  98 2.44  97 2.44  88 2.44  28 2.44  90 2.44
                            29 2.44  86 2.44  25 2.44  16 2.44
 100  0.167  0.833  0.667-  99 2.44 101 2.44 102 2.44  98 2.44  97 2.44  75 2.44  63 2.44  77 2.44
                            66 2.44  73 2.44  62 2.44  39 2.44
 101  0.333  0.667  0.667- 102 2.44 100 2.44  99 2.44 103 2.44 104 2.44  90 2.44  66 2.44  63 2.44
                            88 2.44  92 2.44  67 2.44  54 2.44
 102  0.333  0.833  0.833- 101 2.44 100 2.44  99 2.44 103 2.44 104 2.44  77 2.44  29 2.44  28 2.44
                            75 2.44  79 2.44  32 2.44   5 2.44
 103  0.500  0.667  0.833- 104 2.44 102 2.44 101 2.44  92 2.44  32 2.44 105 2.44 106 2.44  29 2.44
                            90 2.44  94 2.44  20 2.44  33 2.44
 104  0.500  0.833  0.667- 103 2.44 102 2.44 101 2.44  79 2.44  67 2.44 105 2.44 106 2.44  66 2.44
                            77 2.44  81 2.44  43 2.44  70 2.44
 105  0.667  0.667  0.667- 106 2.44 107 2.44 108 2.44  96 2.44 103 2.44 104 2.44  70 2.44  71 2.44
                            94 2.44  67 2.44  92 2.44  58 2.44
 106  0.667  0.833  0.833- 105 2.44 107 2.44 108 2.44  83 2.44 103 2.44 104 2.44  33 2.44  36 2.44
                            81 2.44  32 2.44  79 2.44   9 2.44
 107  0.833  0.667  0.833- 105 2.44 106 2.44 108 2.44  96 2.44  97 2.44  98 2.44  33 2.44  36 2.44
                            94 2.44  25 2.44  86 2.44  24 2.44
 108  0.833  0.833  0.667- 105 2.44 106 2.44 107 2.44  83 2.44  97 2.44  98 2.44  70 2.44  71 2.44
                            81 2.44  62 2.44  73 2.44  47 2.44
 
  LATTYP: Found a simple cubic cell.
 ALAT       =    10.3348470474
  
  Lattice vectors:
  
 A1 = (  10.3348470474,   0.0000000000,   0.0000000000)
 A2 = (   0.0000000000,  10.3348470474,   0.0000000000)
 A3 = (   0.0000000000,   0.0000000000,  10.3348470474)


Analysis of symmetry for initial positions (statically):
=====================================================================
 Subroutine PRICEL returns following result:
 
  LATTYP: Found a simple cubic cell.
 ALAT       =     3.4449252899
  
  Lattice vectors:
  
 A1 = (   3.4449252899,   0.0000000000,   0.0000000000)
 A2 = (   0.0000000000,   3.4449252899,   0.0000000000)
 A3 = (   0.0000000000,   0.0000000000,   3.4449252443)
 
  27 primitive cells build up your supercell.
 

 Routine SETGRP: Setting up the symmetry group for a 
 simple cubic supercell.


 Subroutine GETGRP returns: Found 48 space group operations
 (whereof 48 operations were pure point group operations)
 out of a pool of 48 trial point group operations.


The static configuration has the point symmetry O_h .


Analysis of symmetry for dynamics (positions and initial velocities):
=====================================================================
 Subroutine PRICEL returns following result:
 
  LATTYP: Found a simple cubic cell.
 ALAT       =     3.4449252899
  
  Lattice vectors:
  
 A1 = (   3.4449252899,   0.0000000000,   0.0000000000)
 A2 = (   0.0000000000,   3.4449252899,   0.0000000000)
 A3 = (   0.0000000000,   0.0000000000,   3.4449252443)
 
  27 primitive cells build up your supercell.
 

 Routine SETGRP: Setting up the symmetry group for a 
 simple cubic supercell.


 Subroutine GETGRP returns: Found 48 space group operations
 (whereof 48 operations were pure point group operations)
 out of a pool of 48 trial point group operations.


The dynamic configuration has the point symmetry O_h .


 Subroutine INISYM returns: Found 48 space group operations
 (whereof 48 operations are pure point group operations),
 and found    27 'primitive' translations

 
 
 KPOINTS: pymatgen generated KPOINTS with grid den

Automatic generation of k-mesh.
Space group operators:
 irot       det(A)        alpha          n_x          n_y          n_z        tau_x        tau_y        tau_z
    1     1.000000     0.000000     1.000000     0.000000     0.000000     0.000000     0.000000     0.000000
    2    -1.000000     0.000000     1.000000     0.000000     0.000000     0.000000     0.000000     0.000000
    3     1.000000   120.000000    -0.577350    -0.577350    -0.577350     0.000000     0.000000     0.000000
    4    -1.000000   120.000000    -0.577350    -0.577350    -0.577350     0.000000     0.000000     0.000000
    5     1.000000   120.000000     0.577350     0.577350     0.577350     0.000000     0.000000     0.000000
    6    -1.000000   120.000000     0.577350     0.577350     0.577350     0.000000     0.000000     0.000000
    7     1.000000    90.000000     0.000000     0.000000    -1.000000     0.000000     0.000000     0.000000
    8    -1.000000    90.000000     0.000000     0.000000    -1.000000     0.000000     0.000000     0.000000
    9     1.000000   180.000000     0.000000     0.707107     0.707107     0.000000     0.000000     0.000000
   10    -1.000000   180.000000     0.000000     0.707107     0.707107     0.000000     0.000000     0.000000
   11     1.000000    90.000000     0.000000     1.000000     0.000000     0.000000     0.000000     0.000000
   12    -1.000000    90.000000     0.000000     1.000000     0.000000     0.000000     0.000000     0.000000
   13     1.000000   180.000000     0.000000     0.000000     1.000000     0.000000     0.000000     0.000000
   14    -1.000000   180.000000     0.000000     0.000000     1.000000     0.000000     0.000000     0.000000
   15     1.000000   120.000000    -0.577350     0.577350     0.577350     0.000000     0.000000     0.000000
   16    -1.000000   120.000000    -0.577350     0.577350     0.577350     0.000000     0.000000     0.000000
   17     1.000000   120.000000    -0.577350     0.577350    -0.577350     0.000000     0.000000     0.000000
   18    -1.000000   120.000000    -0.577350     0.577350    -0.577350     0.000000     0.000000     0.000000
   19     1.000000    90.000000     0.000000     0.000000     1.000000     0.000000     0.000000     0.000000
   20    -1.000000    90.000000     0.000000     0.000000     1.000000     0.000000     0.000000     0.000000
   21     1.000000    90.000000    -1.000000     0.000000     0.000000     0.000000     0.000000     0.000000
   22    -1.000000    90.000000    -1.000000     0.000000     0.000000     0.000000     0.000000     0.000000
   23     1.000000   180.000000     0.707107     0.000000     0.707107     0.000000     0.000000     0.000000
   24    -1.000000   180.000000     0.707107     0.000000     0.707107     0.000000     0.000000     0.000000
   25     1.000000   120.000000     0.577350    -0.577350     0.577350     0.000000     0.000000     0.000000
   26    -1.000000   120.000000     0.577350    -0.577350     0.577350     0.000000     0.000000     0.000000
   27     1.000000   120.000000    -0.577350    -0.577350     0.577350     0.000000     0.000000     0.000000
   28    -1.000000   120.000000    -0.577350    -0.577350     0.577350     0.000000     0.000000     0.000000
   29     1.000000   180.000000     1.000000     0.000000     0.000000     0.000000     0.000000     0.000000
   30    -1.000000   180.000000     1.000000     0.000000     0.000000     0.000000     0.000000     0.000000
   31     1.000000    90.000000     0.000000    -1.000000     0.000000     0.000000     0.000000     0.000000
   32    -1.000000    90.000000     0.000000    -1.000000     0.000000     0.000000     0.000000     0.000000
   33     1.000000   180.000000     0.707107     0.707107     0.000000     0.000000     0.000000     0.000000
   34    -1.000000   180.000000     0.707107     0.707107     0.000000     0.000000     0.000000     0.000000
   35     1.000000    90.000000     1.000000     0.000000     0.000000     0.000000     0.000000     0.000000
   36    -1.000000    90.000000     1.000000     0.000000     0.000000     0.000000     0.000000     0.000000
   37     1.000000   120.000000     0.577350    -0.577350    -0.577350     0.000000     0.000000     0.000000
   38    -1.000000   120.000000     0.577350    -0.577350    -0.577350     0.000000     0.000000     0.000000
   39     1.000000   180.000000     0.000000     1.000000     0.000000     0.000000     0.000000     0.000000
   40    -1.000000   180.000000     0.000000     1.000000     0.000000     0.000000     0.000000     0.000000
   41     1.000000   120.000000     0.577350     0.577350    -0.577350     0.000000     0.000000     0.000000
   42    -1.000000   120.000000     0.577350     0.577350    -0.577350     0.000000     0.000000     0.000000
   43     1.000000   180.000000     0.000000    -0.707107     0.707107     0.000000     0.000000     0.000000
   44    -1.000000   180.000000     0.000000    -0.707107     0.707107     0.000000     0.000000     0.000000
   45     1.000000   180.000000     0.707107    -0.707107     0.000000     0.000000     0.000000     0.000000
   46    -1.000000   180.000000     0.707107    -0.707107     0.000000     0.000000     0.000000     0.000000
   47     1.000000   180.000000     0.707107     0.000000    -0.707107     0.000000     0.000000     0.000000
   48    -1.000000   180.000000     0.707107     0.000000    -0.707107     0.000000     0.000000     0.000000
 
 Subroutine IBZKPT returns following result:
 ===========================================
 
 Found     20 irreducible k-points:
 
 Following reciprocal coordinates:
            Coordinates               Weight
  0.062500  0.062500  0.062500      8.000000
  0.187500  0.062500  0.062500     24.000000
  0.312500  0.062500  0.062500     24.000000
  0.437500  0.062500  0.062500     24.000000
  0.187500  0.187500  0.062500     24.000000
  0.312500  0.187500  0.062500     48.000000
  0.437500  0.187500  0.062500     48.000000
  0.312500  0.312500  0.062500     24.000000
  0.437500  0.312500  0.062500     48.000000
  0.437500  0.437500  0.062500     24.000000
  0.187500  0.187500  0.187500      8.000000
  0.312500  0.187500  0.187500     24.000000
  0.437500  0.187500  0.187500     24.000000
  0.312500  0.312500  0.187500     24.000000
  0.437500  0.312500  0.187500     48.000000
  0.437500  0.437500  0.187500     24.000000
  0.312500  0.312500  0.312500      8.000000
  0.437500  0.312500  0.312500     24.000000
  0.437500  0.437500  0.312500     24.000000
  0.437500  0.437500  0.437500      8.000000
 
 Following cartesian coordinates:
            Coordinates               Weight
  0.006048  0.006048  0.006048      8.000000
  0.018143  0.006048  0.006048     24.000000
  0.030238  0.006048  0.006048     24.000000
  0.042333  0.006048  0.006048     24.000000
  0.018143  0.018143  0.006048     24.000000
  0.030238  0.018143  0.006048     48.000000
  0.042333  0.018143  0.006048     48.000000
  0.030238  0.030238  0.006048     24.000000
  0.042333  0.030238  0.006048     48.000000
  0.042333  0.042333  0.006048     24.000000
  0.018143  0.018143  0.018143      8.000000
  0.030238  0.018143  0.018143     24.000000
  0.042333  0.018143  0.018143     24.000000
  0.030238  0.030238  0.018143     24.000000
  0.042333  0.030238  0.018143     48.000000
  0.042333  0.042333  0.018143     24.000000
  0.030238  0.030238  0.030238      8.000000
  0.042333  0.030238  0.030238     24.000000
  0.042333  0.042333  0.030238     24.000000
  0.042333  0.042333  0.042333      8.000000
 


--------------------------------------------------------------------------------------------------------




 Dimension of arrays:
   k-points           NKPTS =     20   k-points in BZ     NKDIM =     20   number of bands    NBANDS=    518
   number of dos      NEDOS =    301   number of ions     NIONS =    108
   non local maximal  LDIM  =      6   non local SUM 2l+1 LMDIM =     18
   total plane-waves  NPLWV = 373248
   max r-space proj   IRMAX =   4912   max aug-charges    IRDMAX=  12243
   dimension x,y,z NGX =    72 NGY =   72 NGZ =   72
   dimension x,y,z NGXF=   144 NGYF=  144 NGZF=  144
   support grid    NGXF=   144 NGYF=  144 NGZF=  144
   ions per type =             108
   NGX,Y,Z   is equivalent  to a cutoff of  11.58, 11.58, 11.58 a.u.
   NGXF,Y,Z  is equivalent  to a cutoff of  23.16, 23.16, 23.16 a.u.

 Based on PREC, I would recommend the following setting:
   dimension x,y,z NGX =    54 NGY =   54 NGZ =   54

 SYSTEM =  Opt                                     
 POSCAR =  fcc_Fe_CON_333                          

 Startparameter for this run:
   NWRITE =      2    write-flag & timer
   PREC   = normal    normal or accurate (medium, high low for compatibility)
   ISTART =      0    job   : 0-new  1-cont  2-samecut
   ICHARG =      2    charge: 1-file 2-atom 10-const
   ISPIN  =      1    spin polarized calculation?
   LNONCOLLINEAR =      F non collinear calculations
   LSORBIT =      F    spin-orbit coupling
   INIWAV =      1    electr: 0-lowe 1-rand  2-diag
   LASPH  =      F    aspherical Exc in radial PAW
   METAGGA=      F    non-selfconsistent MetaGGA calc.

 Electronic Relaxation 1
   ENCUT  =  400.0 eV  29.40 Ry    5.42 a.u.  16.85 16.85 16.85*2*pi/ulx,y,z
   ENINI  =  400.0     initial cutoff
   ENAUG  =  511.4 eV  augmentation charge cutoff
   NELM   =    400;   NELMIN=  2; NELMDL= -5     # of ELM steps 
   EDIFF  = 0.1E-05   stopping-criterion for ELM
   LREAL  =      T    real-space projection
   NLSPLINE    = F    spline interpolate recip. space projectors
   LCOMPAT=      F    compatible to vasp.4.4
   GGA_COMPAT  = T    GGA compatible to vasp.4.4-vasp.4.6
   LMAXPAW     = -100 max onsite density
   LMAXMIX     =    2 max onsite mixed and CHGCAR
   VOSKOWN=      0    Vosko Wilk Nusair interpolation
   ROPT   =   -0.00050
 Ionic relaxation
   EDIFFG = -.1E-01   stopping-criterion for IOM
   NSW    =    100    number of steps for IOM
   NBLOCK =      1;   KBLOCK =    100    inner block; outer block 
   IBRION =      2    ionic relax: 0-MD 1-quasi-New 2-CG
   NFREE  =      1    steps in history (QN), initial steepest desc. (CG)
   ISIF   =      3    stress and relaxation
   IWAVPR =     11    prediction:  0-non 1-charg 2-wave 3-comb
   ISYM   =      2    0-nonsym 1-usesym 2-fastsym
   LCORR  =      T    Harris-Foulkes like correction to forces

   POTIM  = 0.5000    time-step for ionic-motion
   TEIN   =    0.0    initial temperature
   TEBEG  =    0.0;   TEEND  =   0.0 temperature during run
   SMASS  =  -3.00    Nose mass-parameter (am)
   estimated Nose-frequenzy (Omega)   =  0.10E-29 period in steps =****** mass=  -0.244E-26a.u.
   SCALEE = 1.0000    scale energy and forces
   NPACO  =    256;   APACO  = 16.0  distance and # of slots for P.C.
   PSTRESS=    0.0 pullay stress

  Mass of Ions in am
   POMASS =  55.85
  Ionic Valenz
   ZVAL   =   8.00
  Atomic Wigner-Seitz radii
   RWIGS  =  -1.00
  virtual crystal weights 
   VCA    =   1.00
   NELECT =     864.0000    total number of electrons
   NUPDOWN=      -1.0000    fix difference up-down

 DOS related values:
   EMIN   =  10.00;   EMAX   =-10.00  energy-range for DOS
   EFERMI =   0.00
   ISMEAR =     1;   SIGMA  =   0.20  broadening in eV -4-tet -1-fermi 0-gaus

 Electronic relaxation 2 (details)
   IALGO  =     68    algorithm
   LDIAG  =      T    sub-space diagonalisation (order eigenvalues)
   LSUBROT=      F    optimize rotation matrix (better conditioning)
   TURBO    =      0    0=normal 1=particle mesh
   IRESTART =      0    0=no restart 2=restart with 2 vectors
   NREBOOT  =      0    no. of reboots
   NMIN     =      0    reboot dimension
   EREF     =   0.00    reference energy to select bands
   IMIX   =      4    mixing-type and parameters
     AMIX     =   0.40;   BMIX     =  1.00
     AMIX_MAG =   1.60;   BMIX_MAG =  1.00
     AMIN     =   0.10
     WC   =   100.;   INIMIX=   1;  MIXPRE=   1;  MAXMIX= -45

 Intra band minimization:
   WEIMIN = 0.0010     energy-eigenvalue tresh-hold
   EBREAK =  0.48E-09  absolut break condition
   DEPER  =   0.30     relativ break condition  

   TIME   =   0.40     timestep for ELM

  volume/ion in A,a.u.               =      10.22        68.97
  Fermi-wavevector in a.u.,A,eV,Ry     =   1.508720  2.851068 30.970078  2.276236
  Thomas-Fermi vector in A             =   2.619137
 
 Write flags
   LWAVE        =      F    write WAVECAR
   LDOWNSAMPLE  =      F    k-point downsampling of WAVECAR
   LCHARG       =      F    write CHGCAR
   LVTOT        =      F    write LOCPOT, total local potential
   LVHAR        =      F    write LOCPOT, Hartree potential only
   LELF         =      F    write electronic localiz. function (ELF)
   LORBIT       =      0    0 simple, 1 ext, 2 COOP (PROOUT), +10 PAW based schemes


 Dipole corrections
   LMONO  =      F    monopole corrections only (constant potential shift)
   LDIPOL =      F    correct potential (dipole corrections)
   IDIPOL =      0    1-x, 2-y, 3-z, 4-all directions 
   EPSILON=  1.0000000 bulk dielectric constant

 Exchange correlation treatment:
   GGA     =    --    GGA type
   LEXCH   =     8    internal setting for exchange type
   VOSKOWN=      0    Vosko Wilk Nusair interpolation
   LHFCALC =     F    Hartree Fock is set to
   LHFONE  =     F    Hartree Fock one center treatment
   AEXX    =    0.0000 exact exchange contribution

 Linear response parameters
   LEPSILON=     F    determine dielectric tensor
   LRPA    =     F    only Hartree local field effects (RPA)
   LNABLA  =     F    use nabla operator in PAW spheres
   LVEL    =     F    velocity operator in full k-point grid
   LINTERFAST=   F  fast interpolation
   KINTER  =     0    interpolate to denser k-point grid
   CSHIFT  =0.1000    complex shift for real part using Kramers Kronig
   OMEGAMAX=  -1.0    maximum frequency
   DEG_THRESHOLD= 0.2000000E-02 threshold for treating states as degnerate
   RTIME   =   -0.100 relaxation time in fs
  (WPLASMAI=    0.000 imaginary part of plasma frequency in eV, 0.658/RTIME)
   DFIELD  = 0.0000000 0.0000000 0.0000000 field for delta impulse in time
 
 Orbital magnetization related:
   ORBITALMAG=     F  switch on orbital magnetization
   LCHIMAG   =     F  perturbation theory with respect to B field
   DQ        =  0.001000  dq finite difference perturbation B field
   LLRAUG    =     F  two centre corrections for induced B field



--------------------------------------------------------------------------------------------------------


 conjugate gradient relaxation of ions
 charge density and potential will be updated during run
 non-spin polarized calculation
 RMM-DIIS sequential band-by-band and
  variant of blocked Davidson during initial phase
 perform sub-space diagonalisation
    before iterative eigenvector-optimisation
 modified Broyden-mixing scheme, WC =      100.0
 initial mixing is a Kerker type mixing with AMIX =  0.4000 and BMIX =      1.0000
 Hartree-type preconditioning will be used
 using additional bands           86
 real space projection scheme for non local part
 use partial core corrections
 calculate Harris-corrections to forces 
   (improved forces if not selfconsistent)
 use gradient corrections 
 use of overlap-Matrix (Vanderbilt PP)
 Methfessel and Paxton  Order N= 1 SIGMA  =   0.20


--------------------------------------------------------------------------------------------------------


  energy-cutoff  :      400.00
  volume of cell :     1103.86
      direct lattice vectors                 reciprocal lattice vectors
    10.334847047  0.000000000  0.000000000     0.096760019  0.000000000  0.000000000
     0.000000000 10.334847047  0.000000000     0.000000000  0.096760019  0.000000000
     0.000000000  0.000000000 10.334847047     0.000000000  0.000000000  0.096760019

  length of vectors
    10.334847047 10.334847047 10.334847047     0.096760019  0.096760019  0.096760019


 
 k-points in units of 2pi/SCALE and weight: pymatgen generated KPOINTS with grid den
   0.00604750  0.00604750  0.00604750       0.016
   0.01814250  0.00604750  0.00604750       0.047
   0.03023751  0.00604750  0.00604750       0.047
   0.04233251  0.00604750  0.00604750       0.047
   0.01814250  0.01814250  0.00604750       0.047
   0.03023751  0.01814250  0.00604750       0.094
   0.04233251  0.01814250  0.00604750       0.094
   0.03023751  0.03023751  0.00604750       0.047
   0.04233251  0.03023751  0.00604750       0.094
   0.04233251  0.04233251  0.00604750       0.047
   0.01814250  0.01814250  0.01814250       0.016
   0.03023751  0.01814250  0.01814250       0.047
   0.04233251  0.01814250  0.01814250       0.047
   0.03023751  0.03023751  0.01814250       0.047
   0.04233251  0.03023751  0.01814250       0.094
   0.04233251  0.04233251  0.01814250       0.047
   0.03023751  0.03023751  0.03023751       0.016
   0.04233251  0.03023751  0.03023751       0.047
   0.04233251  0.04233251  0.03023751       0.047
   0.04233251  0.04233251  0.04233251       0.016
 
 k-points in reciprocal lattice and weights: pymatgen generated KPOINTS with grid den
   0.06250000  0.06250000  0.06250000       0.016
   0.18750000  0.06250000  0.06250000       0.047
   0.31250000  0.06250000  0.06250000       0.047
   0.43750000  0.06250000  0.06250000       0.047
   0.18750000  0.18750000  0.06250000       0.047
   0.31250000  0.18750000  0.06250000       0.094
   0.43750000  0.18750000  0.06250000       0.094
   0.31250000  0.31250000  0.06250000       0.047
   0.43750000  0.31250000  0.06250000       0.094
   0.43750000  0.43750000  0.06250000       0.047
   0.18750000  0.18750000  0.18750000       0.016
   0.31250000  0.18750000  0.18750000       0.047
   0.43750000  0.18750000  0.18750000       0.047
   0.31250000  0.31250000  0.18750000       0.047
   0.43750000  0.31250000  0.18750000       0.094
   0.43750000  0.43750000  0.18750000       0.047
   0.31250000  0.31250000  0.31250000       0.016
   0.43750000  0.31250000  0.31250000       0.047
   0.43750000  0.43750000  0.31250000       0.047
   0.43750000  0.43750000  0.43750000       0.016
 
 position of ions in fractional coordinates (direct lattice) 
   0.00000000  0.00000000  0.00000000
   0.00000000  0.16666893  0.16666893
   0.16666893  0.00000000  0.16666893
   0.16666893  0.16666893  0.00000000
   0.33333106  0.00000000  0.00000000
   0.33333107  0.16666893  0.16666893
   0.50000000  0.00000000  0.16666894
   0.50000000  0.16666894  0.00000000
   0.66666897  0.00000000  0.00000000
   0.66666896  0.16666893  0.16666893
   0.83333104  0.00000000  0.16666893
   0.83333104  0.16666893  0.00000000
   0.00000000  0.33333106  0.00000000
   0.00000000  0.50000000  0.16666894
   0.16666893  0.33333107  0.16666893
   0.16666894  0.50000000  0.00000000
   0.33333107  0.33333107  0.00000000
   0.33333107  0.50000000  0.16666893
   0.50000000  0.33333107  0.16666893
   0.50000000  0.50000000  0.00000000
   0.66666896  0.33333107  0.00000000
   0.66666896  0.50000000  0.16666893
   0.83333104  0.33333107  0.16666893
   0.83333103  0.50000000  0.00000000
   0.00000000  0.66666897  0.00000000
   0.00000000  0.83333104  0.16666893
   0.16666893  0.66666896  0.16666893
   0.16666893  0.83333104  0.00000000
   0.33333107  0.66666896  0.00000000
   0.33333107  0.83333104  0.16666893
   0.50000000  0.66666896  0.16666893
   0.50000000  0.83333103  0.00000000
   0.66666896  0.66666896  0.00000000
   0.66666896  0.83333104  0.16666893
   0.83333104  0.66666896  0.16666893
   0.83333104  0.83333104  0.00000000
   0.00000000  0.00000000  0.33333106
   0.00000000  0.16666894  0.50000000
   0.16666894  0.00000000  0.50000000
   0.16666893  0.16666893  0.33333107
   0.33333107  0.00000000  0.33333107
   0.33333107  0.16666893  0.50000000
   0.50000000  0.00000000  0.50000000
   0.50000000  0.16666893  0.33333107
   0.66666896  0.00000000  0.33333107
   0.66666896  0.16666893  0.50000000
   0.83333103  0.00000000  0.50000000
   0.83333104  0.16666893  0.33333107
   0.00000000  0.33333107  0.33333107
   0.00000000  0.50000000  0.50000000
   0.16666893  0.33333107  0.50000000
   0.16666893  0.50000000  0.33333107
   0.33333107  0.33333107  0.33333107
   0.33333106  0.50000000  0.50000000
   0.50000000  0.33333106  0.50000000
   0.50000000  0.50000000  0.33333106
   0.66666896  0.33333107  0.33333107
   0.66666897  0.50000000  0.50000000
   0.83333104  0.33333107  0.50000000
   0.83333104  0.50000000  0.33333107
   0.00000000  0.66666896  0.33333107
   0.00000000  0.83333103  0.50000000
   0.16666893  0.66666896  0.50000000
   0.16666893  0.83333104  0.33333107
   0.33333107  0.66666896  0.33333107
   0.33333107  0.83333104  0.50000000
   0.50000000  0.66666897  0.50000000
   0.50000000  0.83333104  0.33333107
   0.66666896  0.66666896  0.33333107
   0.66666896  0.83333104  0.50000000
   0.83333104  0.66666896  0.50000000
   0.83333104  0.83333104  0.33333107
   0.00000000  0.00000000  0.66666897
   0.00000000  0.16666893  0.83333104
   0.16666893  0.00000000  0.83333104
   0.16666893  0.16666893  0.66666896
   0.33333107  0.00000000  0.66666896
   0.33333107  0.16666893  0.83333104
   0.50000000  0.00000000  0.83333103
   0.50000000  0.16666893  0.66666896
   0.66666896  0.00000000  0.66666896
   0.66666896  0.16666893  0.83333104
   0.83333104  0.00000000  0.83333104
   0.83333104  0.16666893  0.66666896
   0.00000000  0.33333107  0.66666896
   0.00000000  0.50000000  0.83333103
   0.16666893  0.33333107  0.83333104
   0.16666893  0.50000000  0.66666896
   0.33333107  0.33333107  0.66666896
   0.33333107  0.50000000  0.83333104
   0.50000000  0.33333107  0.83333104
   0.50000000  0.50000000  0.66666897
   0.66666896  0.33333107  0.66666896
   0.66666896  0.50000000  0.83333104
   0.83333104  0.33333107  0.83333104
   0.83333104  0.50000000  0.66666896
   0.00000000  0.66666896  0.66666896
   0.00000000  0.83333104  0.83333104
   0.16666893  0.66666896  0.83333104
   0.16666893  0.83333104  0.66666896
   0.33333107  0.66666896  0.66666896
   0.33333107  0.83333104  0.83333104
   0.50000000  0.66666896  0.83333104
   0.50000000  0.83333104  0.66666896
   0.66666896  0.66666896  0.66666896
   0.66666896  0.83333104  0.83333104
   0.83333104  0.66666896  0.83333104
   0.83333104  0.83333104  0.66666896
 
 position of ions in cartesian coordinates  (Angst):
   0.00000000  0.00000000  0.00000000
   0.00000000  1.72249793  1.72249793
   1.72249793  0.00000000  1.72249793
   1.72249793  1.72249793  0.00000000
   3.44492554  0.00000000  0.00000000
   3.44492559  1.72249794  1.72249794
   5.16742352  0.00000000  1.72249798
   5.16742352  1.72249798  0.00000000
   6.88992180  0.00000000  0.00000000
   6.88992176  1.72249794  1.72249794
   8.61234881  0.00000000  1.72249793
   8.61234881  1.72249793  0.00000000
   0.00000000  3.44492554  0.00000000
   0.00000000  5.16742352  1.72249798
   1.72249794  3.44492559  1.72249794
   1.72249798  5.16742352  0.00000000
   3.44492559  3.44492559  0.00000000
   3.44492559  5.16742352  1.72249793
   5.16742352  3.44492559  1.72249793
   5.16742352  5.16742352  0.00000000
   6.88992176  3.44492559  0.00000000
   6.88992176  5.16742352  1.72249793
   8.61234881  3.44492559  1.72249794
   8.61234877  5.16742352  0.00000000
   0.00000000  6.88992180  0.00000000
   0.00000000  8.61234881  1.72249793
   1.72249794  6.88992176  1.72249794
   1.72249793  8.61234881  0.00000000
   3.44492559  6.88992176  0.00000000
   3.44492559  8.61234881  1.72249794
   5.16742352  6.88992176  1.72249793
   5.16742352  8.61234877  0.00000000
   6.88992176  6.88992176  0.00000000
   6.88992176  8.61234881  1.72249794
   8.61234881  6.88992176  1.72249794
   8.61234881  8.61234881  0.00000000
   0.00000000  0.00000000  3.44492554
   0.00000000  1.72249798  5.16742352
   1.72249798  0.00000000  5.16742352
   1.72249794  1.72249794  3.44492559
   3.44492559  0.00000000  3.44492559
   3.44492559  1.72249793  5.16742352
   5.16742352  0.00000000  5.16742352
   5.16742352  1.72249793  3.44492559
   6.88992176  0.00000000  3.44492559
   6.88992176  1.72249793  5.16742352
   8.61234877  0.00000000  5.16742352
   8.61234881  1.72249794  3.44492559
   0.00000000  3.44492559  3.44492559
   0.00000000  5.16742352  5.16742352
   1.72249793  3.44492559  5.16742352
   1.72249793  5.16742352  3.44492559
   3.44492559  3.44492559  3.44492559
   3.44492554  5.16742352  5.16742352
   5.16742352  3.44492554  5.16742352
   5.16742352  5.16742352  3.44492554
   6.88992176  3.44492559  3.44492559
   6.88992180  5.16742352  5.16742352
   8.61234881  3.44492559  5.16742352
   8.61234881  5.16742352  3.44492559
   0.00000000  6.88992176  3.44492559
   0.00000000  8.61234877  5.16742352
   1.72249793  6.88992176  5.16742352
   1.72249794  8.61234881  3.44492559
   3.44492559  6.88992176  3.44492559
   3.44492559  8.61234881  5.16742352
   5.16742352  6.88992180  5.16742352
   5.16742352  8.61234881  3.44492559
   6.88992176  6.88992176  3.44492559
   6.88992176  8.61234881  5.16742352
   8.61234881  6.88992176  5.16742352
   8.61234881  8.61234881  3.44492559
   0.00000000  0.00000000  6.88992180
   0.00000000  1.72249793  8.61234881
   1.72249793  0.00000000  8.61234881
   1.72249794  1.72249794  6.88992176
   3.44492559  0.00000000  6.88992176
   3.44492559  1.72249794  8.61234881
   5.16742352  0.00000000  8.61234877
   5.16742352  1.72249793  6.88992176
   6.88992176  0.00000000  6.88992176
   6.88992176  1.72249794  8.61234881
   8.61234881  0.00000000  8.61234881
   8.61234881  1.72249794  6.88992176
   0.00000000  3.44492559  6.88992176
   0.00000000  5.16742352  8.61234877
   1.72249794  3.44492559  8.61234881
   1.72249793  5.16742352  6.88992176
   3.44492559  3.44492559  6.88992176
   3.44492559  5.16742352  8.61234881
   5.16742352  3.44492559  8.61234881
   5.16742352  5.16742352  6.88992180
   6.88992176  3.44492559  6.88992176
   6.88992176  5.16742352  8.61234881
   8.61234881  3.44492559  8.61234881
   8.61234881  5.16742352  6.88992176
   0.00000000  6.88992176  6.88992176
   0.00000000  8.61234881  8.61234881
   1.72249794  6.88992176  8.61234881
   1.72249794  8.61234881  6.88992176
   3.44492559  6.88992176  6.88992176
   3.44492559  8.61234881  8.61234881
   5.16742352  6.88992176  8.61234881
   5.16742352  8.61234881  6.88992176
   6.88992176  6.88992176  6.88992176
   6.88992176  8.61234881  8.61234881
   8.61234881  6.88992176  8.61234881
   8.61234881  8.61234881  6.88992176
 


--------------------------------------------------------------------------------------------------------


 k-point  1 :   0.0625 0.0625 0.0625  plane waves:   20047
 k-point  2 :   0.1875 0.0625 0.0625  plane waves:   20013
 k-point  3 :   0.3125 0.0625 0.0625  plane waves:   20037
 k-point  4 :   0.4375 0.0625 0.0625  plane waves:   20073
 k-point  5 :   0.1875 0.1875 0.0625  plane waves:   20035
 k-point  6 :   0.3125 0.1875 0.0625  plane waves:   20049
 k-point  7 :   0.4375 0.1875 0.0625  plane waves:   20053
 k-point  8 :   0.3125 0.3125 0.0625  plane waves:   20066
 k-point  9 :   0.4375 0.3125 0.0625  plane waves:   20050
 k-point 10 :   0.4375 0.4375 0.0625  plane waves:   20063
 k-point 11 :   0.1875 0.1875 0.1875  plane waves:   20032
 k-point 12 :   0.3125 0.1875 0.1875  plane waves:   20032
 k-point 13 :   0.4375 0.1875 0.1875  plane waves:   20067
 k-point 14 :   0.3125 0.3125 0.1875  plane waves:   20058
 k-point 15 :   0.4375 0.3125 0.1875  plane waves:   20063
 k-point 16 :   0.4375 0.4375 0.1875  plane waves:   20054
 k-point 17 :   0.3125 0.3125 0.3125  plane waves:   20042
 k-point 18 :   0.4375 0.3125 0.3125  plane waves:   20052
 k-point 19 :   0.4375 0.4375 0.3125  plane waves:   20070
 k-point 20 :   0.4375 0.4375 0.4375  plane waves:   20054

 maximum and minimum number of plane-waves per node :      5049     4986

 maximum number of plane-waves:     20073
 maximum index in each direction: 
   IXMAX=   16   IYMAX=   16   IZMAX=   16
   IXMIN=  -17   IYMIN=  -17   IZMIN=  -17


 real space projection operators:
  total allocation   :      71821.69 KBytes
  max/ min on nodes  :      18240.19      17708.62


 parallel 3D FFT for wavefunctions:
    minimum data exchange during FFTs selected (reduces bandwidth)
 parallel 3D FFT for charge:
    minimum data exchange during FFTs selected (reduces bandwidth)


 total amount of memory used by VASP MPI-rank0   555092. kBytes
=======================================================================

   base      :      30000. kBytes
   nonlr-proj:      31400. kBytes
   fftplans  :      15433. kBytes
   grid      :      21835. kBytes
   one-center:        419. kBytes
   wavefun   :     456005. kBytes
 
     INWAV:  cpu time    0.0000: real time    0.0001
 Broyden mixing: mesh for mixing (old mesh)
   NGX = 33   NGY = 33   NGZ = 33
  (NGX  =144   NGY  =144   NGZ  =144)
  gives a total of  35937 points

 initial charge density was supplied:
 charge density of overlapping atoms calculated
 number of electron     864.0000000 magnetization 
 keeping initial charge density in first step


--------------------------------------------------------------------------------------------------------


 Maximum index for non-local projection operator         1201
 Maximum index for augmentation-charges         1463 (set IRDMAX)


--------------------------------------------------------------------------------------------------------


 First call to EWALD:  gamma=   0.172
 Maximum number of real-space cells 3x 3x 3
 Maximum number of reciprocal cells 3x 3x 3

    FEWALD:  cpu time    0.0104: real time    0.0104


--------------------------------------- Iteration      1(   1)  ---------------------------------------


    POTLOK:  cpu time    0.2883: real time    0.2899
    SETDIJ:  cpu time    0.0516: real time    0.0516
     EDDAV:  cpu time  198.4792: real time  198.6547
       DOS:  cpu time    0.0193: real time    0.0193
    --------------------------------------------
      LOOP:  cpu time  198.8384: real time  199.0156

 eigenvalue-minimisations  : 20744
 total energy-change (2. order) : 0.7591271E+04  (-0.2884896E+05)
 number of electron     864.0000000 magnetization 
 augmentation part      864.0000000 magnetization 

 Free energy of the ion-electron system (eV)
  ---------------------------------------------------
  alpha Z        PSCENC =      7300.31925852
  Ewald energy   TEWEN  =    -66232.83996889
  -Hartree energ DENC   =    -11197.02572337
  -exchange      EXHF   =         0.00000000
  -V(xc)+E(xc)   XCENC  =       446.63038354
  PAW double counting   =     51723.88885462   -52548.28121372
  entropy T*S    EENTRO =         0.00330136
  eigenvalues    EBANDS =     13896.90519798
  atomic energy  EATOM  =     64201.67088057
  Solvation  Ediel_sol  =         0.00000000
  ---------------------------------------------------
  free energy    TOTEN  =      7591.27097062 eV

  energy without entropy =     7591.26766926  energy(sigma->0) =     7591.26987017


--------------------------------------------------------------------------------------------------------




--------------------------------------- Iteration      1(   2)  ---------------------------------------


     EDDAV:  cpu time  204.7224: real time  204.8223
       DOS:  cpu time    0.0281: real time    0.0281
    --------------------------------------------
      LOOP:  cpu time  204.7505: real time  204.8504

 eigenvalue-minimisations  : 20720
 total energy-change (2. order) :-0.7615880E+04  (-0.7446749E+04)
 number of electron     864.0000000 magnetization 
 augmentation part      864.0000000 magnetization 

 Free energy of the ion-electron system (eV)
  ---------------------------------------------------
  alpha Z        PSCENC =      7300.31925852
  Ewald energy   TEWEN  =    -66232.83996889
  -Hartree energ DENC   =    -11197.02572337
  -exchange      EXHF   =         0.00000000
  -V(xc)+E(xc)   XCENC  =       446.63038354
  PAW double counting   =     51723.88885462   -52548.28121372
  entropy T*S    EENTRO =        -0.01151559
  eigenvalues    EBANDS =      6281.03984383
  atomic energy  EATOM  =     64201.67088057
  Solvation  Ediel_sol  =         0.00000000
  ---------------------------------------------------
  free energy    TOTEN  =       -24.60920048 eV

  energy without entropy =      -24.59768489  energy(sigma->0) =      -24.60536195


--------------------------------------------------------------------------------------------------------




--------------------------------------- Iteration      1(   3)  ---------------------------------------


     EDDAV:  cpu time  208.2150: real time  208.3353
       DOS:  cpu time    0.0345: real time    0.0345
    --------------------------------------------
      LOOP:  cpu time  208.2495: real time  208.3698

 eigenvalue-minimisations  : 20848
 total energy-change (2. order) :-0.8264285E+03  (-0.7063780E+03)
 number of electron     864.0000000 magnetization 
 augmentation part      864.0000000 magnetization 

 Free energy of the ion-electron system (eV)
  ---------------------------------------------------
  alpha Z        PSCENC =      7300.31925852
  Ewald energy   TEWEN  =    -66232.83996889
  -Hartree energ DENC   =    -11197.02572337
  -exchange      EXHF   =         0.00000000
  -V(xc)+E(xc)   XCENC  =       446.63038354
  PAW double counting   =     51723.88885462   -52548.28121372
  entropy T*S    EENTRO =         0.00884203
  eigenvalues    EBANDS =      5454.59094814
  atomic energy  EATOM  =     64201.67088057
  Solvation  Ediel_sol  =         0.00000000
  ---------------------------------------------------
  free energy    TOTEN  =      -851.03773855 eV

  energy without entropy =     -851.04658058  energy(sigma->0) =     -851.04068590


--------------------------------------------------------------------------------------------------------




--------------------------------------- Iteration      1(   4)  ---------------------------------------


     EDDAV:  cpu time  360.9847: real time  361.0716
       DOS:  cpu time    0.0356: real time    0.0356
    --------------------------------------------
      LOOP:  cpu time  361.0203: real time  361.1072

 eigenvalue-minimisations  : 37640
 total energy-change (2. order) :-0.1788697E+03  (-0.1678043E+03)
 number of electron     864.0000000 magnetization 
 augmentation part      864.0000000 magnetization 

 Free energy of the ion-electron system (eV)
  ---------------------------------------------------
  alpha Z        PSCENC =      7300.31925852
  Ewald energy   TEWEN  =    -66232.83996889
  -Hartree energ DENC   =    -11197.02572337
  -exchange      EXHF   =         0.00000000
  -V(xc)+E(xc)   XCENC  =       446.63038354
  PAW double counting   =     51723.88885462   -52548.28121372
  entropy T*S    EENTRO =         0.07824341
  eigenvalues    EBANDS =      5275.65183693
  atomic energy  EATOM  =     64201.67088057
  Solvation  Ediel_sol  =         0.00000000
  ---------------------------------------------------
  free energy    TOTEN  =     -1029.90744838 eV

  energy without entropy =    -1029.98569179  energy(sigma->0) =    -1029.93352951


--------------------------------------------------------------------------------------------------------




--------------------------------------- Iteration      1(   5)  ---------------------------------------


     EDDAV:  cpu time  291.5679: real time  291.6163
       DOS:  cpu time    0.0358: real time    0.0358
    CHARGE:  cpu time    8.9231: real time    8.9240
    MIXING:  cpu time    0.0107: real time    0.0107
    --------------------------------------------
      LOOP:  cpu time  300.5374: real time  300.5868

 eigenvalue-minimisations  : 33120
 total energy-change (2. order) :-0.1518886E+02  (-0.1435387E+02)
 number of electron     864.0000692 magnetization 
 augmentation part      382.7838416 magnetization 

 Broyden mixing:
  rms(total) = 0.93444E+01    rms(broyden)= 0.93438E+01
  rms(prec ) = 0.11651E+02
  weight for this iteration     100.00

 Free energy of the ion-electron system (eV)
  ---------------------------------------------------
  alpha Z        PSCENC =      7300.31925852
  Ewald energy   TEWEN  =    -66232.83996889
  -Hartree energ DENC   =    -11197.02572337
  -exchange      EXHF   =         0.00000000
  -V(xc)+E(xc)   XCENC  =       446.63038354
  PAW double counting   =     51723.88885462   -52548.28121372
  entropy T*S    EENTRO =         0.09891393
  eigenvalues    EBANDS =      5260.44230773
  atomic energy  EATOM  =     64201.67088057
  Solvation  Ediel_sol  =         0.00000000
  ---------------------------------------------------
  free energy    TOTEN  =     -1045.09630706 eV

  energy without entropy =    -1045.19522099  energy(sigma->0) =    -1045.12927837


--------------------------------------------------------------------------------------------------------




--------------------------------------- Iteration      1(   6)  ---------------------------------------


    POTLOK:  cpu time    0.2914: real time    0.2925
    SETDIJ:  cpu time    0.0525: real time    0.0525
    EDDIAG:  cpu time   24.1701: real time   24.1730
  RMM-DIIS:  cpu time  115.5528: real time  115.5695
    ORTHCH:  cpu time    5.0141: real time    5.0148
       DOS:  cpu time    0.0387: real time    0.0387
    CHARGE:  cpu time    8.9960: real time    8.9969
    MIXING:  cpu time    0.0084: real time    0.0084
    --------------------------------------------
      LOOP:  cpu time  154.1240: real time  154.1464

 eigenvalue-minimisations  : 20721
 total energy-change (2. order) : 0.1676267E+03  (-0.1353946E+03)
 number of electron     864.0000779 magnetization 
 augmentation part      447.8793916 magnetization 

 Broyden mixing:
  rms(total) = 0.90074E+00    rms(broyden)= 0.89969E+00
  rms(prec ) = 0.97389E+00
  weight for this iteration     100.00

 eigenvalues of (default mixing * dielectric matrix)
  average eigenvalue GAMMA=   0.9477
  0.9477

 Free energy of the ion-electron system (eV)
  ---------------------------------------------------
  alpha Z        PSCENC =      7300.31925852
  Ewald energy   TEWEN  =    -66232.83996889
  -Hartree energ DENC   =     -9342.22184355
  -exchange      EXHF   =         0.00000000
  -V(xc)+E(xc)   XCENC  =       355.84543839
  PAW double counting   =     52445.31853325   -53026.10256477
  entropy T*S    EENTRO =         0.03334372
  eigenvalues    EBANDS =      3420.50735718
  atomic energy  EATOM  =     64201.67088057
  Solvation  Ediel_sol  =         0.00000000
  ---------------------------------------------------
  free energy    TOTEN  =      -877.46956557 eV

  energy without entropy =     -877.50290929  energy(sigma->0) =     -877.48068014


--------------------------------------------------------------------------------------------------------




--------------------------------------- Iteration      1(   7)  ---------------------------------------


    POTLOK:  cpu time    0.2897: real time    0.2908
    SETDIJ:  cpu time    0.0531: real time    0.0531
    EDDIAG:  cpu time   24.2514: real time   24.2549
  RMM-DIIS:  cpu time  124.7721: real time  124.7893
    ORTHCH:  cpu time    5.0145: real time    5.0151
       DOS:  cpu time    0.0386: real time    0.0386
    CHARGE:  cpu time    8.9770: real time    8.9777
    MIXING:  cpu time    0.0089: real time    0.0089
    --------------------------------------------
      LOOP:  cpu time  163.4054: real time  163.4284

 eigenvalue-minimisations  : 22564
 total energy-change (2. order) :-0.2785580E+01  (-0.1098368E+02)
 number of electron     864.0000752 magnetization 
 augmentation part      446.7439948 magnetization 

 Broyden mixing:
  rms(total) = 0.32618E+00    rms(broyden)= 0.32492E+00
  rms(prec ) = 0.36094E+00
  weight for this iteration     100.00

 eigenvalues of (default mixing * dielectric matrix)
  average eigenvalue GAMMA=   1.1037
  1.0760  1.1314

 Free energy of the ion-electron system (eV)
  ---------------------------------------------------
  alpha Z        PSCENC =      7300.31925852
  Ewald energy   TEWEN  =    -66232.83996889
  -Hartree energ DENC   =     -9384.93920099
  -exchange      EXHF   =         0.00000000
  -V(xc)+E(xc)   XCENC  =       360.43583843
  PAW double counting   =     54329.92229431   -55107.23083484
  entropy T*S    EENTRO =         0.03469942
  eigenvalues    EBANDS =      3652.37188765
  atomic energy  EATOM  =     64201.67088057
  Solvation  Ediel_sol  =         0.00000000
  ---------------------------------------------------
  free energy    TOTEN  =      -880.25514582 eV

  energy without entropy =     -880.28984524  energy(sigma->0) =     -880.26671229


--------------------------------------------------------------------------------------------------------




--------------------------------------- Iteration      1(   8)  ---------------------------------------


    POTLOK:  cpu time    0.2776: real time    0.2792
    SETDIJ:  cpu time    0.0521: real time    0.0521
    EDDIAG:  cpu time   24.2452: real time   24.2477
  RMM-DIIS:  cpu time  121.2893: real time  121.3224
    ORTHCH:  cpu time    4.9320: real time    4.9399
       DOS:  cpu time    0.0378: real time    0.0378
    CHARGE:  cpu time    8.8031: real time    8.8038
    MIXING:  cpu time    0.0081: real time    0.0081
    --------------------------------------------
      LOOP:  cpu time  159.6451: real time  159.6909

 eigenvalue-minimisations  : 22108
 total energy-change (2. order) : 0.8422512E+00  (-0.1277351E+01)
 number of electron     864.0000749 magnetization 
 augmentation part      443.1543724 magnetization 

 Broyden mixing:
  rms(total) = 0.51313E+00    rms(broyden)= 0.51302E+00
  rms(prec ) = 0.69322E+00
  weight for this iteration     100.00

 eigenvalues of (default mixing * dielectric matrix)
  average eigenvalue GAMMA=   0.8163
  1.0089  1.2309  0.2090

 Free energy of the ion-electron system (eV)
  ---------------------------------------------------
  alpha Z        PSCENC =      7300.31925852
  Ewald energy   TEWEN  =    -66232.83996889
  -Hartree energ DENC   =     -9414.22945019
  -exchange      EXHF   =         0.00000000
  -V(xc)+E(xc)   XCENC  =       363.00971261
  PAW double counting   =     56149.16293051   -57036.09457645
  entropy T*S    EENTRO =         0.04004510
  eigenvalues    EBANDS =      3789.54827357
  atomic energy  EATOM  =     64201.67088057
  Solvation  Ediel_sol  =         0.00000000
  ---------------------------------------------------
  free energy    TOTEN  =      -879.41289463 eV

  energy without entropy =     -879.45293973  energy(sigma->0) =     -879.42624300


--------------------------------------------------------------------------------------------------------




--------------------------------------- Iteration      1(   9)  ---------------------------------------


    POTLOK:  cpu time    0.2788: real time    0.2799
    SETDIJ:  cpu time    0.0517: real time    0.0517
    EDDIAG:  cpu time   23.1484: real time   23.1521
  RMM-DIIS:  cpu time  147.5681: real time  147.5875
    ORTHCH:  cpu time    4.9672: real time    4.9682
       DOS:  cpu time    0.0392: real time    0.0392
    CHARGE:  cpu time    8.8669: real time    8.8676
    MIXING:  cpu time    0.0092: real time    0.0092
    --------------------------------------------
      LOOP:  cpu time  184.9295: real time  184.9553

 eigenvalue-minimisations  : 28219
 total energy-change (2. order) :-0.2804023E+00  (-0.4455474E+00)
 number of electron     864.0000751 magnetization 
 augmentation part      443.8655581 magnetization 

 Broyden mixing:
  rms(total) = 0.29425E+00    rms(broyden)= 0.29398E+00
  rms(prec ) = 0.38176E+00
  weight for this iteration     100.00

 eigenvalues of (default mixing * dielectric matrix)
  average eigenvalue GAMMA=   1.1403
  2.3795  1.0346  1.0346  0.1128

 Free energy of the ion-electron system (eV)
  ---------------------------------------------------
  alpha Z        PSCENC =      7300.31925852
  Ewald energy   TEWEN  =    -66232.83996889
  -Hartree energ DENC   =     -9406.65022351
  -exchange      EXHF   =         0.00000000
  -V(xc)+E(xc)   XCENC  =       362.71392339
  PAW double counting   =     56312.52153518   -57205.77016210
  entropy T*S    EENTRO =         0.03836223
  eigenvalues    EBANDS =      3788.30309771
  atomic energy  EATOM  =     64201.67088057
  Solvation  Ediel_sol  =         0.00000000
  ---------------------------------------------------
  free energy    TOTEN  =      -879.69329690 eV

  energy without entropy =     -879.73165913  energy(sigma->0) =     -879.70608431


--------------------------------------------------------------------------------------------------------




--------------------------------------- Iteration      1(  10)  ---------------------------------------


    POTLOK:  cpu time    0.2874: real time    0.2878
    SETDIJ:  cpu time    0.0524: real time    0.0524
    EDDIAG:  cpu time   23.6844: real time   23.6878
  RMM-DIIS:  cpu time  146.0968: real time  146.1604
    ORTHCH:  cpu time    4.9930: real time    4.9935
       DOS:  cpu time    0.0395: real time    0.0395
    CHARGE:  cpu time    8.7415: real time    8.7423
    MIXING:  cpu time    0.0088: real time    0.0088
    --------------------------------------------
      LOOP:  cpu time  183.9038: real time  183.9725

 eigenvalue-minimisations  : 26860
 total energy-change (2. order) : 0.1677107E+00  (-0.8951104E-01)
 number of electron     864.0000752 magnetization 
 augmentation part      444.8122268 magnetization 

 Broyden mixing:
  rms(total) = 0.56303E-01    rms(broyden)= 0.56171E-01
  rms(prec ) = 0.69374E-01
  weight for this iteration     100.00

 eigenvalues of (default mixing * dielectric matrix)
  average eigenvalue GAMMA=   1.2339
  2.6538  1.4886  0.9573  0.9573  0.1126

 Free energy of the ion-electron system (eV)
  ---------------------------------------------------
  alpha Z        PSCENC =      7300.31925852
  Ewald energy   TEWEN  =    -66232.83996889
  -Hartree energ DENC   =     -9333.77800833
  -exchange      EXHF   =         0.00000000
  -V(xc)+E(xc)   XCENC  =       359.85239386
  PAW double counting   =     57805.70380017   -58746.53569211
  entropy T*S    EENTRO =         0.03819676
  eigenvalues    EBANDS =      3766.04355320
  atomic energy  EATOM  =     64201.67088057
  Solvation  Ediel_sol  =         0.00000000
  ---------------------------------------------------
  free energy    TOTEN  =      -879.52558624 eV

  energy without entropy =     -879.56378300  energy(sigma->0) =     -879.53831849


--------------------------------------------------------------------------------------------------------




--------------------------------------- Iteration      1(  11)  ---------------------------------------


    POTLOK:  cpu time    0.2914: real time    0.2927
    SETDIJ:  cpu time    0.0524: real time    0.0524
    EDDIAG:  cpu time   24.2199: real time   24.2223
  RMM-DIIS:  cpu time  161.3873: real time  161.4061
    ORTHCH:  cpu time    5.0722: real time    5.0727
       DOS:  cpu time    0.0386: real time    0.0386
    CHARGE:  cpu time    9.2118: real time    9.2125
    MIXING:  cpu time    0.0107: real time    0.0107
    --------------------------------------------
      LOOP:  cpu time  200.2843: real time  200.3080

 eigenvalue-minimisations  : 29019
 total energy-change (2. order) :-0.1162183E-01  (-0.1160610E-01)
 number of electron     864.0000753 magnetization 
 augmentation part      444.9026146 magnetization 

 Broyden mixing:
  rms(total) = 0.50551E-01    rms(broyden)= 0.50549E-01
  rms(prec ) = 0.63764E-01
  weight for this iteration     100.00

 eigenvalues of (default mixing * dielectric matrix)
  average eigenvalue GAMMA=   1.2529
  2.6577  1.9708  0.9677  0.9677  0.8411  0.1126

 Free energy of the ion-electron system (eV)
  ---------------------------------------------------
  alpha Z        PSCENC =      7300.31925852
  Ewald energy   TEWEN  =    -66232.83996889
  -Hartree energ DENC   =     -9337.09370807
  -exchange      EXHF   =         0.00000000
  -V(xc)+E(xc)   XCENC  =       360.03008642
  PAW double counting   =     58028.61893309   -58969.63810909
  entropy T*S    EENTRO =         0.03973650
  eigenvalues    EBANDS =      3769.35568287
  atomic energy  EATOM  =     64201.67088057
  Solvation  Ediel_sol  =         0.00000000
  ---------------------------------------------------
  free energy    TOTEN  =      -879.53720807 eV

  energy without entropy =     -879.57694457  energy(sigma->0) =     -879.55045357


--------------------------------------------------------------------------------------------------------




--------------------------------------- Iteration      1(  12)  ---------------------------------------


    POTLOK:  cpu time    0.3058: real time    0.3235
    SETDIJ:  cpu time    0.0540: real time    0.0540
    EDDIAG:  cpu time   25.9413: real time   25.9441
  RMM-DIIS:  cpu time  138.0873: real time  138.1168
    ORTHCH:  cpu time    5.0456: real time    5.0461
       DOS:  cpu time    0.0394: real time    0.0394
    CHARGE:  cpu time    9.0310: real time    9.0316
    MIXING:  cpu time    0.0116: real time    0.0116
    --------------------------------------------
      LOOP:  cpu time  178.5160: real time  178.5670

 eigenvalue-minimisations  : 23023
 total energy-change (2. order) : 0.4309581E-02  (-0.2153404E-02)
 number of electron     864.0000752 magnetization 
 augmentation part      444.6873875 magnetization 

 Broyden mixing:
  rms(total) = 0.11820E-01    rms(broyden)= 0.11818E-01
  rms(prec ) = 0.14949E-01
  weight for this iteration     100.00

 eigenvalues of (default mixing * dielectric matrix)
  average eigenvalue GAMMA=   1.2997
  2.5027  2.5027  1.1316  0.9857  0.9857  0.8771  0.1126

 Free energy of the ion-electron system (eV)
  ---------------------------------------------------
  alpha Z        PSCENC =      7300.31925852
  Ewald energy   TEWEN  =    -66232.83996889
  -Hartree energ DENC   =     -9347.06212564
  -exchange      EXHF   =         0.00000000
  -V(xc)+E(xc)   XCENC  =       360.46852464
  PAW double counting   =     58033.66435501   -58971.54419551
  entropy T*S    EENTRO =         0.04126910
  eigenvalues    EBANDS =      3775.74910369
  atomic energy  EATOM  =     64201.67088057
  Solvation  Ediel_sol  =         0.00000000
  ---------------------------------------------------
  free energy    TOTEN  =      -879.53289849 eV

  energy without entropy =     -879.57416759  energy(sigma->0) =     -879.54665486


--------------------------------------------------------------------------------------------------------




--------------------------------------- Iteration      1(  13)  ---------------------------------------


    POTLOK:  cpu time    0.3113: real time    0.3118
    SETDIJ:  cpu time    0.0515: real time    0.0515
    EDDIAG:  cpu time   25.7513: real time   25.7545
  RMM-DIIS:  cpu time  169.9205: real time  169.9402
    ORTHCH:  cpu time    5.1372: real time    5.1406
       DOS:  cpu time    0.0400: real time    0.0400
    CHARGE:  cpu time    9.0683: real time    9.0778
    MIXING:  cpu time    0.0114: real time    0.0114
    --------------------------------------------
      LOOP:  cpu time  210.2915: real time  210.3278

 eigenvalue-minimisations  : 27657
 total energy-change (2. order) :-0.3803448E-03  (-0.1058102E-02)
 number of electron     864.0000752 magnetization 
 augmentation part      444.5828800 magnetization 

 Broyden mixing:
  rms(total) = 0.45017E-02    rms(broyden)= 0.45001E-02
  rms(prec ) = 0.56860E-02
  weight for this iteration     100.00

 eigenvalues of (default mixing * dielectric matrix)
  average eigenvalue GAMMA=   1.2277
  2.5119  2.3824  0.1126  1.2879  0.9760  0.9760  0.8641  0.7106

 Free energy of the ion-electron system (eV)
  ---------------------------------------------------
  alpha Z        PSCENC =      7300.31925852
  Ewald energy   TEWEN  =    -66232.83996889
  -Hartree energ DENC   =     -9350.46975127
  -exchange      EXHF   =         0.00000000
  -V(xc)+E(xc)   XCENC  =       360.61279399
  PAW double counting   =     58025.42232252   -58961.64226718
  entropy T*S    EENTRO =         0.04208768
  eigenvalues    EBANDS =      3777.35136522
  atomic energy  EATOM  =     64201.67088057
  Solvation  Ediel_sol  =         0.00000000
  ---------------------------------------------------
  free energy    TOTEN  =      -879.53327883 eV

  energy without entropy =     -879.57536652  energy(sigma->0) =     -879.54730806


--------------------------------------------------------------------------------------------------------




--------------------------------------- Iteration      1(  14)  ---------------------------------------


    POTLOK:  cpu time    0.2962: real time    0.2972
    SETDIJ:  cpu time    0.0558: real time    0.0558
    EDDIAG:  cpu time   25.1341: real time   25.1382
  RMM-DIIS:  cpu time  164.6544: real time  164.6772
    ORTHCH:  cpu time    5.1381: real time    5.1392
       DOS:  cpu time    0.0398: real time    0.0398
    CHARGE:  cpu time    9.7925: real time    9.7952
    MIXING:  cpu time    0.0146: real time    0.0146
    --------------------------------------------
      LOOP:  cpu time  205.1255: real time  205.1571

 eigenvalue-minimisations  : 26819
 total energy-change (2. order) :-0.3331833E-04  (-0.4807710E-04)
 number of electron     864.0000752 magnetization 
 augmentation part      444.6020326 magnetization 

 Broyden mixing:
  rms(total) = 0.11026E-02    rms(broyden)= 0.11023E-02
  rms(prec ) = 0.14281E-02
  weight for this iteration     100.00

 eigenvalues of (default mixing * dielectric matrix)
  average eigenvalue GAMMA=   1.3017
  2.4936  2.4936  0.1126  1.2353  1.2353  1.2487  1.0129  1.0129  0.8705

 Free energy of the ion-electron system (eV)
  ---------------------------------------------------
  alpha Z        PSCENC =      7300.31925852
  Ewald energy   TEWEN  =    -66232.83996889
  -Hartree energ DENC   =     -9349.52845127
  -exchange      EXHF   =         0.00000000
  -V(xc)+E(xc)   XCENC  =       360.57178678
  PAW double counting   =     58023.29895399   -58959.66694127
  entropy T*S    EENTRO =         0.04254527
  eigenvalues    EBANDS =      3776.59862414
  atomic energy  EATOM  =     64201.67088057
  Solvation  Ediel_sol  =         0.00000000
  ---------------------------------------------------
  free energy    TOTEN  =      -879.53331215 eV

  energy without entropy =     -879.57585742  energy(sigma->0) =     -879.54749391


--------------------------------------------------------------------------------------------------------




--------------------------------------- Iteration      1(  15)  ---------------------------------------


    POTLOK:  cpu time    0.3427: real time    0.3442
    SETDIJ:  cpu time    0.0546: real time    0.0546
    EDDIAG:  cpu time   27.0540: real time   27.0627
  RMM-DIIS:  cpu time  167.6048: real time  167.6617
    ORTHCH:  cpu time    5.1301: real time    5.1307
       DOS:  cpu time    0.0401: real time    0.0402
    CHARGE:  cpu time   10.0959: real time   10.0974
    MIXING:  cpu time    0.0163: real time    0.0163
    --------------------------------------------
      LOOP:  cpu time  210.3387: real time  210.4077

 eigenvalue-minimisations  : 27477
 total energy-change (2. order) : 0.2382177E-04  ( 0.1885214E-04)
[...]
   0.105E-01 -.143E-04 -.103E-01   -.205E-01 0.277E-04 0.202E-01   -.476E-21 0.847E-20 -.847E-21   -.586E-08 0.218E-07 -.159E-07
   0.105E-01 0.103E-01 0.143E-04   -.205E-01 -.202E-01 -.277E-04   -.835E-22 0.135E-19 0.847E-20   -.586E-08 0.158E-07 -.218E-07
   -.105E-01 -.143E-04 0.143E-04   0.205E-01 0.277E-04 -.277E-04   0.000E+00 -.102E-19 -.131E-19   0.593E-08 0.218E-07 -.218E-07
   -.105E-01 0.104E-01 -.104E-01   0.205E-01 -.202E-01 0.202E-01   0.000E+00 -.996E-20 0.635E-20   0.594E-08 0.158E-07 -.159E-07
   -.143E-04 -.103E-01 -.103E-01   0.277E-04 0.202E-01 0.202E-01   0.424E-21 -.381E-20 -.339E-19   0.218E-07 -.159E-07 -.159E-07
   -.143E-04 0.143E-04 0.143E-04   0.277E-04 -.277E-04 -.277E-04   0.424E-21 -.292E-19 -.144E-19   0.218E-07 -.218E-07 -.218E-07
   0.103E-01 -.103E-01 0.143E-04   -.202E-01 0.202E-01 -.277E-04   0.204E-21 0.424E-21 -.932E-20   0.158E-07 -.159E-07 -.218E-07
   0.103E-01 0.143E-04 -.103E-01   -.202E-01 -.277E-04 0.202E-01   0.373E-20 0.254E-20 -.309E-19   0.158E-07 -.218E-07 -.159E-07
   -.104E-01 -.104E-01 -.104E-01   0.202E-01 0.202E-01 0.202E-01   0.000E+00 -.678E-20 0.296E-20   -.159E-07 -.159E-07 -.159E-07
   -.104E-01 0.143E-04 0.143E-04   0.203E-01 -.277E-04 -.277E-04   0.000E+00 -.424E-20 -.762E-20   -.159E-07 -.218E-07 -.218E-07
   0.143E-04 -.104E-01 0.143E-04   -.277E-04 0.203E-01 -.277E-04   -.127E-20 0.847E-21 0.805E-20   -.218E-07 -.159E-07 -.218E-07
   0.143E-04 0.143E-04 -.104E-01   -.277E-04 -.277E-04 0.203E-01   0.127E-20 0.381E-20 -.665E-19   -.218E-07 -.218E-07 -.159E-07
   0.105E-01 -.104E-01 -.104E-01   -.205E-01 0.202E-01 0.202E-01   0.265E-22 0.381E-20 -.212E-20   -.584E-08 -.159E-07 -.159E-07
   0.105E-01 0.143E-04 0.143E-04   -.205E-01 -.277E-04 -.277E-04   -.725E-21 -.424E-21 0.246E-19   -.583E-08 -.218E-07 -.218E-07
   -.105E-01 -.103E-01 0.143E-04   0.205E-01 0.202E-01 -.277E-04   0.000E+00 -.635E-20 0.805E-20   0.596E-08 -.159E-07 -.218E-07
   -.105E-01 0.143E-04 -.103E-01   0.205E-01 -.277E-04 0.202E-01   0.000E+00 -.212E-20 -.364E-19   0.596E-08 -.218E-07 -.159E-07
   -.143E-04 0.105E-01 -.103E-01   0.277E-04 -.205E-01 0.202E-01   -.424E-21 -.108E-19 -.377E-19   0.218E-07 -.586E-08 -.159E-07
   -.143E-04 -.105E-01 0.143E-04   0.277E-04 0.205E-01 -.277E-04   -.847E-21 0.165E-19 -.169E-20   0.218E-07 0.593E-08 -.218E-07
   0.103E-01 0.105E-01 0.143E-04   -.202E-01 -.205E-01 -.277E-04   0.728E-21 0.558E-20 0.847E-20   0.158E-07 -.586E-08 -.218E-07
   0.104E-01 -.105E-01 -.104E-01   -.202E-01 0.205E-01 0.202E-01   -.192E-20 0.254E-20 0.847E-21   0.158E-07 0.594E-08 -.159E-07
   -.104E-01 0.105E-01 -.104E-01   0.202E-01 -.205E-01 0.202E-01   0.000E+00 0.619E-20 0.593E-20   -.159E-07 -.584E-08 -.159E-07
   -.103E-01 -.105E-01 0.143E-04   0.202E-01 0.205E-01 -.277E-04   0.000E+00 -.127E-20 -.169E-20   -.159E-07 0.596E-08 -.218E-07
   0.143E-04 0.105E-01 0.143E-04   -.277E-04 -.205E-01 -.277E-04   -.424E-21 -.131E-19 0.381E-20   -.218E-07 -.583E-08 -.218E-07
   0.143E-04 -.105E-01 -.103E-01   -.277E-04 0.205E-01 0.202E-01   -.254E-20 -.339E-20 0.144E-19   -.218E-07 0.596E-08 -.159E-07
   0.105E-01 0.105E-01 -.104E-01   -.205E-01 -.205E-01 0.202E-01   0.903E-21 -.169E-21 -.148E-19   -.584E-08 -.584E-08 -.159E-07
   0.105E-01 -.105E-01 0.143E-04   -.205E-01 0.205E-01 -.277E-04   0.324E-21 -.127E-19 -.220E-19   -.586E-08 0.596E-08 -.218E-07
   -.105E-01 0.105E-01 0.143E-04   0.205E-01 -.205E-01 -.277E-04   0.000E+00 0.389E-20 0.381E-20   0.596E-08 -.586E-08 -.218E-07
   -.105E-01 -.105E-01 -.104E-01   0.205E-01 0.205E-01 0.202E-01   0.000E+00 0.169E-20 0.424E-20   0.594E-08 0.594E-08 -.159E-07
   -.143E-04 -.143E-04 0.105E-01   0.277E-04 0.277E-04 -.205E-01   -.424E-21 0.169E-20 -.260E-19   0.218E-07 0.218E-07 -.582E-08
   -.143E-04 0.103E-01 -.105E-01   0.277E-04 -.202E-01 0.205E-01   0.424E-21 -.165E-19 -.127E-20   0.218E-07 0.158E-07 0.596E-08
   0.103E-01 -.143E-04 -.105E-01   -.202E-01 0.277E-04 0.205E-01   0.476E-21 0.635E-20 0.127E-19   0.158E-07 0.218E-07 0.596E-08
   0.104E-01 0.104E-01 0.105E-01   -.202E-01 -.202E-01 -.205E-01   0.769E-21 -.359E-20 -.349E-19   0.158E-07 0.158E-07 -.585E-08
   -.103E-01 -.143E-04 0.105E-01   0.202E-01 0.277E-04 -.205E-01   0.000E+00 -.296E-20 -.416E-19   -.159E-07 0.218E-07 -.586E-08
   -.104E-01 0.104E-01 -.105E-01   0.202E-01 -.202E-01 0.205E-01   0.000E+00 0.219E-20 -.152E-19   -.159E-07 0.158E-07 0.594E-08
   0.143E-04 -.143E-04 -.105E-01   -.277E-04 0.277E-04 0.205E-01   -.847E-21 -.424E-20 0.191E-19   -.218E-07 0.218E-07 0.593E-08
   0.143E-04 0.103E-01 0.105E-01   -.277E-04 -.202E-01 -.205E-01   -.424E-21 -.108E-19 -.197E-19   -.218E-07 0.158E-07 -.586E-08
   0.105E-01 -.143E-04 0.105E-01   -.205E-01 0.277E-04 -.205E-01   0.131E-21 -.127E-20 -.561E-20   -.586E-08 0.218E-07 -.586E-08
   0.105E-01 0.104E-01 -.105E-01   -.205E-01 -.202E-01 0.205E-01   0.599E-21 0.388E-20 0.127E-20   -.585E-08 0.158E-07 0.594E-08
   -.105E-01 -.143E-04 -.105E-01   0.205E-01 0.277E-04 0.205E-01   0.000E+00 -.466E-20 0.551E-20   0.596E-08 0.218E-07 0.596E-08
   -.105E-01 0.104E-01 0.105E-01   0.205E-01 -.202E-01 -.205E-01   0.000E+00 -.189E-20 -.281E-19   0.594E-08 0.158E-07 -.585E-08
   -.143E-04 -.103E-01 0.105E-01   0.277E-04 0.202E-01 -.205E-01   0.424E-21 -.212E-20 0.130E-19   0.218E-07 -.159E-07 -.586E-08
   -.143E-04 0.143E-04 -.105E-01   0.277E-04 -.277E-04 0.205E-01   -.424E-21 -.144E-19 0.195E-19   0.218E-07 -.218E-07 0.593E-08
   0.104E-01 -.104E-01 -.105E-01   -.202E-01 0.202E-01 0.205E-01   -.311E-20 -.212E-20 0.932E-20   0.158E-07 -.159E-07 0.594E-08
   0.103E-01 0.143E-04 0.105E-01   -.202E-01 -.277E-04 -.205E-01   0.105E-20 0.889E-20 0.257E-19   0.158E-07 -.218E-07 -.586E-08
   -.104E-01 -.104E-01 0.105E-01   0.202E-01 0.202E-01 -.205E-01   0.000E+00 0.424E-20 0.232E-19   -.159E-07 -.159E-07 -.584E-08
   -.103E-01 0.143E-04 -.105E-01   0.202E-01 -.277E-04 0.205E-01   0.000E+00 -.593E-20 -.246E-19   -.159E-07 -.218E-07 0.596E-08
   0.143E-04 -.103E-01 -.105E-01   -.277E-04 0.202E-01 0.205E-01   0.000E+00 0.847E-20 -.110E-19   -.218E-07 -.159E-07 0.596E-08
   0.143E-04 0.143E-04 0.105E-01   -.277E-04 -.277E-04 -.205E-01   0.424E-21 0.102E-19 0.663E-19   -.218E-07 -.218E-07 -.583E-08
   0.105E-01 -.104E-01 0.105E-01   -.205E-01 0.202E-01 -.205E-01   -.162E-21 0.424E-21 -.179E-19   -.584E-08 -.159E-07 -.584E-08
   0.105E-01 0.143E-04 -.105E-01   -.205E-01 -.277E-04 0.205E-01   -.115E-21 0.110E-19 -.178E-19   -.586E-08 -.218E-07 0.596E-08
   -.105E-01 -.104E-01 -.105E-01   0.205E-01 0.202E-01 0.205E-01   0.000E+00 -.212E-20 0.593E-20   0.594E-08 -.159E-07 0.594E-08
   -.105E-01 0.143E-04 0.105E-01   0.205E-01 -.277E-04 -.205E-01   0.000E+00 0.191E-19 0.634E-19   0.596E-08 -.218E-07 -.586E-08
   -.143E-04 0.105E-01 0.105E-01   0.277E-04 -.205E-01 -.205E-01   0.424E-21 0.382E-20 0.878E-20   0.218E-07 -.586E-08 -.586E-08
   -.143E-04 -.105E-01 -.105E-01   0.277E-04 0.205E-01 0.205E-01   0.847E-21 0.551E-20 0.169E-19   0.218E-07 0.596E-08 0.596E-08
   0.104E-01 0.105E-01 -.105E-01   -.202E-01 -.205E-01 0.205E-01   -.298E-21 0.685E-20 -.136E-19   0.158E-07 -.585E-08 0.594E-08
   0.104E-01 -.105E-01 0.105E-01   -.202E-01 0.205E-01 -.205E-01   0.539E-21 0.847E-20 0.701E-20   0.158E-07 0.594E-08 -.585E-08
   -.104E-01 0.105E-01 0.105E-01   0.202E-01 -.205E-01 -.205E-01   0.000E+00 0.764E-20 0.453E-20   -.159E-07 -.584E-08 -.584E-08
   -.104E-01 -.105E-01 -.105E-01   0.202E-01 0.205E-01 0.205E-01   0.000E+00 -.102E-19 -.296E-20   -.159E-07 0.594E-08 0.594E-08
   0.143E-04 0.105E-01 -.105E-01   -.277E-04 -.205E-01 0.205E-01   0.000E+00 -.173E-19 0.131E-19   -.218E-07 -.586E-08 0.596E-08
   0.143E-04 -.105E-01 0.105E-01   -.277E-04 0.205E-01 -.205E-01   0.847E-21 -.127E-20 -.652E-20   -.218E-07 0.596E-08 -.586E-08
   0.105E-01 0.105E-01 0.105E-01   -.205E-01 -.205E-01 -.205E-01   -.169E-21 -.253E-20 0.253E-19   -.584E-08 -.584E-08 -.584E-08
   0.105E-01 -.105E-01 -.105E-01   -.205E-01 0.205E-01 0.205E-01   0.556E-21 -.131E-19 -.296E-20   -.585E-08 0.594E-08 0.594E-08
   -.105E-01 0.105E-01 -.105E-01   0.205E-01 -.205E-01 0.205E-01   0.000E+00 -.768E-21 0.466E-20   0.594E-08 -.585E-08 0.594E-08
   -.105E-01 -.105E-01 0.105E-01   0.205E-01 0.205E-01 -.205E-01   0.000E+00 0.635E-20 0.323E-20   0.594E-08 0.594E-08 -.585E-08
 -----------------------------------------------------------------------------------------------
   0.433E-10 0.783E-10 -.892E-11   0.199E-12 0.130E-14 -.809E-13   -.303E-20 -.366E-19 0.157E-19   -.974E-11 -.111E-11 -.455E-11
 
 
 POSITION                                       TOTAL-FORCE (eV/Angst)
 -----------------------------------------------------------------------------------
      0.00000      0.00000      0.00000        -0.000000      0.000000     -0.000000
      0.00000      1.72250      1.72250         0.000000      0.000000     -0.000000
      1.72250      0.00000      1.72250         0.000000      0.000000     -0.000000
      1.72250      1.72250      0.00000         0.000000      0.000000     -0.000000
      3.44493      0.00000      0.00000         0.000000     -0.000000      0.000000
      3.44493      1.72250      1.72250         0.000000     -0.000000      0.000000
      5.16742      0.00000      1.72250        -0.000000      0.000000     -0.000000
      5.16742      1.72250      0.00000         0.000000      0.000000     -0.000000
      6.88992      0.00000      0.00000        -0.000000      0.000000     -0.000000
      6.88992      1.72250      1.72250        -0.000000     -0.000000     -0.000000
      8.61235      0.00000      1.72250        -0.000000     -0.000000      0.000000
      8.61235      1.72250      0.00000        -0.000000      0.000000     -0.000000
      0.00000      3.44493      0.00000        -0.000000     -0.000000     -0.000000
      0.00000      5.16742      1.72250        -0.000000      0.000000     -0.000000
      1.72250      3.44493      1.72250         0.000000      0.000000     -0.000000
      1.72250      5.16742      0.00000         0.000000     -0.000000      0.000000
      3.44493      3.44493      0.00000        -0.000000     -0.000000      0.000000
      3.44493      5.16742      1.72250        -0.000000     -0.000000      0.000000
      5.16742      3.44493      1.72250         0.000000      0.000000      0.000000
      5.16742      5.16742      0.00000        -0.000000      0.000000      0.000000
      6.88992      3.44493      0.00000        -0.000000     -0.000000      0.000000
      6.88992      5.16742      1.72250         0.000000     -0.000000      0.000000
      8.61235      3.44493      1.72250        -0.000000      0.000000     -0.000000
      8.61235      5.16742      0.00000         0.000000      0.000000      0.000000
      0.00000      6.88992      0.00000        -0.000000      0.000000     -0.000000
      0.00000      8.61235      1.72250        -0.000000     -0.000000     -0.000000
      1.72250      6.88992      1.72250         0.000000      0.000000      0.000000
      1.72250      8.61235      0.00000         0.000000     -0.000000     -0.000000
      3.44493      6.88992      0.00000        -0.000000     -0.000000     -0.000000
      3.44493      8.61235      1.72250        -0.000000     -0.000000      0.000000
      5.16742      6.88992      1.72250        -0.000000     -0.000000      0.000000
      5.16742      8.61235      0.00000         0.000000      0.000000      0.000000
      6.88992      6.88992      0.00000        -0.000000      0.000000      0.000000
      6.88992      8.61235      1.72250        -0.000000     -0.000000      0.000000
      8.61235      6.88992      1.72250        -0.000000     -0.000000      0.000000
      8.61235      8.61235      0.00000        -0.000000      0.000000     -0.000000
      0.00000      0.00000      3.44493        -0.000000      0.000000      0.000000
      0.00000      1.72250      5.16742         0.000000      0.000000     -0.000000
      1.72250      0.00000      5.16742         0.000000      0.000000     -0.000000
      1.72250      1.72250      3.44493         0.000000      0.000000      0.000000
      3.44493      0.00000      3.44493        -0.000000      0.000000     -0.000000
      3.44493      1.72250      5.16742        -0.000000     -0.000000     -0.000000
      5.16742      0.00000      5.16742        -0.000000      0.000000     -0.000000
      5.16742      1.72250      3.44493        -0.000000      0.000000     -0.000000
      6.88992      0.00000      3.44493        -0.000000      0.000000     -0.000000
      6.88992      1.72250      5.16742        -0.000000     -0.000000     -0.000000
      8.61235      0.00000      5.16742         0.000000      0.000000     -0.000000
      8.61235      1.72250      3.44493        -0.000000      0.000000      0.000000
      0.00000      3.44493      3.44493         0.000000      0.000000      0.000000
      0.00000      5.16742      5.16742        -0.000000      0.000000      0.000000
      1.72250      3.44493      5.16742         0.000000     -0.000000     -0.000000
      1.72250      5.16742      3.44493        -0.000000     -0.000000     -0.000000
      3.44493      3.44493      3.44493        -0.000000      0.000000      0.000000
      3.44493      5.16742      5.16742        -0.000000     -0.000000      0.000000
      5.16742      3.44493      5.16742         0.000000      0.000000      0.000000
      5.16742      5.16742      3.44493        -0.000000      0.000000     -0.000000
      6.88992      3.44493      3.44493        -0.000000     -0.000000     -0.000000
      6.88992      5.16742      5.16742         0.000000     -0.000000      0.000000
      8.61235      3.44493      5.16742         0.000000     -0.000000      0.000000
      8.61235      5.16742      3.44493         0.000000     -0.000000     -0.000000
      0.00000      6.88992      3.44493        -0.000000      0.000000      0.000000
      0.00000      8.61235      5.16742         0.000000      0.000000     -0.000000
      1.72250      6.88992      5.16742        -0.000000      0.000000     -0.000000
      1.72250      8.61235      3.44493         0.000000      0.000000      0.000000
      3.44493      6.88992      3.44493         0.000000     -0.000000      0.000000
      3.44493      8.61235      5.16742        -0.000000     -0.000000      0.000000
      5.16742      6.88992      5.16742        -0.000000      0.000000      0.000000
      5.16742      8.61235      3.44493         0.000000     -0.000000     -0.000000
      6.88992      6.88992      3.44493        -0.000000     -0.000000      0.000000
      6.88992      8.61235      5.16742         0.000000      0.000000      0.000000
      8.61235      6.88992      5.16742         0.000000      0.000000      0.000000
      8.61235      8.61235      3.44493        -0.000000      0.000000      0.000000
      0.00000      0.00000      6.88992         0.000000     -0.000000     -0.000000
      0.00000      1.72250      8.61235         0.000000      0.000000      0.000000
      1.72250      0.00000      8.61235         0.000000     -0.000000      0.000000
      1.72250      1.72250      6.88992         0.000000     -0.000000      0.000000
      3.44493      0.00000      6.88992        -0.000000      0.000000     -0.000000
      3.44493      1.72250      8.61235         0.000000      0.000000      0.000000
      5.16742      0.00000      8.61235        -0.000000      0.000000     -0.000000
      5.16742      1.72250      6.88992         0.000000      0.000000      0.000000
      6.88992      0.00000      6.88992        -0.000000     -0.000000     -0.000000
      6.88992      1.72250      8.61235         0.000000     -0.000000      0.000000
      8.61235      0.00000      8.61235        -0.000000      0.000000      0.000000
      8.61235      1.72250      6.88992        -0.000000      0.000000     -0.000000
      0.00000      3.44493      6.88992        -0.000000     -0.000000     -0.000000
      0.00000      5.16742      8.61235        -0.000000      0.000000      0.000000
      1.72250      3.44493      8.61235         0.000000     -0.000000     -0.000000
      1.72250      5.16742      6.88992        -0.000000     -0.000000      0.000000
      3.44493      3.44493      6.88992         0.000000     -0.000000     -0.000000
      3.44493      5.16742      8.61235        -0.000000     -0.000000     -0.000000
      5.16742      3.44493      8.61235         0.000000     -0.000000      0.000000
      5.16742      5.16742      6.88992        -0.000000      0.000000      0.000000
      6.88992      3.44493      6.88992        -0.000000     -0.000000     -0.000000
      6.88992      5.16742      8.61235        -0.000000     -0.000000     -0.000000
      8.61235      3.44493      8.61235        -0.000000      0.000000     -0.000000
      8.61235      5.16742      6.88992         0.000000      0.000000      0.000000
      0.00000      6.88992      6.88992         0.000000     -0.000000      0.000000
      0.00000      8.61235      8.61235         0.000000     -0.000000      0.000000
      1.72250      6.88992      8.61235        -0.000000      0.000000      0.000000
      1.72250      8.61235      6.88992         0.000000      0.000000     -0.000000
      3.44493      6.88992      6.88992        -0.000000      0.000000     -0.000000
      3.44493      8.61235      8.61235        -0.000000     -0.000000      0.000000
      5.16742      6.88992      8.61235         0.000000     -0.000000     -0.000000
      5.16742      8.61235      6.88992        -0.000000      0.000000      0.000000
      6.88992      6.88992      6.88992         0.000000     -0.000000     -0.000000
      6.88992      8.61235      8.61235         0.000000      0.000000     -0.000000
      8.61235      6.88992      8.61235         0.000000      0.000000     -0.000000
      8.61235      8.61235      6.88992         0.000000     -0.000000     -0.000000
 -----------------------------------------------------------------------------------
    total drift:                                0.000000      0.000000     -0.000000


--------------------------------------------------------------------------------------------------------



  FREE ENERGIE OF THE ION-ELECTRON SYSTEM (eV)
  ---------------------------------------------------
  free  energy   TOTEN  =      -879.53306178 eV

  energy  without entropy=     -879.57885363  energy(sigma->0) =     -879.54832573
 


--------------------------------------------------------------------------------------------------------


    POTLOK:  cpu time    0.5110: real time    0.5110


--------------------------------------------------------------------------------------------------------




--------------------------------------------------------------------------------------------------------


  
 reached required accuracy - stopping structural energy minimisation
     LOOP+:  cpu time 7583.7075: real time 7585.7263
    4ORBIT:  cpu time    0.0000: real time    0.0000

 total amount of memory used by VASP MPI-rank0   555092. kBytes
=======================================================================

   base      :      30000. kBytes
   nonlr-proj:      31400. kBytes
   fftplans  :      15433. kBytes
   grid      :      21835. kBytes
   one-center:        419. kBytes
   wavefun   :     456005. kBytes
 
  
  
 General timing and accounting informations for this job:
 ========================================================
  
                  Total CPU time used (sec):     7618.277
                            User time (sec):     7554.252
                          System time (sec):       64.025
                         Elapsed time (sec):     7620.294
  
                   Maximum memory used (kb):      645836.
                   Average memory used (kb):           0.
  
                          Minor page faults:       213591
                          Major page faults:            2
                 Voluntary context switches:          964
