<?xml version="1.0" encoding="ISO-8859-1"?>
<modeling>
 <generator>
  <i name="program" type="string">vasp </i>
  <i name="version" type="string">5.4.4.18Apr17-6-g9f103f2a35  </i>
  <i name="subversion" type="string">(build Aug 17 2017 06:00:38) complex            parallel </i>
  <i name="platform" type="string">LinuxIFC </i>
  <i name="date" type="string">2019 07 13 </i>
  <i name="time" type="string">00:54:31 </i>
 </generator>
 <incar>
  <i type="string" name="SYSTEM">Opt</i>
  <i type="int" name="ISTART">     0</i>
  <i type="string" name="PREC">normal</i>
  <i type="string" name="ALGO"> Fast</i>
  <i type="int" name="ISPIN">     1</i>
  <i type="int" name="ICHARG">     2</i>
  <i type="int" name="NELM">   400</i>
  <i type="int" name="IBRION">     2</i>
  <i name="EDIFF">      0.00000100</i>
  <i name="EDIFFG">     -0.01000000</i>
  <i type="int" name="NSW">   100</i>
  <i type="int" name="ISIF">     3</i>
  <i name="ENCUT">    400.00000000</i>
  <i type="int" name="NGX">    72</i>
  <i type="int" name="NGY">    72</i>
  <i type="int" name="NGZ">    72</i>
  <i name="POTIM">      0.50000000</i>
  <i type="string" name="LREAL">Auto</i>
  <i type="logical" name="LWAVE"> F  </i>
  <i type="logical" name="LCHARG"> F  </i>
  <v type="int" name="KPOINT_BSE">    -1     0     0     0</v>
  <i type="int" name="NELM">   400</i>
 </incar>
 <structure name="primitive_cell" >
  <crystal>
   <varray name="basis" >
    <v>       3.44492529       0.00000000       0.00000000 </v>
    <v>       0.00000000       3.44492529       0.00000000 </v>
    <v>       0.00000000       0.00000000       3.44492524 </v>
   </varray>
   <i name="volume">     40.88268566 </i>
   <varray name="rec_basis" >
    <v>       0.29028206       0.00000000       0.00000000 </v>
    <v>       0.00000000       0.29028206       0.00000000 </v>
    <v>       0.00000000       0.00000000       0.29028206 </v>
   </varray>
  </crystal>
  <varray name="positions" >
   <v>       0.00000000       0.00000000       0.00000000 </v>
   <v>       0.00000000      -0.49998976      -0.49998975 </v>
   <v>      -0.49998976       0.00000000      -0.49998975 </v>
   <v>      -0.49998976      -0.49998976       0.00000000 </v>
  </varray>
 </structure>
 <varray name="primitive_index" >
  <v type="int" >        1 </v>
  <v type="int" >        2 </v>
  <v type="int" >        3 </v>
  <v type="int" >        4 </v>
 </varray>
 <kpoints>
  <generation param="Monkhorst-Pack">
   <v type="int" name="divisions">       8        8        8 </v>
   <v name="usershift">      0.00000000       0.00000000       0.00000000 </v>
   <v name="genvec1">      0.12500000       0.00000000       0.00000000 </v>
   <v name="genvec2">      0.00000000       0.12500000       0.00000000 </v>
   <v name="genvec3">      0.00000000       0.00000000       0.12500000 </v>
   <v name="shift">      0.50000000       0.50000000       0.50000000 </v>
  </generation>
  <varray name="kpointlist" >
   <v>       0.06250000       0.06250000       0.06250000 </v>
   <v>       0.18750000       0.06250000       0.06250000 </v>
   <v>       0.31250000       0.06250000       0.06250000 </v>
   <v>       0.43750000       0.06250000       0.06250000 </v>
   <v>       0.18750000       0.18750000       0.06250000 </v>
   <v>       0.31250000       0.18750000       0.06250000 </v>
   <v>       0.43750000       0.18750000       0.06250000 </v>
   <v>       0.31250000       0.31250000       0.06250000 </v>
   <v>       0.43750000       0.31250000       0.06250000 </v>
   <v>       0.43750000       0.43750000       0.06250000 </v>
   <v>       0.18750000       0.18750000       0.18750000 </v>
   <v>       0.31250000       0.18750000       0.18750000 </v>
   <v>       0.43750000       0.18750000       0.18750000 </v>
   <v>       0.31250000       0.31250000       0.18750000 </v>
   <v>       0.43750000       0.31250000       0.18750000 </v>
   <v>       0.43750000       0.43750000       0.18750000 </v>
   <v>       0.31250000       0.31250000       0.31250000 </v>
   <v>       0.43750000       0.31250000       0.31250000 </v>
   <v>       0.43750000       0.43750000       0.31250000 </v>
   <v>       0.43750000       0.43750000       0.43750000 </v>
  </varray>
  <varray name="weights" >
   <v>       0.01562500 </v>
   <v>       0.04687500 </v>
   <v>       0.04687500 </v>
   <v>       0.04687500 </v>
   <v>       0.04687500 </v>
   <v>       0.09375000 </v>
   <v>       0.09375000 </v>
   <v>       0.04687500 </v>
   <v>       0.09375000 </v>
   <v>       0.04687500 </v>
   <v>       0.01562500 </v>
   <v>       0.04687500 </v>
   <v>       0.04687500 </v>
   <v>       0.04687500 </v>
   <v>       0.09375000 </v>
   <v>       0.04687500 </v>
   <v>       0.01562500 </v>
   <v>       0.04687500 </v>
   <v>       0.04687500 </v>
   <v>       0.01562500 </v>
  </varray>
 </kpoints>
 <parameters>
  <separator name="general" >
   <i type="string" name="SYSTEM">Opt</i>
   <i type="logical" name="LCOMPAT"> F  </i>
  </separator>
  <separator name="electronic" >
   <i type="string" name="PREC">normal</i>
   <i name="ENMAX">    400.00000000</i>
   <i name="ENAUG">    511.36800000</i>
   <i name="EDIFF">      0.00000100</i>
   <i type="int" name="IALGO">    68</i>
   <i type="int" name="IWAVPR">    11</i>
   <i type="int" name="NBANDS">   518</i>
   <i name="NELECT">    864.00000000</i>
   <i type="int" name="TURBO">     0</i>
   <i type="int" name="IRESTART">     0</i>
   <i type="int" name="NREBOOT">     0</i>
   <i type="int" name="NMIN">     0</i>
   <i name="EREF">      0.00000000</i>
   <separator name="electronic smearing" >
    <i type="int" name="ISMEAR">     1</i>
    <i name="SIGMA">      0.20000000</i>
    <i name="KSPACING">      0.50000000</i>
    <i type="logical" name="KGAMMA"> T  </i>
   </separator>
   <separator name="electronic projectors" >
    <i type="logical" name="LREAL"> T  </i>
    <v name="ROPT">     -0.00050000</v>
    <i type="int" name="LMAXPAW">  -100</i>
    <i type="int" name="LMAXMIX">     2</i>
    <i type="logical" name="NLSPLINE"> F  </i>
   </separator>
   <separator name="electronic startup" >
    <i type="int" name="ISTART">     0</i>
    <i type="int" name="ICHARG">     2</i>
    <i type="int" name="INIWAV">     1</i>
   </separator>
   <separator name="electronic spin" >
    <i type="int" name="ISPIN">     1</i>
    <i type="logical" name="LNONCOLLINEAR"> F  </i>
    <v name="MAGMOM">      1.00000000      1.00000000      1.00000000      1.00000000      1.00000000      1.00000000      1.00000000      1.00000000      1.00000000      1.00000000      1.00000000      1.00000000      1.00000000      1.00000000      1.00000000      1.00000000      1.00000000      1.00000000      1.00000000      1.00000000
      1.00000000      1.00000000      1.00000000      1.00000000      1.00000000      1.00000000      1.00000000      1.00000000      1.00000000      1.00000000      1.00000000      1.00000000      1.00000000      1.00000000      1.00000000      1.00000000      1.00000000      1.00000000      1.00000000      1.00000000
      1.00000000      1.00000000      1.00000000      1.00000000      1.00000000      1.00000000      1.00000000      1.00000000      1.00000000      1.00000000      1.00000000      1.00000000      1.00000000      1.00000000      1.00000000      1.00000000      1.00000000      1.00000000      1.00000000      1.00000000
      1.00000000      1.00000000      1.00000000      1.00000000      1.00000000      1.00000000      1.00000000      1.00000000      1.00000000      1.00000000      1.00000000      1.00000000      1.00000000      1.00000000      1.00000000      1.00000000      1.00000000      1.00000000      1.00000000      1.00000000
      1.00000000      1.00000000      1.00000000      1.00000000      1.00000000      1.00000000      1.00000000      1.00000000      1.00000000      1.00000000      1.00000000      1.00000000      1.00000000      1.00000000      1.00000000      1.00000000      1.00000000      1.00000000      1.00000000      1.00000000
      1.00000000      1.00000000      1.00000000      1.00000000      1.00000000      1.00000000      1.00000000      1.00000000</v>
    <i name="NUPDOWN">     -1.00000000</i>
    <i type="logical" name="LSORBIT"> F  </i>
    <v name="SAXIS">      0.00000000      0.00000000      1.00000000</v>
    <i type="logical" name="LSPIRAL"> F  </i>
    <v name="QSPIRAL">      0.00000000      0.00000000      0.00000000</v>
    <i type="logical" name="LZEROZ"> F  </i>
   </separator>
   <separator name="electronic exchange-correlation" >
    <i type="logical" name="LASPH"> F  </i>
    <i type="logical" name="LMETAGGA"> F  </i>
   </separator>
   <separator name="electronic convergence" >
    <i type="int" name="NELM">   400</i>
    <i type="int" name="NELMDL">    -5</i>
    <i type="int" name="NELMIN">     2</i>
    <i name="ENINI">    400.00000000</i>
    <separator name="electronic convergence detail" >
     <i type="logical" name="LDIAG"> T  </i>
     <i type="logical" name="LSUBROT"> F  </i>
     <i name="WEIMIN">      0.00100000</i>
     <i name="EBREAK">      0.00000000</i>
     <i name="DEPER">      0.30000000</i>
     <i type="int" name="NRMM">     4</i>
     <i name="TIME">      0.40000000</i>
    </separator>
   </separator>
   <separator name="electronic mixer" >
    <i name="AMIX">      0.40000000</i>
    <i name="BMIX">      1.00000000</i>
    <i name="AMIN">      0.10000000</i>
    <i name="AMIX_MAG">      1.60000000</i>
    <i name="BMIX_MAG">      1.00000000</i>
    <separator name="electronic mixer details" >
     <i type="int" name="IMIX">     4</i>
     <i type="logical" name="MIXFIRST"> F  </i>
     <i type="int" name="MAXMIX">   -45</i>
     <i name="WC">    100.00000000</i>
     <i type="int" name="INIMIX">     1</i>
     <i type="int" name="MIXPRE">     1</i>
     <i type="int" name="MREMOVE">     5</i>
    </separator>
   </separator>
   <separator name="electronic dipolcorrection" >
    <i type="logical" name="LDIPOL"> F  </i>
    <i type="logical" name="LMONO"> F  </i>
    <i type="int" name="IDIPOL">     0</i>
    <i name="EPSILON">      1.00000000</i>
    <v name="DIPOL">   -100.00000000   -100.00000000   -100.00000000</v>
    <i name="EFIELD">      0.00000000</i>
   </separator>
  </separator>
  <separator name="grids" >
   <i type="int" name="NGX">    72</i>
   <i type="int" name="NGY">    72</i>
   <i type="int" name="NGZ">    72</i>
   <i type="int" name="NGXF">   144</i>
   <i type="int" name="NGYF">   144</i>
   <i type="int" name="NGZF">   144</i>
   <i type="logical" name="ADDGRID"> F  </i>
  </separator>
  <separator name="ionic" >
   <i type="int" name="NSW">   100</i>
   <i type="int" name="IBRION">     2</i>
   <i type="int" name="MDALGO">     0</i>
   <i type="int" name="ISIF">     3</i>
   <i name="PSTRESS">      0.00000000</i>
   <i name="EDIFFG">     -0.01000000</i>
   <i type="int" name="NFREE">     1</i>
   <i name="POTIM">      0.50000000</i>
   <i name="SMASS">     -3.00000000</i>
   <i name="SCALEE">      1.00000000</i>
  </separator>
  <separator name="ionic md" >
   <i name="TEBEG">      0.00010000</i>
   <i name="TEEND">      0.00010000</i>
   <i type="int" name="NBLOCK">     1</i>
   <i type="int" name="KBLOCK">   100</i>
   <i type="int" name="NPACO">   256</i>
   <i name="APACO">     16.00000000</i>
  </separator>
  <separator name="symmetry" >
   <i type="int" name="ISYM">     2</i>
   <i name="SYMPREC">      0.00001000</i>
  </separator>
  <separator name="dos" >
   <i type="int" name="LORBIT">     0</i>
   <v name="RWIGS">     -1.00000000</v>
   <i type="int" name="NEDOS">   301</i>
   <i name="EMIN">     10.00000000</i>
   <i name="EMAX">    -10.00000000</i>
   <i name="EFERMI">      0.00000000</i>
  </separator>
  <separator name="writing" >
   <i type="int" name="NWRITE">     2</i>
   <i type="logical" name="LWAVE"> F  </i>
   <i type="logical" name="LDOWNSAMPLE"> F  </i>
   <i type="logical" name="LCHARG"> F  </i>
   <i type="logical" name="LPARD"> F  </i>
   <i type="logical" name="LVTOT"> F  </i>
   <i type="logical" name="LVHAR"> F  </i>
   <i type="logical" name="LELF"> F  </i>
   <i type="logical" name="LOPTICS"> F  </i>
   <v name="STM">      0.00000000      0.00000000      0.00000000      0.00000000      0.00000000      0.00000000      0.00000000</v>
  </separator>
  <separator name="performance" >
   <i type="int" name="NPAR">     2</i>
   <i type="int" name="NSIM">     4</i>
   <i type="int" name="NBLK">    -1</i>
   <i type="logical" name="LPLANE"> T  </i>
   <i type="logical" name="LSCALAPACK"> T  </i>
   <i type="logical" name="LSCAAWARE"> F  </i>
   <i type="logical" name="LSCALU"> F  </i>
   <i type="logical" name="LASYNC"> F  </i>
   <i type="logical" name="LORBITALREAL"> F  </i>
  </separator>
  <separator name="miscellaneous" >
   <i type="int" name="IDIOT">     3</i>
   <i type="int" name="ISPECIAL">     0</i>
   <i type="logical" name="LMUSIC"> F  </i>
   <v name="POMASS">     55.84700000</v>
   <v name="DARWINR">      0.00000000</v>
   <v name="DARWINV">      1.00000000</v>
   <i type="logical" name="LCORR"> T  </i>
  </separator>
  <i type="logical" name="GGA_COMPAT"> T  </i>
  <i type="logical" name="LBERRY"> F  </i>
  <i type="int" name="ICORELEVEL">     0</i>
  <i type="logical" name="LDAU"> F  </i>
  <i type="int" name="I_CONSTRAINED_M">     0</i>
  <separator name="electronic exchange-correlation" >
   <i type="string" name="GGA">--</i>
   <i type="int" name="VOSKOWN">     0</i>
   <i type="logical" name="LHFCALC"> F  </i>
   <i type="string" name="PRECFOCK"></i>
   <i type="logical" name="LSYMGRAD"> F  </i>
   <i type="logical" name="LHFONE"> F  </i>
   <i type="logical" name="LRHFCALC"> F  </i>
   <i type="logical" name="LTHOMAS"> F  </i>
   <i type="logical" name="LMODELHF"> F  </i>
   <i name="ENCUT4O">     -1.00000000</i>
   <i type="int" name="EXXOEP">     0</i>
   <i type="int" name="FOURORBIT">     0</i>
   <i name="AEXX">      0.00000000</i>
   <i name="HFALPHA">      0.00000000</i>
   <i name="MCALPHA">      0.00000000</i>
   <i name="ALDAX">      1.00000000</i>
   <i name="AGGAX">      1.00000000</i>
   <i name="ALDAC">      1.00000000</i>
   <i name="AGGAC">      1.00000000</i>
   <i type="int" name="NKREDX">     1</i>
   <i type="int" name="NKREDY">     1</i>
   <i type="int" name="NKREDZ">     1</i>
   <i type="logical" name="SHIFTRED"> F  </i>
   <i type="logical" name="ODDONLY"> F  </i>
   <i type="logical" name="EVENONLY"> F  </i>
   <i type="int" name="LMAXFOCK">     0</i>
   <i type="int" name="NMAXFOCKAE">     0</i>
   <i type="logical" name="LFOCKAEDFT"> F  </i>
   <i name="HFSCREEN">      0.00000000</i>
   <i name="HFSCREENC">      0.00000000</i>
   <i type="int" name="NBANDSGWLOW">     0</i>
  </separator>
  <separator name="vdW DFT" >
   <i type="logical" name="LUSE_VDW"> F  </i>
   <i name="Zab_VDW">     -0.84910000</i>
   <i name="PARAM1">      0.12340000</i>
   <i name="PARAM2">      1.00000000</i>
   <i name="PARAM3">      0.00000000</i>
  </separator>
  <separator name="model GW" >
   <i type="int" name="MODEL_GW">     0</i>
   <i name="MODEL_EPS0">      6.13252964</i>
   <i name="MODEL_ALPHA">      1.00000000</i>
  </separator>
  <separator name="linear response parameters" >
   <i type="logical" name="LEPSILON"> F  </i>
   <i type="logical" name="LRPA"> F  </i>
   <i type="logical" name="LNABLA"> F  </i>
   <i type="logical" name="LVEL"> F  </i>
   <i type="int" name="KINTER">     0</i>
   <i name="CSHIFT">      0.10000000</i>
   <i name="OMEGAMAX">     -1.00000000</i>
   <i name="DEG_THRESHOLD">      0.00200000</i>
   <i name="RTIME">     -0.10000000</i>
   <i name="WPLASMAI">      0.00000000</i>
   <v name="DFIELD">      0.00000000      0.00000000      0.00000000</v>
   <v name="WPLASMA">      0.00000000      0.00000000      0.00000000      0.00000000      0.00000000      0.00000000      0.00000000      0.00000000      0.00000000</v>
  </separator>
  <separator name="orbital magnetization" >
   <i type="logical" name="NUCIND"> F  </i>
   <v name="MAGPOS">      0.00000000      0.00000000      0.00000000</v>
   <i type="logical" name="LNICSALL"> T  </i>
   <i type="logical" name="ORBITALMAG"> F  </i>
   <i type="logical" name="LMAGBLOCH"> F  </i>
   <i type="logical" name="LCHIMAG"> F  </i>
   <i type="logical" name="LGAUGE"> T  </i>
   <i type="int" name="MAGATOM">     0</i>
   <v name="MAGDIPOL">      0.00000000      0.00000000      0.00000000</v>
   <v name="AVECCONST">      0.00000000      0.00000000      0.00000000</v>
  </separator>
  <separator name="response functions" >
   <i type="logical" name="LADDER"> F  </i>
   <i type="logical" name="LRPAFORCE"> F  </i>
   <i type="logical" name="LFXC"> F  </i>
   <i type="logical" name="LHARTREE"> T  </i>
   <i type="int" name="IBSE">     0</i>
   <v type="int" name="KPOINT">    -1     0     0     0</v>
   <i type="logical" name="LTCTE"> F  </i>
   <i type="logical" name="LTETE"> F  </i>
   <i type="logical" name="LTRIPLET"> F  </i>
   <i type="logical" name="LFXCEPS"> F  </i>
   <i type="logical" name="LFXHEG"> F  </i>
   <i type="int" name="NATURALO">     2</i>
   <i type="logical" name="L2ORDER"> F  </i>
   <i type="logical" name="LMP2LT"> F  </i>
   <i type="logical" name="LUSEW"> F  </i>
   <i name="ENCUTGW">     -2.00000000</i>
   <i name="ENCUTGWSOFT">     -2.00000000</i>
   <i name="ENCUTLF">     -1.00000000</i>
   <i type="int" name="LMAXMP2">    -1</i>
   <i name="SCISSOR">      0.00000000</i>
   <i type="int" name="NOMEGA">     0</i>
   <i type="int" name="NOMEGAR">     0</i>
   <i type="int" name="NBANDSGW">    -1</i>
   <i type="int" name="NBANDSO">    -1</i>
   <i type="int" name="NBANDSV">    -1</i>
   <i type="int" name="NELM">   400</i>
   <i type="int" name="NELMHF">     1</i>
   <i type="int" name="DIM">     3</i>
   <i type="int" name="ANTIRES">     0</i>
   <i name="OMEGAMAX">    -30.00000000</i>
   <i name="OMEGAMIN">    -30.00000000</i>
   <i name="OMEGATL">   -200.00000000</i>
   <i type="int" name="OMEGAGRID">   140</i>
   <i name="CSHIFT">     -0.10000000</i>
   <i type="logical" name="SELFENERGY"> F  </i>
   <i type="logical" name="LSPECTRAL"> F  </i>
   <i type="logical" name="LSPECTRALGW"> F  </i>
   <i type="logical" name="LSINGLES"> F  </i>
   <i type="logical" name="LFERMIGW"> F  </i>
   <i type="logical" name="ODDONLYGW"> F  </i>
   <i type="logical" name="EVENONLYGW"> F  </i>
   <i type="int" name="NKREDLFX">     1</i>
   <i type="int" name="NKREDLFY">     1</i>
   <i type="int" name="NKREDLFZ">     1</i>
   <i type="int" name="MAXMEM">  2800</i>
   <i type="int" name="TELESCOPE">     0</i>
   <i type="int" name="TAUPAR">     1</i>
   <i type="int" name="OMEGAPAR">    -1</i>
   <i name="LAMBDA">      1.00000000</i>
  </separator>
  <separator name="External order field" >
   <i name="OFIELD_KAPPA">      0.00000000</i>
   <v name="OFIELD_K">      0.00000000      0.00000000      0.00000000</v>
   <i name="OFIELD_Q6_NEAR">      0.00000000</i>
   <i name="OFIELD_Q6_FAR">      0.00000000</i>
   <i name="OFIELD_A">      0.00000000</i>
  </separator>
 </parameters>
 <atominfo>
  <atoms>     108 </atoms>
  <types>       1 </types>
  <array name="atoms" >
   <dimension dim="1">ion</dimension>
   <field type="string">element</field>
   <field type="int">atomtype</field>
   <set>
    <rc><c>Fe</c><c>   1</c></rc>
    <rc><c>Fe</c><c>   1</c></rc>
    <rc><c>Fe</c><c>   1</c></rc>
    <rc><c>Fe</c><c>   1</c></rc>
    <rc><c>Fe</c><c>   1</c></rc>
    <rc><c>Fe</c><c>   1</c></rc>
    <rc><c>Fe</c><c>   1</c></rc>
    <rc><c>Fe</c><c>   1</c></rc>
    <rc><c>Fe</c><c>   1</c></rc>
    <rc><c>Fe</c><c>   1</c></rc>
    <rc><c>Fe</c><c>   1</c></rc>
    <rc><c>Fe</c><c>   1</c></rc>
    <rc><c>Fe</c><c>   1</c></rc>
    <rc><c>Fe</c><c>   1</c></rc>
    <rc><c>Fe</c><c>   1</c></rc>
    <rc><c>Fe</c><c>   1</c></rc>
    <rc><c>Fe</c><c>   1</c></rc>
    <rc><c>Fe</c><c>   1</c></rc>
    <rc><c>Fe</c><c>   1</c></rc>
    <rc><c>Fe</c><c>   1</c></rc>
    <rc><c>Fe</c><c>   1</c></rc>
    <rc><c>Fe</c><c>   1</c></rc>
    <rc><c>Fe</c><c>   1</c></rc>
    <rc><c>Fe</c><c>   1</c></rc>
    <rc><c>Fe</c><c>   1</c></rc>
    <rc><c>Fe</c><c>   1</c></rc>
    <rc><c>Fe</c><c>   1</c></rc>
    <rc><c>Fe</c><c>   1</c></rc>
    <rc><c>Fe</c><c>   1</c></rc>
    <rc><c>Fe</c><c>   1</c></rc>
    <rc><c>Fe</c><c>   1</c></rc>
    <rc><c>Fe</c><c>   1</c></rc>
    <rc><c>Fe</c><c>   1</c></rc>
    <rc><c>Fe</c><c>   1</c></rc>
    <rc><c>Fe</c><c>   1</c></rc>
    <rc><c>Fe</c><c>   1</c></rc>
    <rc><c>Fe</c><c>   1</c></rc>
    <rc><c>Fe</c><c>   1</c></rc>
    <rc><c>Fe</c><c>   1</c></rc>
    <rc><c>Fe</c><c>   1</c></rc>
    <rc><c>Fe</c><c>   1</c></rc>
    <rc><c>Fe</c><c>   1</c></rc>
    <rc><c>Fe</c><c>   1</c></rc>
    <rc><c>Fe</c><c>   1</c></rc>
    <rc><c>Fe</c><c>   1</c></rc>
    <rc><c>Fe</c><c>   1</c></rc>
    <rc><c>Fe</c><c>   1</c></rc>
    <rc><c>Fe</c><c>   1</c></rc>
    <rc><c>Fe</c><c>   1</c></rc>
    <rc><c>Fe</c><c>   1</c></rc>
    <rc><c>Fe</c><c>   1</c></rc>
    <rc><c>Fe</c><c>   1</c></rc>
    <rc><c>Fe</c><c>   1</c></rc>
    <rc><c>Fe</c><c>   1</c></rc>
    <rc><c>Fe</c><c>   1</c></rc>
    <rc><c>Fe</c><c>   1</c></rc>
    <rc><c>Fe</c><c>   1</c></rc>
    <rc><c>Fe</c><c>   1</c></rc>
    <rc><c>Fe</c><c>   1</c></rc>
    <rc><c>Fe</c><c>   1</c></rc>
    <rc><c>Fe</c><c>   1</c></rc>
    <rc><c>Fe</c><c>   1</c></rc>
    <rc><c>Fe</c><c>   1</c></rc>
    <rc><c>Fe</c><c>   1</c></rc>
    <rc><c>Fe</c><c>   1</c></rc>
    <rc><c>Fe</c><c>   1</c></rc>
    <rc><c>Fe</c><c>   1</c></rc>
    <rc><c>Fe</c><c>   1</c></rc>
    <rc><c>Fe</c><c>   1</c></rc>
    <rc><c>Fe</c><c>   1</c></rc>
    <rc><c>Fe</c><c>   1</c></rc>
    <rc><c>Fe</c><c>   1</c></rc>
    <rc><c>Fe</c><c>   1</c></rc>
    <rc><c>Fe</c><c>   1</c></rc>
    <rc><c>Fe</c><c>   1</c></rc>
    <rc><c>Fe</c><c>   1</c></rc>
    <rc><c>Fe</c><c>   1</c></rc>
    <rc><c>Fe</c><c>   1</c></rc>
    <rc><c>Fe</c><c>   1</c></rc>
    <rc><c>Fe</c><c>   1</c></rc>
    <rc><c>Fe</c><c>   1</c></rc>
    <rc><c>Fe</c><c>   1</c></rc>
    <rc><c>Fe</c><c>   1</c></rc>
    <rc><c>Fe</c><c>   1</c></rc>
    <rc><c>Fe</c><c>   1</c></rc>
    <rc><c>Fe</c><c>   1</c></rc>
    <rc><c>Fe</c><c>   1</c></rc>
    <rc><c>Fe</c><c>   1</c></rc>
    <rc><c>Fe</c><c>   1</c></rc>
    <rc><c>Fe</c><c>   1</c></rc>
    <rc><c>Fe</c><c>   1</c></rc>
    <rc><c>Fe</c><c>   1</c></rc>
    <rc><c>Fe</c><c>   1</c></rc>
    <rc><c>Fe</c><c>   1</c></rc>
    <rc><c>Fe</c><c>   1</c></rc>
    <rc><c>Fe</c><c>   1</c></rc>
    <rc><c>Fe</c><c>   1</c></rc>
    <rc><c>Fe</c><c>   1</c></rc>
    <rc><c>Fe</c><c>   1</c></rc>
    <rc><c>Fe</c><c>   1</c></rc>
    <rc><c>Fe</c><c>   1</c></rc>
    <rc><c>Fe</c><c>   1</c></rc>
    <rc><c>Fe</c><c>   1</c></rc>
    <rc><c>Fe</c><c>   1</c></rc>
    <rc><c>Fe</c><c>   1</c></rc>
    <rc><c>Fe</c><c>   1</c></rc>
    <rc><c>Fe</c><c>   1</c></rc>
    <rc><c>Fe</c><c>   1</c></rc>
   </set>
  </array>
  <array name="atomtypes" >
   <dimension dim="1">type</dimension>
   <field type="int">atomspertype</field>
   <field type="string">element</field>
   <field>mass</field>
   <field>valence</field>
   <field type="string">pseudopotential</field>
   <set>
    <rc><c> 108</c><c>Fe</c><c>     55.84700000</c><c>      8.00000000</c><c> PAW_PBE Fe 06Sep2000                   </c></rc>
   </set>
  </array>
 </atominfo>
 <structure name="initialpos" >
  <crystal>
   <varray name="basis" >
    <v>      10.33484705       0.00000000       0.00000000 </v>
    <v>       0.00000000      10.33484705       0.00000000 </v>
    <v>       0.00000000       0.00000000      10.33484705 </v>
   </varray>
   <i name="volume">   1103.85533447 </i>
   <varray name="rec_basis" >
    <v>       0.09676002       0.00000000       0.00000000 </v>
    <v>       0.00000000       0.09676002       0.00000000 </v>
    <v>       0.00000000       0.00000000       0.09676002 </v>
   </varray>
  </crystal>
  <varray name="positions" >
   <v>       0.00000000       0.00000000       0.00000000 </v>
   <v>       0.00000000       0.16666893       0.16666893 </v>
   <v>       0.16666893       0.00000000       0.16666893 </v>
   <v>       0.16666893       0.16666893       0.00000000 </v>
   <v>       0.33333106       0.00000000       0.00000000 </v>
   <v>       0.33333107       0.16666893       0.16666893 </v>
   <v>       0.50000000       0.00000000       0.16666894 </v>
   <v>       0.50000000       0.16666894       0.00000000 </v>
   <v>       0.66666897       0.00000000       0.00000000 </v>
   <v>       0.66666896       0.16666893       0.16666893 </v>
   <v>       0.83333104       0.00000000       0.16666893 </v>
   <v>       0.83333104       0.16666893       0.00000000 </v>
   <v>       0.00000000       0.33333106       0.00000000 </v>
   <v>       0.00000000       0.50000000       0.16666894 </v>
   <v>       0.16666893       0.33333107       0.16666893 </v>
   <v>       0.16666894       0.50000000       0.00000000 </v>
   <v>       0.33333107       0.33333107       0.00000000 </v>
   <v>       0.33333107       0.50000000       0.16666893 </v>
   <v>       0.50000000       0.33333107       0.16666893 </v>
   <v>       0.50000000       0.50000000       0.00000000 </v>
   <v>       0.66666896       0.33333107       0.00000000 </v>
   <v>       0.66666896       0.50000000       0.16666893 </v>
   <v>       0.83333104       0.33333107       0.16666893 </v>
   <v>       0.83333103       0.50000000       0.00000000 </v>
   <v>       0.00000000       0.66666897       0.00000000 </v>
   <v>       0.00000000       0.83333104       0.16666893 </v>
   <v>       0.16666893       0.66666896       0.16666893 </v>
   <v>       0.16666893       0.83333104       0.00000000 </v>
   <v>       0.33333107       0.66666896       0.00000000 </v>
   <v>       0.33333107       0.83333104       0.16666893 </v>
   <v>       0.50000000       0.66666896       0.16666893 </v>
   <v>       0.50000000       0.83333103       0.00000000 </v>
   <v>       0.66666896       0.66666896       0.00000000 </v>
   <v>       0.66666896       0.83333104       0.16666893 </v>
   <v>       0.83333104       0.66666896       0.16666893 </v>
   <v>       0.83333104       0.83333104       0.00000000 </v>
   <v>       0.00000000       0.00000000       0.33333106 </v>
   <v>       0.00000000       0.16666894       0.50000000 </v>
   <v>       0.16666894       0.00000000       0.50000000 </v>
   <v>       0.16666893       0.16666893       0.33333107 </v>
   <v>       0.33333107       0.00000000       0.33333107 </v>
   <v>       0.33333107       0.16666893       0.50000000 </v>
   <v>       0.50000000       0.00000000       0.50000000 </v>
   <v>       0.50000000       0.16666893       0.33333107 </v>
   <v>       0.66666896       0.00000000       0.33333107 </v>
   <v>       0.66666896       0.16666893       0.50000000 </v>
   <v>       0.83333103       0.00000000       0.50000000 </v>
   <v>       0.83333104       0.16666893       0.33333107 </v>
   <v>       0.00000000       0.33333107       0.33333107 </v>
   <v>       0.00000000       0.50000000       0.50000000 </v>
   <v>       0.16666893       0.33333107       0.50000000 </v>
   <v>       0.16666893       0.50000000       0.33333107 </v>
   <v>       0.33333107       0.33333107       0.33333107 </v>
   <v>       0.33333106       0.50000000       0.50000000 </v>
   <v>       0.50000000       0.33333106       0.50000000 </v>
   <v>       0.50000000       0.50000000       0.33333106 </v>
   <v>       0.66666896       0.33333107       0.33333107 </v>
   <v>       0.66666897       0.50000000       0.50000000 </v>
   <v>       0.83333104       0.33333107       0.50000000 </v>
   <v>       0.83333104       0.50000000       0.33333107 </v>
   <v>       0.00000000       0.66666896       0.33333107 </v>
   <v>       0.00000000       0.83333103       0.50000000 </v>
   <v>       0.16666893       0.66666896       0.50000000 </v>
   <v>       0.16666893       0.83333104       0.33333107 </v>
   <v>       0.33333107       0.66666896       0.33333107 </v>
   <v>       0.33333107       0.83333104       0.50000000 </v>
   <v>       0.50000000       0.66666897       0.50000000 </v>
   <v>       0.50000000       0.83333104       0.33333107 </v>
   <v>       0.66666896       0.66666896       0.33333107 </v>
   <v>       0.66666896       0.83333104       0.50000000 </v>
   <v>       0.83333104       0.66666896       0.50000000 </v>
   <v>       0.83333104       0.83333104       0.33333107 </v>
   <v>       0.00000000       0.00000000       0.66666897 </v>
   <v>       0.00000000       0.16666893       0.83333104 </v>
   <v>       0.16666893       0.00000000       0.83333104 </v>
   <v>       0.16666893       0.16666893       0.66666896 </v>
   <v>       0.33333107       0.00000000       0.66666896 </v>
   <v>       0.33333107       0.16666893       0.83333104 </v>
   <v>       0.50000000       0.00000000       0.83333103 </v>
   <v>       0.50000000       0.16666893       0.66666896 </v>
   <v>       0.66666896       0.00000000       0.66666896 </v>
   <v>       0.66666896       0.16666893       0.83333104 </v>
   <v>       0.83333104       0.00000000       0.83333104 </v>
   <v>       0.83333104       0.16666893       0.66666896 </v>
   <v>       0.00000000       0.33333107       0.66666896 </v>
   <v>       0.00000000       0.50000000       0.83333103 </v>
   <v>       0.16666893       0.33333107       0.83333104 </v>
   <v>       0.16666893       0.50000000       0.66666896 </v>
   <v>       0.33333107       0.33333107       0.66666896 </v>
   <v>       0.33333107       0.50000000       0.83333104 </v>
   <v>       0.50000000       0.33333107       0.83333104 </v>
   <v>       0.50000000       0.50000000       0.66666897 </v>
   <v>       0.66666896       0.33333107       0.66666896 </v>
   <v>       0.66666896       0.50000000       0.83333104 </v>
   <v>       0.83333104       0.33333107       0.83333104 </v>
   <v>       0.83333104       0.50000000       0.66666896 </v>
   <v>       0.00000000       0.66666896       0.66666896 </v>
   <v>       0.00000000       0.83333104       0.83333104 </v>
   <v>       0.16666893       0.66666896       0.83333104 </v>
   <v>       0.16666893       0.83333104       0.66666896 </v>
   <v>       0.33333107       0.66666896       0.66666896 </v>
   <v>       0.33333107       0.83333104       0.83333104 </v>
   <v>       0.50000000       0.66666896       0.83333104 </v>
   <v>       0.50000000       0.83333104       0.66666896 </v>
   <v>       0.66666896       0.66666896       0.66666896 </v>
   <v>       0.66666896       0.83333104       0.83333104 </v>
   <v>       0.83333104       0.66666896       0.83333104 </v>
   <v>       0.83333104       0.83333104       0.66666896 </v>
  </varray>
 </structure>
 <calculation>
  <scstep>
   <time name="dav">  198.48  198.65</time>
   <time name="total">  198.84  199.02</time>
   <energy>
    <i name="alphaZ">   7300.31925852 </i>
    <i name="ewald"> -66232.83996889 </i>
    <i name="hartreedc"> -11197.02572337 </i>
    <i name="XCdc">    446.63038354 </i>
    <i name="pawpsdc">  51723.88885462 </i>
    <i name="pawaedc"> -52548.28121372 </i>
    <i name="eentropy">      0.00330136 </i>
    <i name="bandstr">  13896.90519798 </i>
    <i name="atom">  64201.67088057 </i>
    <i name="e_fr_energy">   7591.27097062 </i>
    <i name="e_wo_entrp">   7591.26766926 </i>
    <i name="e_0_energy">   7591.26987017 </i>
   </energy>
  </scstep>
  <scstep>
   <time name="dav">  204.72  204.82</time>
   <time name="total">  204.75  204.85</time>
   <energy>
    <i name="e_fr_energy">    -24.60920048 </i>
    <i name="e_wo_entrp">    -24.59768489 </i>
    <i name="e_0_energy">    -24.60536195 </i>
   </energy>
  </scstep>
  <scstep>
   <time name="dav">  208.22  208.34</time>
   <time name="total">  208.25  208.37</time>
   <energy>
    <i name="e_fr_energy">   -851.03773855 </i>
    <i name="e_wo_entrp">   -851.04658058 </i>
    <i name="e_0_energy">   -851.04068590 </i>
   </energy>
  </scstep>
  <scstep>
   <time name="dav">  360.98  361.07</time>
   <time name="total">  361.02  361.11</time>
   <energy>
    <i name="e_fr_energy">  -1029.90744838 </i>
    <i name="e_wo_entrp">  -1029.98569179 </i>
    <i name="e_0_energy">  -1029.93352951 </i>
   </energy>
  </scstep>
  <scstep>
   <time name="dav">  291.57  291.62</time>
   <time name="total">  300.54  300.59</time>
   <energy>
    <i name="e_fr_energy">  -1045.09630706 </i>
    <i name="e_wo_entrp">  -1045.19522099 </i>
    <i name="e_0_energy">  -1045.12927837 </i>
   </energy>
  </scstep>
  <scstep>
   <time name="diag">   24.17   24.17</time>
   <time name="diis">  115.55  115.57</time>
   <time name="orth">    5.01    5.01</time>
   <time name="total">  154.12  154.15</time>
   <energy>
    <i name="e_fr_energy">   -877.46956557 </i>
    <i name="e_wo_entrp">   -877.50290929 </i>
    <i name="e_0_energy">   -877.48068014 </i>
   </energy>
  </scstep>
  <scstep>
   <time name="diag">   24.25   24.25</time>
   <time name="diis">  124.77  124.79</time>
   <time name="orth">    5.01    5.02</time>
   <time name="total">  163.41  163.43</time>
   <energy>
    <i name="e_fr_energy">   -880.25514582 </i>
    <i name="e_wo_entrp">   -880.28984524 </i>
    <i name="e_0_energy">   -880.26671229 </i>
   </energy>
  </scstep>
  <scstep>
   <time name="diag">   24.25   24.25</time>
   <time name="diis">  121.29  121.32</time>
   <time name="orth">    4.93    4.94</time>
   <time name="total">  159.65  159.69</time>
   <energy>
    <i name="e_fr_energy">   -879.41289463 </i>
    <i name="e_wo_entrp">   -879.45293973 </i>
    <i name="e_0_energy">   -879.42624300 </i>
   </energy>
  </scstep>
  <scstep>
   <time name="diag">   23.15   23.15</time>
   <time name="diis">  147.57  147.59</time>
   <time name="orth">    4.97    4.97</time>
   <time name="total">  184.93  184.96</time>
   <energy>
    <i name="e_fr_energy">   -879.69329690 </i>
    <i name="e_wo_entrp">   -879.73165913 </i>
    <i name="e_0_energy">   -879.70608431 </i>
   </energy>
  </scstep>
  <scstep>
   <time name="diag">   23.68   23.69</time>
   <time name="diis">  146.10  146.16</time>
   <time name="orth">    4.99    4.99</time>
   <time name="total">  183.90  183.97</time>
   <energy>
    <i name="e_fr_energy">   -879.52558624 </i>
    <i name="e_wo_entrp">   -879.56378300 </i>
    <i name="e_0_energy">   -879.53831849 </i>
   </energy>
  </scstep>
  <scstep>
   <time name="diag">   24.22   24.22</time>
   <time name="diis">  161.39  161.41</time>
   <time name="orth">    5.07    5.07</time>
   <time name="total">  200.28  200.31</time>
   <energy>
    <i name="e_fr_energy">   -879.53720807 </i>
    <i name="e_wo_entrp">   -879.57694457 </i>
    <i name="e_0_energy">   -879.55045357 </i>
   </energy>
  </scstep>
  <scstep>
   <time name="diag">   25.94   25.94</time>
   <time name="diis">  138.09  138.12</time>
   <time name="orth">    5.05    5.05</time>
   <time name="total">  178.52  178.57</time>
   <energy>
    <i name="e_fr_energy">   -879.53289849 </i>
    <i name="e_wo_entrp">   -879.57416759 </i>
    <i name="e_0_energy">   -879.54665486 </i>
   </energy>
  </scstep>
  <scstep>
   <time name="diag">   25.75   25.75</time>
   <time name="diis">  169.92  169.94</time>
   <time name="orth">    5.14    5.14</time>
   <time name="total">  210.29  210.33</time>
   <energy>
    <i name="e_fr_energy">   -879.53327883 </i>
    <i name="e_wo_entrp">   -879.57536652 </i>
    <i name="e_0_energy">   -879.54730806 </i>
   </energy>
  </scstep>
  <scstep>
   <time name="diag">   25.13   25.14</time>
   <time name="diis">  164.65  164.68</time>
   <time name="orth">    5.14    5.14</time>
   <time name="total">  205.13  205.16</time>
   <energy>
    <i name="e_fr_energy">   -879.53331215 </i>
    <i name="e_wo_entrp">   -879.57585742 </i>
    <i name="e_0_energy">   -879.54749391 </i>
   </energy>
  </scstep>
  <scstep>
   <time name="diag">   27.05   27.06</time>
   <time name="diis">  167.60  167.66</time>
   <time name="orth">    5.13    5.13</time>
   <time name="total">  210.34  210.41</time>
   <energy>
    <i name="e_fr_energy">   -879.53328833 </i>
    <i name="e_wo_entrp">   -879.57628033 </i>
    <i name="e_0_energy">   -879.54761900 </i>
   </energy>
  </scstep>
  <scstep>
   <time name="diag">   29.14   29.14</time>
   <time name="diis">  150.04  150.07</time>
   <time name="orth">    4.92    4.92</time>
   <time name="total">  193.64  193.68</time>
   <energy>
    <i name="e_fr_energy">   -879.53325208 </i>
    <i name="e_wo_entrp">   -879.57656572 </i>
    <i name="e_0_energy">   -879.54768996 </i>
   </energy>
  </scstep>
  <scstep>
   <time name="diag">   25.79   25.80</time>
   <time name="diis">  104.64  104.66</time>
   <time name="orth">    5.14    5.14</time>
   <time name="total">  146.09  146.11</time>
   <energy>
    <i name="e_fr_energy">   -879.53322725 </i>
    <i name="e_wo_entrp">   -879.57683490 </i>
    <i name="e_0_energy">   -879.54776313 </i>
   </energy>
  </scstep>
  <scstep>
   <time name="diag">   30.29   30.30</time>
   <time name="diis">   96.90   96.91</time>
   <time name="orth">    4.79    4.79</time>
   <time name="total">  141.50  141.52</time>
   <energy>
    <i name="e_fr_energy">   -879.53320853 </i>
    <i name="e_wo_entrp">   -879.57704847 </i>
    <i name="e_0_energy">   -879.54782184 </i>
   </energy>
  </scstep>
  <scstep>
   <time name="diag">   23.92   23.92</time>
   <time name="diis">   77.56   77.56</time>
   <time name="orth">    4.71    4.71</time>
   <time name="total">  115.19  115.20</time>
   <energy>
    <i name="e_fr_energy">   -879.53319331 </i>
    <i name="e_wo_entrp">   -879.57722418 </i>
    <i name="e_0_energy">   -879.54787027 </i>
   </energy>
  </scstep>
  <scstep>
   <time name="diag">   24.13   24.13</time>
   <time name="diis">   78.37   78.38</time>
   <time name="orth">    4.71    4.71</time>
   <time name="total">  116.20  116.21</time>
   <energy>
    <i name="e_fr_energy">   -879.53317929 </i>
    <i name="e_wo_entrp">   -879.57739198 </i>
    <i name="e_0_energy">   -879.54791686 </i>
   </energy>
  </scstep>
  <scstep>
   <time name="diag">   24.18   24.18</time>
   <time name="diis">   76.11   76.12</time>
   <time name="orth">    4.63    4.63</time>
   <time name="total">  113.64  113.65</time>
   <energy>
    <i name="e_fr_energy">   -879.53316608 </i>
    <i name="e_wo_entrp">   -879.57754850 </i>
    <i name="e_0_energy">   -879.54796022 </i>
   </energy>
  </scstep>
  <scstep>
   <time name="diag">   21.44   21.45</time>
   <time name="diis">   73.03   73.03</time>
   <time name="orth">    4.70    4.70</time>
   <time name="total">  108.14  108.15</time>
   <energy>
    <i name="e_fr_energy">   -879.53315612 </i>
    <i name="e_wo_entrp">   -879.57767105 </i>
    <i name="e_0_energy">   -879.54799443 </i>
   </energy>
  </scstep>
  <scstep>
   <time name="diag">   24.16   24.16</time>
   <time name="diis">   72.28   72.29</time>
   <time name="orth">    4.70    4.71</time>
   <time name="total">  110.14  110.16</time>
   <energy>
    <i name="e_fr_energy">   -879.53314652 </i>
    <i name="e_wo_entrp">   -879.57778825 </i>
    <i name="e_0_energy">   -879.54802710 </i>
   </energy>
  </scstep>
  <scstep>
   <time name="diag">   24.17   24.17</time>
   <time name="diis">   68.87   68.88</time>
   <time name="orth">    4.63    4.63</time>
   <time name="total">  106.25  106.26</time>
   <energy>
    <i name="e_fr_energy">   -879.53313767 </i>
    <i name="e_wo_entrp">   -879.57789702 </i>
    <i name="e_0_energy">   -879.54805745 </i>
   </energy>
  </scstep>
  <scstep>
   <time name="diag">   21.40   21.40</time>
   <time name="diis">   66.45   66.45</time>
   <time name="orth">    4.70    4.70</time>
   <time name="total">  101.50  101.51</time>
   <energy>
    <i name="e_fr_energy">   -879.53313001 </i>
    <i name="e_wo_entrp">   -879.57799211 </i>
    <i name="e_0_energy">   -879.54808404 </i>
   </energy>
  </scstep>
  <scstep>
   <time name="diag">   24.09   24.09</time>
   <time name="diis">   65.38   65.39</time>
   <time name="orth">    4.97    4.97</time>
   <time name="total">  103.70  103.71</time>
   <energy>
    <i name="e_fr_energy">   -879.53312160 </i>
    <i name="e_wo_entrp">   -879.57809367 </i>
    <i name="e_0_energy">   -879.54811229 </i>
   </energy>
  </scstep>
  <scstep>
   <time name="diag">   36.96   36.96</time>
   <time name="diis">   86.60   86.61</time>
   <time name="orth">    5.30    5.30</time>
   <time name="total">  143.87  143.89</time>
   <energy>
    <i name="e_fr_energy">   -879.53311391 </i>
    <i name="e_wo_entrp">   -879.57818693 </i>
    <i name="e_0_energy">   -879.54813825 </i>
   </energy>
  </scstep>
  <scstep>
   <time name="diag">   39.53   39.54</time>
   <time name="diis">   98.50   98.51</time>
   <time name="orth">    5.29    5.30</time>
   <time name="total">  158.60  158.62</time>
   <energy>
    <i name="e_fr_energy">   -879.53310733 </i>
    <i name="e_wo_entrp">   -879.57826759 </i>
    <i name="e_0_energy">   -879.54816075 </i>
   </energy>
  </scstep>
  <scstep>
   <time name="diag">   39.57   39.57</time>
   <time name="diis">   87.84   87.85</time>
   <time name="orth">    5.04    5.04</time>
   <time name="total">  144.53  144.55</time>
   <energy>
    <i name="e_fr_energy">   -879.53310248 </i>
    <i name="e_wo_entrp">   -879.57832936 </i>
    <i name="e_0_energy">   -879.54817811 </i>
   </energy>
  </scstep>
  <scstep>
   <time name="diag">   35.57   35.58</time>
   <time name="diis">   93.93   93.94</time>
   <time name="orth">    5.29    5.29</time>
   <time name="total">  149.83  149.85</time>
   <energy>
    <i name="e_fr_energy">   -879.53309729 </i>
    <i name="e_wo_entrp">   -879.57839384 </i>
    <i name="e_0_energy">   -879.54819614 </i>
   </energy>
  </scstep>
  <scstep>
   <time name="diag">   37.88   37.88</time>
   <time name="diis">   85.14   85.15</time>
   <time name="orth">    5.13    5.13</time>
   <time name="total">  139.58  139.60</time>
   <energy>
    <i name="e_fr_energy">   -879.53309316 </i>
    <i name="e_wo_entrp">   -879.57844648 </i>
    <i name="e_0_energy">   -879.54821093 </i>
   </energy>
  </scstep>
  <scstep>
   <time name="diag">   33.41   33.42</time>
   <time name="diis">   89.09   89.11</time>
   <time name="orth">    5.32    5.32</time>
   <time name="total">  142.15  142.17</time>
   <energy>
    <i name="e_fr_energy">   -879.53308958 </i>
    <i name="e_wo_entrp">   -879.57849266 </i>
    <i name="e_0_energy">   -879.54822394 </i>
   </energy>
  </scstep>
  <scstep>
   <time name="diag">   38.36   38.36</time>
   <time name="diis">   85.44   85.51</time>
   <time name="orth">    5.28    5.28</time>
   <time name="total">  142.11  142.19</time>
   <energy>
    <i name="e_fr_energy">   -879.53308598 </i>
    <i name="e_wo_entrp">   -879.57853842 </i>
    <i name="e_0_energy">   -879.54823680 </i>
   </energy>
  </scstep>
  <scstep>
   <time name="diag">   35.48   35.48</time>
   <time name="diis">   77.19   77.24</time>
   <time name="orth">    5.13    5.13</time>
   <time name="total">  129.37  129.42</time>
   <energy>
    <i name="e_fr_energy">   -879.53308296 </i>
    <i name="e_wo_entrp">   -879.57857749 </i>
    <i name="e_0_energy">   -879.54824780 </i>
   </energy>
  </scstep>
  <scstep>
   <time name="diag">   34.80   34.81</time>
   <time name="diis">   82.77   82.82</time>
   <time name="orth">    5.26    5.26</time>
   <time name="total">  135.87  135.93</time>
   <energy>
    <i name="e_fr_energy">   -879.53308027 </i>
    <i name="e_wo_entrp">   -879.57861249 </i>
    <i name="e_0_energy">   -879.54825768 </i>
   </energy>
  </scstep>
  <scstep>
   <time name="diag">   34.81   34.83</time>
   <time name="diis">   80.81   80.81</time>
   <time name="orth">    5.01    5.01</time>
   <time name="total">  132.24  132.27</time>
   <energy>
    <i name="e_fr_energy">   -879.53307783 </i>
    <i name="e_wo_entrp">   -879.57864447 </i>
    <i name="e_0_energy">   -879.54826671 </i>
   </energy>
  </scstep>
  <scstep>
   <time name="diag">   31.12   31.13</time>
   <time name="diis">   77.29   77.30</time>
   <time name="orth">    5.26    5.26</time>
   <time name="total">  126.32  126.34</time>
   <energy>
    <i name="e_fr_energy">   -879.53307559 </i>
    <i name="e_wo_entrp">   -879.57867378 </i>
    <i name="e_0_energy">   -879.54827499 </i>
   </energy>
  </scstep>
  <scstep>
   <time name="diag">   35.39   35.39</time>
   <time name="diis">   82.90   82.93</time>
   <time name="orth">    5.20    5.20</time>
   <time name="total">  135.13  135.15</time>
   <energy>
    <i name="e_fr_energy">   -879.53307354 </i>
    <i name="e_wo_entrp">   -879.57870067 </i>
    <i name="e_0_energy">   -879.54828258 </i>
   </energy>
  </scstep>
  <scstep>
   <time name="diag">   31.14   31.17</time>
   <time name="diis">   75.82   75.85</time>
   <time name="orth">    5.28    5.28</time>
   <time name="total">  125.00  125.06</time>
   <energy>
    <i name="e_fr_energy">   -879.53307166 </i>
    <i name="e_wo_entrp">   -879.57872534 </i>
    <i name="e_0_energy">   -879.54828955 </i>
   </energy>
  </scstep>
  <scstep>
   <time name="diag">   35.43   35.48</time>
   <time name="diis">   82.32   82.32</time>
   <time name="orth">    5.29    5.29</time>
   <time name="total">  135.49  135.54</time>
   <energy>
    <i name="e_fr_energy">   -879.53306969 </i>
    <i name="e_wo_entrp">   -879.57875058 </i>
    <i name="e_0_energy">   -879.54829665 </i>
   </energy>
  </scstep>
  <scstep>
   <time name="diag">   31.06   31.06</time>
   <time name="diis">   75.57   75.59</time>
   <time name="orth">    5.16    5.16</time>
   <time name="total">  124.58  124.61</time>
   <energy>
    <i name="e_fr_energy">   -879.53306788 </i>
    <i name="e_wo_entrp">   -879.57877365 </i>
    <i name="e_0_energy">   -879.54830314 </i>
   </energy>
  </scstep>
  <scstep>
   <time name="diag">   35.65   35.65</time>
   <time name="diis">   82.32   82.34</time>
   <time name="orth">    5.28    5.30</time>
   <time name="total">  135.86  135.89</time>
   <energy>
    <i name="e_fr_energy">   -879.53306640 </i>
    <i name="e_wo_entrp">   -879.57879291 </i>
    <i name="e_0_energy">   -879.54830857 </i>
   </energy>
  </scstep>
  <scstep>
   <time name="diag">   31.00   31.00</time>
   <time name="diis">   74.83   74.83</time>
   <time name="orth">    5.19    5.18</time>
   <time name="total">  123.60  123.61</time>
   <energy>
    <i name="e_fr_energy">   -879.53306507 </i>
    <i name="e_wo_entrp">   -879.57881024 </i>
    <i name="e_0_energy">   -879.54831346 </i>
   </energy>
  </scstep>
  <scstep>
   <time name="diag">   35.49   35.49</time>
   <time name="diis">   81.51   81.58</time>
   <time name="orth">    5.31    5.31</time>
   <time name="total">  134.92  134.99</time>
   <energy>
    <i name="e_fr_energy">   -879.53306381 </i>
    <i name="e_wo_entrp">   -879.57882669 </i>
    <i name="e_0_energy">   -879.54831811 </i>
   </energy>
  </scstep>
  <scstep>
   <time name="diag">   30.94   30.96</time>
   <time name="diis">   74.63   74.66</time>
   <time name="orth">    5.14    5.15</time>
   <time name="total">  123.30  123.37</time>
   <energy>
    <i name="e_fr_energy">   -879.53306274 </i>
    <i name="e_wo_entrp">   -879.57884078 </i>
    <i name="e_0_energy">   -879.54832209 </i>
   </energy>
  </scstep>
  <scstep>
   <time name="diag">   36.78   36.81</time>
   <time name="diis">   80.70   80.76</time>
   <time name="orth">    5.30    5.30</time>
   <time name="total">  123.36  123.44</time>
   <energy>
    <i name="alphaZ">   7300.31925852 </i>
    <i name="ewald"> -66232.83996889 </i>
    <i name="hartreedc">  -9349.38823323 </i>
    <i name="XCdc">    360.56784855 </i>
    <i name="pawpsdc">  58020.67922769 </i>
    <i name="pawaedc"> -58956.98556540 </i>
    <i name="eentropy">      0.04579185 </i>
    <i name="bandstr">   3776.39769854 </i>
    <i name="atom">  64201.67088057 </i>
    <i name="e_fr_energy">   -879.53306178 </i>
    <i name="e_wo_entrp">   -879.57885363 </i>
    <i name="e_0_energy">   -879.54832573 </i>
   </energy>
  </scstep>
  <structure>
   <crystal>
    <varray name="basis" >
     <v>      10.33484705       0.00000000       0.00000000 </v>
     <v>       0.00000000      10.33484705       0.00000000 </v>
     <v>       0.00000000       0.00000000      10.33484705 </v>
    </varray>
    <i name="volume">   1103.85533447 </i>
    <varray name="rec_basis" >
     <v>       0.09676002       0.00000000       0.00000000 </v>
     <v>       0.00000000       0.09676002       0.00000000 </v>
     <v>       0.00000000       0.00000000       0.09676002 </v>
    </varray>
   </crystal>
   <varray name="positions" >
    <v>       0.00000000       0.00000000       0.00000000 </v>
    <v>       0.00000000       0.16666893       0.16666893 </v>
    <v>       0.16666893       0.00000000       0.16666893 </v>
    <v>       0.16666893       0.16666893       0.00000000 </v>
    <v>       0.33333106       0.00000000       0.00000000 </v>
    <v>       0.33333107       0.16666893       0.16666893 </v>
    <v>       0.50000000       0.00000000       0.16666894 </v>
    <v>       0.50000000       0.16666894       0.00000000 </v>
    <v>       0.66666897       0.00000000       0.00000000 </v>
    <v>       0.66666896       0.16666893       0.16666893 </v>
    <v>       0.83333104       0.00000000       0.16666893 </v>
    <v>       0.83333104       0.16666893       0.00000000 </v>
    <v>       0.00000000       0.33333106       0.00000000 </v>
    <v>       0.00000000       0.50000000       0.16666894 </v>
    <v>       0.16666893       0.33333107       0.16666893 </v>
    <v>       0.16666894       0.50000000       0.00000000 </v>
    <v>       0.33333107       0.33333107       0.00000000 </v>
    <v>       0.33333107       0.50000000       0.16666893 </v>
    <v>       0.50000000       0.33333107       0.16666893 </v>
    <v>       0.50000000       0.50000000       0.00000000 </v>
    <v>       0.66666896       0.33333107       0.00000000 </v>
    <v>       0.66666896       0.50000000       0.16666893 </v>
    <v>       0.83333104       0.33333107       0.16666893 </v>
    <v>       0.83333103       0.50000000       0.00000000 </v>
    <v>       0.00000000       0.66666897       0.00000000 </v>
    <v>       0.00000000       0.83333104       0.16666893 </v>
    <v>       0.16666893       0.66666896       0.16666893 </v>
    <v>       0.16666893       0.83333104       0.00000000 </v>
    <v>       0.33333107       0.66666896       0.00000000 </v>
    <v>       0.33333107       0.83333104       0.16666893 </v>
    <v>       0.50000000       0.66666896       0.16666893 </v>
    <v>       0.50000000       0.83333103       0.00000000 </v>
    <v>       0.66666896       0.66666896       0.00000000 </v>
    <v>       0.66666896       0.83333104       0.16666893 </v>
    <v>       0.83333104       0.66666896       0.16666893 </v>
    <v>       0.83333104       0.83333104       0.00000000 </v>
    <v>       0.00000000       0.00000000       0.33333106 </v>
    <v>       0.00000000       0.16666894       0.50000000 </v>
    <v>       0.16666894       0.00000000       0.50000000 </v>
    <v>       0.16666893       0.16666893       0.33333107 </v>
    <v>       0.33333107       0.00000000       0.33333107 </v>
    <v>       0.33333107       0.16666893       0.50000000 </v>
    <v>       0.50000000       0.00000000       0.50000000 </v>
    <v>       0.50000000       0.16666893       0.33333107 </v>
    <v>       0.66666896       0.00000000       0.33333107 </v>
    <v>       0.66666896       0.16666893       0.50000000 </v>
    <v>       0.83333103       0.00000000       0.50000000 </v>
    <v>       0.83333104       0.16666893       0.33333107 </v>
    <v>       0.00000000       0.33333107       0.33333107 </v>
    <v>       0.00000000       0.50000000       0.50000000 </v>
    <v>       0.16666893       0.33333107       0.50000000 </v>
    <v>       0.16666893       0.50000000       0.33333107 </v>
    <v>       0.33333107       0.33333107       0.33333107 </v>
    <v>       0.33333106       0.50000000       0.50000000 </v>
    <v>       0.50000000       0.33333106       0.50000000 </v>
    <v>       0.50000000       0.50000000       0.33333106 </v>
    <v>       0.66666896       0.33333107       0.33333107 </v>
    <v>       0.66666897       0.50000000       0.50000000 </v>
    <v>       0.83333104       0.33333107       0.50000000 </v>
    <v>       0.83333104       0.50000000       0.33333107 </v>
    <v>       0.00000000       0.66666896       0.33333107 </v>
    <v>       0.00000000       0.83333103       0.50000000 </v>
    <v>       0.16666893       0.66666896       0.50000000 </v>
    <v>       0.16666893       0.83333104       0.33333107 </v>
    <v>       0.33333107       0.66666896       0.33333107 </v>
    <v>       0.33333107       0.83333104       0.50000000 </v>
    <v>       0.50000000       0.66666897       0.50000000 </v>
    <v>       0.50000000       0.83333104       0.33333107 </v>
    <v>       0.66666896       0.66666896       0.33333107 </v>
    <v>       0.66666896       0.83333104       0.50000000 </v>
    <v>       0.83333104       0.66666896       0.50000000 </v>
    <v>       0.83333104       0.83333104       0.33333107 </v>
    <v>       0.00000000       0.00000000       0.66666897 </v>
    <v>       0.00000000       0.16666893       0.83333104 </v>
    <v>       0.16666893       0.00000000       0.83333104 </v>
    <v>       0.16666893       0.16666893       0.66666896 </v>
    <v>       0.33333107       0.00000000       0.66666896 </v>
    <v>       0.33333107       0.16666893       0.83333104 </v>
    <v>       0.50000000       0.00000000       0.83333103 </v>
    <v>       0.50000000       0.16666893       0.66666896 </v>
    <v>       0.66666896       0.00000000       0.66666896 </v>
    <v>       0.66666896       0.16666893       0.83333104 </v>
    <v>       0.83333104       0.00000000       0.83333104 </v>
    <v>       0.83333104       0.16666893       0.66666896 </v>
    <v>       0.00000000       0.33333107       0.66666896 </v>
    <v>       0.00000000       0.50000000       0.83333103 </v>
    <v>       0.16666893       0.33333107       0.83333104 </v>
    <v>       0.16666893       0.50000000       0.66666896 </v>
    <v>       0.33333107       0.33333107       0.66666896 </v>
    <v>       0.33333107       0.50000000       0.83333104 </v>
    <v>       0.50000000       0.33333107       0.83333104 </v>
    <v>       0.50000000       0.50000000       0.66666897 </v>
    <v>       0.66666896       0.33333107       0.66666896 </v>
    <v>       0.66666896       0.50000000       0.83333104 </v>
    <v>       0.83333104       0.33333107       0.83333104 </v>
    <v>       0.83333104       0.50000000       0.66666896 </v>
    <v>       0.00000000       0.66666896       0.66666896 </v>
    <v>       0.00000000       0.83333104       0.83333104 </v>
    <v>       0.16666893       0.66666896       0.83333104 </v>
    <v>       0.16666893       0.83333104       0.66666896 </v>
    <v>       0.33333107       0.66666896       0.66666896 </v>
    <v>       0.33333107       0.83333104       0.83333104 </v>
    <v>       0.50000000       0.66666896       0.83333104 </v>
    <v>       0.50000000       0.83333104       0.66666896 </v>
    <v>       0.66666896       0.66666896       0.66666896 </v>
    <v>       0.66666896       0.83333104       0.83333104 </v>
    <v>       0.83333104       0.66666896       0.83333104 </v>
    <v>       0.83333104       0.83333104       0.66666896 </v>
   </varray>
  </structure>
  <varray name="forces" >
   <v>      -0.00000000       0.00000000      -0.00000000 </v>
   <v>       0.00000000       0.00000000      -0.00000000 </v>
   <v>       0.00000000       0.00000000      -0.00000000 </v>
   <v>       0.00000000       0.00000000      -0.00000000 </v>
   <v>       0.00000000      -0.00000000       0.00000000 </v>
   <v>       0.00000000      -0.00000000       0.00000000 </v>
   <v>      -0.00000000       0.00000000      -0.00000000 </v>
   <v>       0.00000000       0.00000000      -0.00000000 </v>
   <v>      -0.00000000       0.00000000      -0.00000000 </v>
   <v>      -0.00000000      -0.00000000      -0.00000000 </v>
   <v>      -0.00000000      -0.00000000       0.00000000 </v>
   <v>      -0.00000000       0.00000000      -0.00000000 </v>
   <v>      -0.00000000      -0.00000000      -0.00000000 </v>
   <v>      -0.00000000       0.00000000      -0.00000000 </v>
   <v>       0.00000000       0.00000000      -0.00000000 </v>
   <v>       0.00000000      -0.00000000       0.00000000 </v>
   <v>      -0.00000000      -0.00000000       0.00000000 </v>
   <v>      -0.00000000      -0.00000000       0.00000000 </v>
   <v>       0.00000000       0.00000000       0.00000000 </v>
   <v>      -0.00000000       0.00000000       0.00000000 </v>
   <v>      -0.00000000      -0.00000000       0.00000000 </v>
   <v>       0.00000000      -0.00000000       0.00000000 </v>
   <v>      -0.00000000       0.00000000      -0.00000000 </v>
   <v>       0.00000000       0.00000000       0.00000000 </v>
   <v>      -0.00000000       0.00000000      -0.00000000 </v>
   <v>      -0.00000000      -0.00000000      -0.00000000 </v>
   <v>       0.00000000       0.00000000       0.00000000 </v>
   <v>       0.00000000      -0.00000000      -0.00000000 </v>
   <v>      -0.00000000      -0.00000000      -0.00000000 </v>
   <v>      -0.00000000      -0.00000000       0.00000000 </v>
   <v>      -0.00000000      -0.00000000       0.00000000 </v>
   <v>       0.00000000       0.00000000       0.00000000 </v>
   <v>      -0.00000000       0.00000000       0.00000000 </v>
   <v>      -0.00000000      -0.00000000       0.00000000 </v>
   <v>      -0.00000000      -0.00000000       0.00000000 </v>
   <v>      -0.00000000       0.00000000      -0.00000000 </v>
   <v>      -0.00000000       0.00000000       0.00000000 </v>
   <v>       0.00000000       0.00000000      -0.00000000 </v>
   <v>       0.00000000       0.00000000      -0.00000000 </v>
   <v>       0.00000000       0.00000000       0.00000000 </v>
   <v>      -0.00000000       0.00000000      -0.00000000 </v>
   <v>      -0.00000000      -0.00000000      -0.00000000 </v>
   <v>      -0.00000000       0.00000000      -0.00000000 </v>
   <v>      -0.00000000       0.00000000      -0.00000000 </v>
   <v>      -0.00000000       0.00000000      -0.00000000 </v>
   <v>      -0.00000000      -0.00000000      -0.00000000 </v>
   <v>       0.00000000       0.00000000      -0.00000000 </v>
   <v>      -0.00000000       0.00000000       0.00000000 </v>
   <v>       0.00000000       0.00000000       0.00000000 </v>
   <v>      -0.00000000       0.00000000       0.00000000 </v>
   <v>       0.00000000      -0.00000000      -0.00000000 </v>
   <v>      -0.00000000      -0.00000000      -0.00000000 </v>
   <v>      -0.00000000       0.00000000       0.00000000 </v>
   <v>      -0.00000000      -0.00000000       0.00000000 </v>
   <v>       0.00000000       0.00000000       0.00000000 </v>
   <v>      -0.00000000       0.00000000      -0.00000000 </v>
   <v>      -0.00000000      -0.00000000      -0.00000000 </v>
   <v>       0.00000000      -0.00000000       0.00000000 </v>
   <v>       0.00000000      -0.00000000       0.00000000 </v>
   <v>       0.00000000      -0.00000000      -0.00000000 </v>
   <v>      -0.00000000       0.00000000       0.00000000 </v>
   <v>       0.00000000       0.00000000      -0.00000000 </v>
   <v>      -0.00000000       0.00000000      -0.00000000 </v>
   <v>       0.00000000       0.00000000       0.00000000 </v>
   <v>       0.00000000      -0.00000000       0.00000000 </v>
   <v>      -0.00000000      -0.00000000       0.00000000 </v>
   <v>      -0.00000000       0.00000000       0.00000000 </v>
   <v>       0.00000000      -0.00000000      -0.00000000 </v>
   <v>      -0.00000000      -0.00000000       0.00000000 </v>
   <v>       0.00000000       0.00000000       0.00000000 </v>
   <v>       0.00000000       0.00000000       0.00000000 </v>
   <v>      -0.00000000       0.00000000       0.00000000 </v>
   <v>       0.00000000      -0.00000000      -0.00000000 </v>
   <v>       0.00000000       0.00000000       0.00000000 </v>
   <v>       0.00000000      -0.00000000       0.00000000 </v>
   <v>       0.00000000      -0.00000000       0.00000000 </v>
   <v>      -0.00000000       0.00000000      -0.00000000 </v>
   <v>       0.00000000       0.00000000       0.00000000 </v>
   <v>      -0.00000000       0.00000000      -0.00000000 </v>
   <v>       0.00000000       0.00000000       0.00000000 </v>
   <v>      -0.00000000      -0.00000000      -0.00000000 </v>
   <v>       0.00000000      -0.00000000       0.00000000 </v>
   <v>      -0.00000000       0.00000000       0.00000000 </v>
   <v>      -0.00000000       0.00000000      -0.00000000 </v>
   <v>      -0.00000000      -0.00000000      -0.00000000 </v>
   <v>      -0.00000000       0.00000000       0.00000000 </v>
   <v>       0.00000000      -0.00000000      -0.00000000 </v>
   <v>      -0.00000000      -0.00000000       0.00000000 </v>
   <v>       0.00000000      -0.00000000      -0.00000000 </v>
   <v>      -0.00000000      -0.00000000      -0.00000000 </v>
   <v>       0.00000000      -0.00000000       0.00000000 </v>
   <v>      -0.00000000       0.00000000       0.00000000 </v>
   <v>      -0.00000000      -0.00000000      -0.00000000 </v>
   <v>      -0.00000000      -0.00000000      -0.00000000 </v>
   <v>      -0.00000000       0.00000000      -0.00000000 </v>
   <v>       0.00000000       0.00000000       0.00000000 </v>
   <v>       0.00000000      -0.00000000       0.00000000 </v>
   <v>       0.00000000      -0.00000000       0.00000000 </v>
   <v>      -0.00000000       0.00000000       0.00000000 </v>
   <v>       0.00000000       0.00000000      -0.00000000 </v>
   <v>      -0.00000000       0.00000000      -0.00000000 </v>
   <v>      -0.00000000      -0.00000000       0.00000000 </v>
   <v>       0.00000000      -0.00000000      -0.00000000 </v>
   <v>      -0.00000000       0.00000000       0.00000000 </v>
   <v>       0.00000000      -0.00000000      -0.00000000 </v>
   <v>       0.00000000       0.00000000      -0.00000000 </v>
   <v>       0.00000000       0.00000000      -0.00000000 </v>
   <v>       0.00000000      -0.00000000      -0.00000000 </v>
  </varray>
  <varray name="stress" >
   <v>      -0.42740175       0.00000000      -0.00000000 </v>
   <v>       0.00000000      -0.42740175      -0.00000000 </v>
   <v>       0.00000000       0.00000000      -0.42740175 </v>
  </varray>
  <energy>
   <i name="e_fr_energy">   -879.53306178 </i>
   <i name="e_wo_entrp">   -879.54832573 </i>
   <i name="e_0_energy">      0.04579185 </i>
  </energy>
  <time name="totalsc"> 7583.71 7585.73</time>
  <eigenvalues>
   <array>
    <dimension dim="1">band</dimension>
    <dimension dim="2">kpoint</dimension>
    <dimension dim="3">spin</dimension>
    <field>eigene</field>
    <field>occ</field>
    <set>
     <set comment="spin 1">
      <set comment="kpoint 1">
       <r>   -1.9819    1.0000 </r>
       <r>   -0.6661    1.0000 </r>
       <r>   -0.6661    1.0000 </r>
       <r>   -0.6661    1.0000 </r>
       <r>   -0.3222    1.0000 </r>
       <r>   -0.3222    1.0000 </r>
       <r>   -0.3222    1.0000 </r>
       <r>    0.4949    1.0000 </r>
       <r>    0.4949    1.0000 </r>
       <r>    0.4949    1.0000 </r>
       <r>    0.7948    1.0000 </r>
       <r>    0.7948    1.0000 </r>
       <r>    0.7948    1.0000 </r>
       <r>    0.7948    1.0000 </r>
       <r>    0.7948    1.0000 </r>
       <r>    0.7948    1.0000 </r>
       <r>    1.0807    1.0000 </r>
       <r>    1.0807    1.0000 </r>
       <r>    1.0807    1.0000 </r>
       <r>    1.1993    1.0000 </r>
       <r>    1.3664    1.0000 </r>
       <r>    1.3664    1.0000 </r>
       <r>    1.3664    1.0000 </r>
       <r>    1.5004    1.0000 </r>
       <r>    1.5004    1.0000 </r>
       <r>    1.5004    1.0000 </r>
       <r>    1.6003    1.0000 </r>
       <r>    1.8518    1.0000 </r>
       <r>    1.8518    1.0000 </r>
       <r>    1.8518    1.0000 </r>
       <r>    1.8755    1.0000 </r>
       <r>    1.8755    1.0000 </r>
       <r>    1.8755    1.0000 </r>
       <r>    1.9481    1.0000 </r>
       <r>    1.9481    1.0000 </r>
       <r>    1.9481    1.0000 </r>
       <r>    2.4761    1.0000 </r>
       <r>    2.4761    1.0000 </r>
       <r>    2.4761    1.0000 </r>
       <r>    2.5284    1.0000 </r>
       <r>    2.5284    1.0000 </r>
       <r>    2.5284    1.0000 </r>
       <r>    2.5284    1.0000 </r>
       <r>    2.5284    1.0000 </r>
       <r>    2.5284    1.0000 </r>
       <r>    2.5530    1.0000 </r>
       <r>    2.5530    1.0000 </r>
       <r>    2.5530    1.0000 </r>
       <r>    2.5990    1.0000 </r>
       <r>    2.5990    1.0000 </r>
       <r>    2.5990    1.0000 </r>
       <r>    2.5990    1.0000 </r>
       <r>    2.5990    1.0000 </r>
       <r>    2.5990    1.0000 </r>
       <r>    2.6161    1.0000 </r>
       <r>    2.6161    1.0000 </r>
       <r>    2.6161    1.0000 </r>
       <r>    2.6230    1.0000 </r>
       <r>    2.6230    1.0000 </r>
       <r>    2.6230    1.0000 </r>
       <r>    2.6762    1.0000 </r>
       <r>    2.6762    1.0000 </r>
       <r>    2.6762    1.0000 </r>
       <r>    2.6762    1.0000 </r>
       <r>    2.6762    1.0000 </r>
       <r>    2.6762    1.0000 </r>
       <r>    2.6992    1.0000 </r>
       <r>    2.6992    1.0000 </r>
       <r>    2.6992    1.0000 </r>
       <r>    2.7334    1.0000 </r>
       <r>    2.7334    1.0000 </r>
       <r>    2.7334    1.0000 </r>
       <r>    2.7334    1.0000 </r>
       <r>    2.7334    1.0000 </r>
       <r>    2.7334    1.0000 </r>
       <r>    2.7461    1.0000 </r>
       <r>    2.7461    1.0000 </r>
       <r>    2.7461    1.0000 </r>
       <r>    2.7461    1.0000 </r>
       <r>    2.7461    1.0000 </r>
       <r>    2.7461    1.0000 </r>
       <r>    2.8136    1.0000 </r>
       <r>    2.8136    1.0000 </r>
       <r>    2.8136    1.0000 </r>
       <r>    2.8136    1.0000 </r>
       <r>    2.8136    1.0000 </r>
       <r>    2.8136    1.0000 </r>
       <r>    2.9303    1.0000 </r>
       <r>    2.9303    1.0000 </r>
       <r>    2.9303    1.0000 </r>
       <r>    2.9303    1.0000 </r>
       <r>    2.9303    1.0000 </r>
       <r>    2.9303    1.0000 </r>
       <r>    3.0079    1.0000 </r>
       <r>    3.0079    1.0000 </r>
       <r>    3.0079    1.0000 </r>
       <r>    3.0079    1.0000 </r>
       <r>    3.0079    1.0000 </r>
       <r>    3.0079    1.0000 </r>
       <r>    3.1253    1.0000 </r>
       <r>    3.1253    1.0000 </r>
       <r>    3.1253    1.0000 </r>
       <r>    3.1875    1.0000 </r>
       <r>    3.1875    1.0000 </r>
       <r>    3.1875    1.0000 </r>
       <r>    3.2407    1.0000 </r>
       <r>    3.2407    1.0000 </r>
       <r>    3.2407    1.0000 </r>
       <r>    3.2407    1.0000 </r>
       <r>    3.2407    1.0000 </r>
       <r>    3.2407    1.0000 </r>
       <r>    3.2601    1.0000 </r>
       <r>    3.2601    1.0000 </r>
       <r>    3.2601    1.0000 </r>
       <r>    3.3194    1.0000 </r>
       <r>    3.3194    1.0000 </r>
       <r>    3.3194    1.0000 </r>
       <r>    3.3194    1.0000 </r>
       <r>    3.3194    1.0000 </r>
       <r>    3.3194    1.0000 </r>
       <r>    3.4168    1.0000 </r>
       <r>    3.4168    1.0000 </r>
       <r>    3.4168    1.0000 </r>
       <r>    3.4187    1.0000 </r>
       <r>    3.4187    1.0000 </r>
       <r>    3.4187    1.0000 </r>
       <r>    3.4187    1.0000 </r>
       <r>    3.4187    1.0000 </r>
       <r>    3.4187    1.0000 </r>
       <r>    3.5117    1.0000 </r>
       <r>    3.5117    1.0000 </r>
       <r>    3.5117    1.0000 </r>
       <r>    3.5715    1.0000 </r>
       <r>    3.5715    1.0000 </r>
       <r>    3.5715    1.0000 </r>
       <r>    3.5715    1.0000 </r>
       <r>    3.5715    1.0000 </r>
       <r>    3.5715    1.0000 </r>
       <r>    3.5931    1.0000 </r>
       <r>    3.5931    1.0000 </r>
       <r>    3.5931    1.0000 </r>
       <r>    3.5931    1.0000 </r>
       <r>    3.5931    1.0000 </r>
       <r>    3.5931    1.0000 </r>
       <r>    3.6338    1.0000 </r>
       <r>    3.6338    1.0000 </r>
       <r>    3.6338    1.0000 </r>
       <r>    3.6842    1.0000 </r>
       <r>    3.6842    1.0000 </r>
       <r>    3.6842    1.0000 </r>
       <r>    3.6842    1.0000 </r>
       <r>    3.6842    1.0000 </r>
       <r>    3.6842    1.0000 </r>
       <r>    3.7211    1.0000 </r>
       <r>    3.7211    1.0000 </r>
       <r>    3.7211    1.0000 </r>
       <r>    3.7211    1.0000 </r>
       <r>    3.7211    1.0000 </r>
       <r>    3.7211    1.0000 </r>
       <r>    3.7986    1.0000 </r>
       <r>    3.7986    1.0000 </r>
       <r>    3.7986    1.0000 </r>
       <r>    3.7986    1.0000 </r>
       <r>    3.7986    1.0000 </r>
       <r>    3.7986    1.0000 </r>
       <r>    4.1128    1.0000 </r>
       <r>    4.1128    1.0000 </r>
       <r>    4.1128    1.0000 </r>
       <r>    4.2118    1.0000 </r>
       <r>    4.2118    1.0000 </r>
       <r>    4.2118    1.0000 </r>
       <r>    4.2118    1.0000 </r>
       <r>    4.2118    1.0000 </r>
       <r>    4.2118    1.0000 </r>
       <r>    4.2846    1.0000 </r>
       <r>    4.2846    1.0000 </r>
       <r>    4.2846    1.0000 </r>
       <r>    4.3047    1.0000 </r>
       <r>    4.3047    1.0000 </r>
       <r>    4.3047    1.0000 </r>
       <r>    4.3144    1.0000 </r>
       <r>    4.3144    1.0000 </r>
       <r>    4.3144    1.0000 </r>
       <r>    4.3443    1.0000 </r>
       <r>    4.3443    1.0000 </r>
       <r>    4.3443    1.0000 </r>
       <r>    4.3443    1.0000 </r>
       <r>    4.3443    1.0000 </r>
       <r>    4.3443    1.0000 </r>
       <r>    4.3826    1.0000 </r>
       <r>    4.3826    1.0000 </r>
       <r>    4.3826    1.0000 </r>
       <r>    4.3826    1.0000 </r>
       <r>    4.3826    1.0000 </r>
       <r>    4.3826    1.0000 </r>
       <r>    4.3867    1.0000 </r>
       <r>    4.3867    1.0000 </r>
       <r>    4.3867    1.0000 </r>
       <r>    4.4106    1.0000 </r>
       <r>    4.4106    1.0000 </r>
       <r>    4.4106    1.0000 </r>
       <r>    4.4790    1.0000 </r>
       <r>    4.4790    1.0000 </r>
       <r>    4.4790    1.0000 </r>
       <r>    4.5361    1.0000 </r>
       <r>    4.5361    1.0000 </r>
       <r>    4.5361    1.0000 </r>
       <r>    4.5361    1.0000 </r>
       <r>    4.5361    1.0000 </r>
       <r>    4.5361    1.0000 </r>
       <r>    4.5415    1.0000 </r>
       <r>    4.5415    1.0000 </r>
       <r>    4.5415    1.0000 </r>
       <r>    4.5598    1.0000 </r>
       <r>    4.5598    1.0000 </r>
       <r>    4.5598    1.0000 </r>
       <r>    4.5598    1.0000 </r>
       <r>    4.5598    1.0000 </r>
       <r>    4.5598    1.0000 </r>
       <r>    4.7326    1.0000 </r>
       <r>    4.7326    1.0000 </r>
       <r>    4.7326    1.0000 </r>
       <r>    4.7326    1.0000 </r>
       <r>    4.7326    1.0000 </r>
       <r>    4.7326    1.0000 </r>
       <r>    4.7476    1.0000 </r>
       <r>    4.7476    1.0000 </r>
       <r>    4.7476    1.0000 </r>
       <r>    4.7926    1.0000 </r>
       <r>    4.7926    1.0000 </r>
       <r>    4.7926    1.0000 </r>
       <r>    4.7926    1.0000 </r>
       <r>    4.7926    1.0000 </r>
       <r>    4.7926    1.0000 </r>
       <r>    4.8625    1.0000 </r>
       <r>    4.8646    1.0000 </r>
       <r>    4.8646    1.0000 </r>
       <r>    4.8646    1.0000 </r>
       <r>    4.8646    1.0000 </r>
       <r>    4.8646    1.0000 </r>
       <r>    4.8646    1.0000 </r>
       <r>    4.9543    1.0000 </r>
       <r>    4.9543    1.0000 </r>
       <r>    4.9543    1.0000 </r>
       <r>    5.0224    1.0000 </r>
       <r>    5.0224    1.0000 </r>
       <r>    5.0224    1.0000 </r>
       <r>    5.0920    1.0000 </r>
       <r>    5.0920    1.0000 </r>
       <r>    5.0920    1.0000 </r>
       <r>    5.1256    1.0000 </r>
       <r>    5.1256    1.0000 </r>
       <r>    5.1256    1.0000 </r>
       <r>    5.1484    1.0000 </r>
       <r>    5.1484    1.0000 </r>
       <r>    5.1484    1.0000 </r>
       <r>    5.1709    1.0000 </r>
       <r>    5.1836    1.0000 </r>
       <r>    5.1836    1.0000 </r>
       <r>    5.1933    1.0000 </r>
       <r>    5.1933    1.0000 </r>
       <r>    5.1933    1.0000 </r>
       <r>    5.1933    1.0000 </r>
       <r>    5.1933    1.0000 </r>
       <r>    5.1933    1.0000 </r>
       <r>    5.2447    1.0000 </r>
       <r>    5.2447    1.0000 </r>
       <r>    5.2447    1.0000 </r>
       <r>    5.2447    1.0000 </r>
       <r>    5.2447    1.0000 </r>
       <r>    5.2447    1.0000 </r>
       <r>    5.2575    1.0000 </r>
       <r>    5.2575    1.0000 </r>
       <r>    5.2575    1.0000 </r>
       <r>    5.2596    1.0000 </r>
       <r>    5.2596    1.0000 </r>
       <r>    5.2650    1.0000 </r>
       <r>    5.2650    1.0000 </r>
       <r>    5.2650    1.0000 </r>
       <r>    5.2650    1.0000 </r>
       <r>    5.2650    1.0000 </r>
       <r>    5.2650    1.0000 </r>
       <r>    5.2781    1.0000 </r>
       <r>    5.2852    1.0000 </r>
       <r>    5.2852    1.0000 </r>
       <r>    5.2853    1.0000 </r>
       <r>    5.2927    1.0000 </r>
       <r>    5.2927    1.0000 </r>
       <r>    5.2927    1.0000 </r>
       <r>    5.3009    1.0000 </r>
       <r>    5.3009    1.0000 </r>
       <r>    5.3009    1.0000 </r>
       <r>    5.3065    1.0000 </r>
       <r>    5.3065    1.0000 </r>
       <r>    5.3065    1.0000 </r>
       <r>    5.3248    1.0000 </r>
       <r>    5.3248    1.0000 </r>
       <r>    5.3248    1.0000 </r>
       <r>    5.3248    1.0000 </r>
       <r>    5.3248    1.0000 </r>
       <r>    5.3248    1.0000 </r>
       <r>    5.3310    1.0000 </r>
       <r>    5.3310    1.0000 </r>
       <r>    5.3310    1.0000 </r>
       <r>    5.3471    1.0000 </r>
       <r>    5.3471    1.0000 </r>
       <r>    5.3855    1.0000 </r>
       <r>    5.3855    1.0000 </r>
       <r>    5.3855    1.0000 </r>
       <r>    5.3865    1.0000 </r>
       <r>    5.3865    1.0000 </r>
       <r>    5.3865    1.0000 </r>
       <r>    5.5478    1.0000 </r>
       <r>    5.5478    1.0000 </r>
       <r>    5.5478    1.0000 </r>
       <r>    5.6085    1.0000 </r>
       <r>    5.6085    1.0000 </r>
       <r>    5.6085    1.0000 </r>
       <r>    5.6085    1.0000 </r>
       <r>    5.6085    1.0000 </r>
       <r>    5.6085    1.0000 </r>
       <r>    5.6355    1.0000 </r>
       <r>    5.6355    1.0000 </r>
       <r>    5.6355    1.0000 </r>
       <r>    5.6355    1.0000 </r>
       <r>    5.6355    1.0000 </r>
       <r>    5.6355    1.0000 </r>
       <r>    5.6547    1.0000 </r>
       <r>    5.6547    1.0000 </r>
       <r>    5.6547    1.0000 </r>
       <r>    5.6698    1.0000 </r>
       <r>    5.6698    1.0000 </r>
       <r>    5.6698    1.0000 </r>
       <r>    5.6742    1.0000 </r>
       <r>    5.6742    1.0000 </r>
       <r>    5.6742    1.0000 </r>
       <r>    5.7134    1.0000 </r>
       <r>    5.7134    1.0000 </r>
       <r>    5.7134    1.0000 </r>
       <r>    5.7461    1.0000 </r>
       <r>    5.7461    1.0000 </r>
       <r>    5.7461    1.0000 </r>
       <r>    5.7461    1.0000 </r>
       <r>    5.7461    1.0000 </r>
       <r>    5.7461    1.0000 </r>
       <r>    5.7927    1.0000 </r>
       <r>    5.7927    1.0000 </r>
       <r>    5.7927    1.0000 </r>
       <r>    5.8091    1.0000 </r>
       <r>    5.8091    1.0000 </r>
       <r>    5.8091    1.0000 </r>
       <r>    5.8285    1.0000 </r>
       <r>    5.8285    1.0000 </r>
       <r>    5.8285    1.0000 </r>
       <r>    5.8517    1.0000 </r>
       <r>    5.8517    1.0000 </r>
       <r>    5.8517    1.0000 </r>
       <r>    5.9345    1.0000 </r>
       <r>    5.9345    1.0000 </r>
       <r>    5.9345    1.0000 </r>
       <r>    5.9345    1.0000 </r>
       <r>    5.9345    1.0000 </r>
       <r>    5.9345    1.0000 </r>
       <r>    5.9861    1.0000 </r>
       <r>    5.9861    1.0000 </r>
       <r>    5.9861    1.0000 </r>
       <r>    6.0741    1.0000 </r>
       <r>    6.0741    1.0000 </r>
       <r>    6.0741    1.0000 </r>
       <r>    6.1455    1.0000 </r>
       <r>    6.1455    1.0000 </r>
       <r>    6.1455    1.0000 </r>
       <r>    6.1632    1.0000 </r>
       <r>    6.1632    1.0000 </r>
       <r>    6.1632    1.0000 </r>
       <r>    6.1632    1.0000 </r>
       <r>    6.1632    1.0000 </r>
       <r>    6.1632    1.0000 </r>
       <r>    6.1803    1.0000 </r>
       <r>    6.1803    1.0000 </r>
       <r>    6.1803    1.0000 </r>
       <r>    6.1828    1.0000 </r>
       <r>    6.1828    1.0000 </r>
       <r>    6.1828    1.0000 </r>
       <r>    6.3651    1.0038 </r>
       <r>    6.3651    1.0038 </r>
       <r>    6.3651    1.0038 </r>
       <r>    6.4394    1.0130 </r>
       <r>    6.4394    1.0130 </r>
       <r>    6.4394    1.0130 </r>
       <r>    6.5269    1.0318 </r>
       <r>    6.5269    1.0318 </r>
       <r>    6.5269    1.0318 </r>
       <r>    6.5270    1.0318 </r>
       <r>    6.5270    1.0318 </r>
       <r>    6.5270    1.0318 </r>
       <r>    6.6000    1.0284 </r>
       <r>    6.6000    1.0284 </r>
       <r>    6.6000    1.0284 </r>
       <r>    6.6000    1.0284 </r>
       <r>    6.6000    1.0284 </r>
       <r>    6.6000    1.0284 </r>
       <r>    6.6205    1.0166 </r>
       <r>    6.6205    1.0166 </r>
       <r>    6.6205    1.0166 </r>
       <r>    6.7051    0.8753 </r>
       <r>    6.7051    0.8753 </r>
       <r>    6.7051    0.8753 </r>
       <r>    6.7051    0.8753 </r>
       <r>    6.7051    0.8753 </r>
       <r>    6.7051    0.8753 </r>
       <r>    6.7191    0.8351 </r>
       <r>    6.7191    0.8351 </r>
       <r>    6.7191    0.8351 </r>
       <r>    6.7191    0.8351 </r>
       <r>    6.7191    0.8351 </r>
       <r>    6.7191    0.8351 </r>
       <r>    6.7312    0.7968 </r>
       <r>    6.7312    0.7968 </r>
       <r>    6.7312    0.7968 </r>
       <r>    6.7351    0.7836 </r>
       <r>    6.7351    0.7836 </r>
       <r>    6.8322    0.3943 </r>
       <r>    6.8322    0.3943 </r>
       <r>    6.8322    0.3943 </r>
       <r>    6.8322    0.3943 </r>
       <r>    6.8322    0.3943 </r>
       <r>    6.8322    0.3943 </r>
       <r>    6.8842    0.1989 </r>
       <r>    6.8842    0.1989 </r>
       <r>    6.8842    0.1989 </r>
       <r>    6.8842    0.1989 </r>
       <r>    6.8842    0.1989 </r>
       <r>    6.8842    0.1989 </r>
       <r>    6.9602    0.0192 </r>
       <r>    6.9602    0.0192 </r>
       <r>    6.9602    0.0192 </r>
       <r>    7.0186   -0.0301 </r>
       <r>    7.0186   -0.0301 </r>
       <r>    7.0186   -0.0301 </r>
       <r>    7.0341   -0.0341 </r>
       <r>    7.0341   -0.0341 </r>
       <r>    7.0341   -0.0341 </r>
       <r>    7.0349   -0.0342 </r>
       <r>    7.0349   -0.0342 </r>
       <r>    7.0349   -0.0342 </r>
       <r>    7.0349   -0.0342 </r>
       <r>    7.0349   -0.0342 </r>
       <r>    7.0349   -0.0342 </r>
       <r>    7.0815   -0.0327 </r>
       <r>    7.0815   -0.0327 </r>
       <r>    7.0815   -0.0327 </r>
       <r>    7.0815   -0.0327 </r>
       <r>    7.0815   -0.0327 </r>
       <r>    7.0815   -0.0327 </r>
       <r>    7.0841   -0.0323 </r>
       <r>    7.0841   -0.0323 </r>
       <r>    7.0841   -0.0323 </r>
       <r>    7.0841   -0.0323 </r>
       <r>    7.0841   -0.0323 </r>
       <r>    7.0841   -0.0323 </r>
       <r>    7.1192   -0.0249 </r>
       <r>    7.1192   -0.0249 </r>
[...]
       <r>    -1.8245     2.3339     0.3127 </r>
       <r>    -1.7786     2.7700     0.4398 </r>
       <r>    -1.7326     3.1488     0.5844 </r>
       <r>    -1.6867     3.4756     0.7439 </r>
       <r>    -1.6408     3.7642     0.9167 </r>
       <r>    -1.5949     4.0304     1.1017 </r>
       <r>    -1.5490     4.2856     1.2984 </r>
       <r>    -1.5031     4.5320     1.5065 </r>
       <r>    -1.4572     4.7650     1.7252 </r>
       <r>    -1.4113     4.9825     1.9539 </r>
       <r>    -1.3654     5.1939     2.1923 </r>
       <r>    -1.3195     5.4147     2.4409 </r>
       <r>    -1.2736     5.6498     2.7002 </r>
       <r>    -1.2277     5.8829     2.9703 </r>
       <r>    -1.1818     6.0891     3.2498 </r>
       <r>    -1.1359     6.2620     3.5372 </r>
       <r>    -1.0900     6.4274     3.8323 </r>
       <r>    -1.0441     6.6239     4.1363 </r>
       <r>    -0.9982     6.8652     4.4515 </r>
       <r>    -0.9523     7.1231     4.7784 </r>
       <r>    -0.9064     7.3498     5.1158 </r>
       <r>    -0.8605     7.5176     5.4609 </r>
       <r>    -0.8146     7.6431     5.8117 </r>
       <r>    -0.7687     7.7758     6.1687 </r>
       <r>    -0.7228     7.9655     6.5343 </r>
       <r>    -0.6769     8.2287     6.9121 </r>
       <r>    -0.6310     8.5336     7.3038 </r>
       <r>    -0.5851     8.8113     7.7082 </r>
       <r>    -0.5392     8.9979     8.1213 </r>
       <r>    -0.4933     9.0852     8.5383 </r>
       <r>    -0.4473     9.1422     8.9580 </r>
       <r>    -0.4014     9.2763     9.3838 </r>
       <r>    -0.3555     9.5521     9.8223 </r>
       <r>    -0.3096     9.9346    10.2783 </r>
       <r>    -0.2637    10.3072    10.7514 </r>
       <r>    -0.2178    10.5580    11.2361 </r>
       <r>    -0.1719    10.6634    11.7256 </r>
       <r>    -0.1260    10.7021    12.2168 </r>
       <r>    -0.0801    10.7938    12.7123 </r>
       <r>    -0.0342    11.0139    13.2179 </r>
       <r>     0.0117    11.3523    13.7390 </r>
       <r>     0.0576    11.7378    14.2778 </r>
       <r>     0.1035    12.0943    14.8330 </r>
       <r>     0.1494    12.3807    15.4013 </r>
       <r>     0.1953    12.5919    15.9793 </r>
       <r>     0.2412    12.7423    16.5642 </r>
       <r>     0.2871    12.8634    17.1547 </r>
       <r>     0.3330    13.0137    17.7521 </r>
       <r>     0.3789    13.2698    18.3612 </r>
       <r>     0.4248    13.6780    18.9891 </r>
       <r>     0.4707    14.1977    19.6408 </r>
       <r>     0.5166    14.7001    20.3156 </r>
       <r>     0.5625    15.0461    21.0063 </r>
       <r>     0.6084    15.1933    21.7037 </r>
       <r>     0.6543    15.2454    22.4035 </r>
       <r>     0.7002    15.3940    23.1102 </r>
       <r>     0.7461    15.7857    23.8348 </r>
       <r>     0.7920    16.4098    24.5881 </r>
       <r>     0.8380    17.0979    25.3729 </r>
       <r>     0.8839    17.6452    26.1829 </r>
       <r>     0.9298    17.9666    27.0076 </r>
       <r>     0.9757    18.1618    27.8413 </r>
       <r>     1.0216    18.4368    28.6876 </r>
       <r>     1.0675    18.9416    29.5571 </r>
       <r>     1.1134    19.6579    30.4595 </r>
       <r>     1.1593    20.4266    31.3971 </r>
       <r>     1.2052    21.0898    32.3652 </r>
       <r>     1.2511    21.6260    33.3579 </r>
       <r>     1.2970    22.1631    34.3753 </r>
       <r>     1.3429    22.8565    35.4245 </r>
       <r>     1.3888    23.7454    36.5145 </r>
       <r>     1.4347    24.7191    37.6492 </r>
       <r>     1.4806    25.6277    38.8256 </r>
       <r>     1.5265    26.4282    40.0387 </r>
       <r>     1.5724    27.2328    41.2888 </r>
       <r>     1.6183    28.2333    42.5848 </r>
       <r>     1.6642    29.6267    43.9448 </r>
       <r>     1.7101    31.6686    45.3985 </r>
       <r>     1.7560    34.8129    46.9966 </r>
       <r>     1.8019    39.7232    48.8200 </r>
       <r>     1.8478    46.9886    50.9769 </r>
       <r>     1.8937    56.6540    53.5776 </r>
       <r>     1.9396    67.9205    56.6953 </r>
       <r>     1.9855    79.3134    60.3361 </r>
       <r>     2.0314    89.2684    64.4339 </r>
       <r>     2.0773    96.7601    68.8755 </r>
       <r>     2.1233   101.5853    73.5386 </r>
       <r>     2.1692   104.2051    78.3220 </r>
       <r>     2.2151   105.3558    83.1582 </r>
       <r>     2.2610   105.7182    88.0111 </r>
       <r>     2.3069   105.7837    92.8669 </r>
       <r>     2.3528   105.8727    97.7268 </r>
       <r>     2.3987   106.2085   102.6022 </r>
       <r>     2.4446   106.9911   107.5135 </r>
       <r>     2.4905   108.4517   112.4918 </r>
       <r>     2.5364   110.8566   117.5805 </r>
       <r>     2.5823   114.4294   122.8332 </r>
       <r>     2.6282   119.2166   128.3057 </r>
       <r>     2.6741   124.9929   134.0433 </r>
       <r>     2.7200   131.3009   140.0705 </r>
       <r>     2.7659   137.6309   146.3882 </r>
       <r>     2.8118   143.6257   152.9812 </r>
       <r>     2.8577   149.1669   159.8285 </r>
       <r>     2.9036   154.2833   166.9106 </r>
       <r>     2.9495   158.9602   174.2074 </r>
       <r>     2.9954   163.0039   181.6899 </r>
       <r>     3.0413   166.0648   189.3129 </r>
       <r>     3.0872   167.7919   197.0151 </r>
       <r>     3.1331   168.0028   204.7271 </r>
       <r>     3.1790   166.7632   212.3821 </r>
       <r>     3.2249   164.3516   219.9264 </r>
       <r>     3.2708   161.1608   227.3243 </r>
       <r>     3.3167   157.6097   234.5591 </r>
       <r>     3.3626   154.1083   241.6332 </r>
       <r>     3.4086   151.0600   248.5674 </r>
       <r>     3.4545   148.8330   255.3994 </r>
       <r>     3.5004   147.6427   262.1767 </r>
       <r>     3.5463   147.3863   268.9423 </r>
       <r>     3.5922   147.5809   275.7168 </r>
       <r>     3.6381   147.5278   282.4888 </r>
       <r>     3.6840   146.6372   289.2200 </r>
       <r>     3.7299   144.6772   295.8612 </r>
       <r>     3.7758   141.7682   302.3688 </r>
       <r>     3.8217   138.1955   308.7125 </r>
       <r>     3.8676   134.2633   314.8757 </r>
       <r>     3.9135   130.3109   320.8574 </r>
       <r>     3.9594   126.8050   326.6782 </r>
       <r>     4.0053   124.3445   332.3861 </r>
       <r>     4.0512   123.5310   338.0566 </r>
       <r>     4.0971   124.7857   343.7847 </r>
       <r>     4.1430   128.2170   349.6703 </r>
       <r>     4.1889   133.5710   355.8017 </r>
       <r>     4.2348   140.2572   362.2400 </r>
       <r>     4.2807   147.4612   369.0090 </r>
       <r>     4.3266   154.3714   376.0952 </r>
       <r>     4.3725   160.4669   383.4612 </r>
       <r>     4.4184   165.6931   391.0671 </r>
       <r>     4.4643   170.3356   398.8861 </r>
       <r>     4.5102   174.6234   406.9020 </r>
       <r>     4.5561   178.3841   415.0904 </r>
       <r>     4.6020   181.1119   423.4041 </r>
       <r>     4.6479   182.4672   431.7800 </r>
       <r>     4.6939   182.7944   440.1709 </r>
       <r>     4.7398   183.1844   448.5797 </r>
       <r>     4.7857   184.9890   457.0714 </r>
       <r>     4.8316   189.1385   465.7535 </r>
       <r>     4.8775   195.7031   474.7370 </r>
       <r>     4.9234   203.8758   484.0956 </r>
       <r>     4.9693   212.2803   493.8401 </r>
       <r>     5.0152   219.4389   503.9131 </r>
       <r>     5.0611   224.2836   514.2085 </r>
       <r>     5.1070   226.5907   524.6098 </r>
       <r>     5.1529   227.1730   535.0379 </r>
       <r>     5.1988   227.6938   545.4898 </r>
       <r>     5.2447   230.0930   556.0519 </r>
       <r>     5.2906   235.7525   566.8738 </r>
       <r>     5.3365   244.6507   578.1042 </r>
       <r>     5.3824   254.8906   589.8045 </r>
       <r>     5.4283   263.0278   601.8785 </r>
       <r>     5.4742   265.3332   614.0582 </r>
       <r>     5.5201   259.5054   625.9704 </r>
       <r>     5.5660   245.8533   637.2560 </r>
       <r>     5.6119   227.1613   647.6835 </r>
       <r>     5.6578   207.3161   657.2000 </r>
       <r>     5.7037   189.6079   665.9037 </r>
       <r>     5.7496   175.7137   673.9696 </r>
       <r>     5.7955   165.7246   681.5769 </r>
       <r>     5.8414   158.8415   688.8683 </r>
       <r>     5.8873   154.1100   695.9425 </r>
       <r>     5.9332   150.8305   702.8662 </r>
       <r>     5.9792   148.6643   709.6904 </r>
       <r>     6.0251   147.6190   716.4667 </r>
       <r>     6.0710   148.0075   723.2607 </r>
       <r>     6.1169   150.3321   730.1615 </r>
       <r>     6.1628   155.0337   737.2781 </r>
       <r>     6.2087   162.1715   744.7224 </r>
       <r>     6.2546   171.2238   752.5821 </r>
       <r>     6.3005   181.1811   760.8990 </r>
       <r>     6.3464   190.9079   769.6624 </r>
       <r>     6.3923   199.5245   778.8213 </r>
       <r>     6.4382   206.5305   788.3017 </r>
       <r>     6.4841   211.6188   798.0158 </r>
       <r>     6.5300   214.4323   807.8590 </r>
       <r>     6.5759   214.5722   817.7086 </r>
       <r>     6.6218   211.9093   827.4360 </r>
       <r>     6.6677   206.9032   836.9336 </r>
       <r>     6.7136   200.5790   846.1409 </r>
       <r>     6.7595   194.1151   855.0515 </r>
       <r>     6.8054   188.3623   863.6980 </r>
       <r>     6.8513   183.6559   872.1285 </r>
       <r>     6.8972   179.9725   880.3898 </r>
       <r>     6.9431   177.1885   888.5234 </r>
       <r>     6.9890   175.2023   896.5658 </r>
       <r>     7.0349   173.9222   904.5495 </r>
       <r>     7.0808   173.2649   912.5030 </r>
       <r>     7.1267   173.2139   920.4541 </r>
       <r>     7.1726   173.8512   928.4345 </r>
       <r>     7.2185   175.2969   936.4812 </r>
       <r>     7.2645   177.6175   944.6345 </r>
       <r>     7.3104   180.7953   952.9337 </r>
       <r>     7.3563   184.7461   961.4142 </r>
       <r>     7.4022   189.2835   970.1030 </r>
       <r>     7.4481   193.9508   979.0060 </r>
       <r>     7.4940   197.7453   988.0832 </r>
       <r>     7.5399   198.8726   997.2122 </r>
       <r>     7.5858   194.7885  1006.1537 </r>
       <r>     7.6317   182.8104  1014.5453 </r>
       <r>     7.6776   161.3239  1021.9507 </r>
       <r>     7.7235   131.0708  1027.9673 </r>
       <r>     7.7694    95.6265  1032.3569 </r>
       <r>     7.8153    60.4618  1035.1323 </r>
       <r>     7.8612    30.9149  1036.5514 </r>
       <r>     7.9071    10.2139  1037.0202 </r>
       <r>     7.9530    -1.3374  1036.9588 </r>
       <r>     7.9989    -5.7415  1036.6953 </r>
       <r>     8.0448    -5.8996  1036.4245 </r>
       <r>     8.0907    -4.3376  1036.2254 </r>
       <r>     8.1366    -2.6081  1036.1056 </r>
       <r>     8.1825    -1.3412  1036.0441 </r>
       <r>     8.2284    -0.6020  1036.0164 </r>
       <r>     8.2743    -0.2384  1036.0055 </r>
       <r>     8.3202    -0.0838  1036.0017 </r>
       <r>     8.3661    -0.0263  1036.0004 </r>
       <r>     8.4120    -0.0074  1036.0001 </r>
       <r>     8.4579    -0.0019  1036.0000 </r>
       <r>     8.5038    -0.0004  1036.0000 </r>
       <r>     8.5498    -0.0001  1036.0000 </r>
       <r>     8.5957    -0.0000  1036.0000 </r>
       <r>     8.6416    -0.0000  1036.0000 </r>
       <r>     8.6875    -0.0000  1036.0000 </r>
       <r>     8.7334    -0.0000  1036.0000 </r>
       <r>     8.7793    -0.0000  1036.0000 </r>
       <r>     8.8252    -0.0000  1036.0000 </r>
       <r>     8.8711    -0.0000  1036.0000 </r>
       <r>     8.9170    -0.0000  1036.0000 </r>
       <r>     8.9629    -0.0000  1036.0000 </r>
       <r>     9.0088    -0.0000  1036.0000 </r>
       <r>     9.0547    -0.0000  1036.0000 </r>
       <r>     9.1006     0.0000  1036.0000 </r>
       <r>     9.1465     0.0000  1036.0000 </r>
       <r>     9.1924     0.0000  1036.0000 </r>
       <r>     9.2383     0.0000  1036.0000 </r>
       <r>     9.2842     0.0000  1036.0000 </r>
       <r>     9.3301     0.0000  1036.0000 </r>
       <r>     9.3760     0.0000  1036.0000 </r>
       <r>     9.4219     0.0000  1036.0000 </r>
       <r>     9.4678     0.0000  1036.0000 </r>
       <r>     9.5137     0.0000  1036.0000 </r>
       <r>     9.5596     0.0000  1036.0000 </r>
       <r>     9.6055     0.0000  1036.0000 </r>
       <r>     9.6514     0.0000  1036.0000 </r>
       <r>     9.6973     0.0000  1036.0000 </r>
       <r>     9.7432     0.0000  1036.0000 </r>
       <r>     9.7891     0.0000  1036.0000 </r>
      </set>
     </set>
    </array>
   </total>
  </dos>
 </calculation>
 <structure name="finalpos" >
  <crystal>
   <varray name="basis" >
    <v>      10.33484705       0.00000000       0.00000000 </v>
    <v>       0.00000000      10.33484705       0.00000000 </v>
    <v>       0.00000000       0.00000000      10.33484705 </v>
   </varray>
   <i name="volume">   1103.85533447 </i>
   <varray name="rec_basis" >
    <v>       0.09676002       0.00000000       0.00000000 </v>
    <v>       0.00000000       0.09676002       0.00000000 </v>
    <v>       0.00000000       0.00000000       0.09676002 </v>
   </varray>
  </crystal>
  <varray name="positions" >
   <v>       0.00000000       0.00000000       0.00000000 </v>
   <v>       0.00000000       0.16666893       0.16666893 </v>
   <v>       0.16666893       0.00000000       0.16666893 </v>
   <v>       0.16666893       0.16666893       0.00000000 </v>
   <v>       0.33333106       0.00000000       0.00000000 </v>
   <v>       0.33333107       0.16666893       0.16666893 </v>
   <v>       0.50000000       0.00000000       0.16666894 </v>
   <v>       0.50000000       0.16666894       0.00000000 </v>
   <v>       0.66666897       0.00000000       0.00000000 </v>
   <v>       0.66666896       0.16666893       0.16666893 </v>
   <v>       0.83333104       0.00000000       0.16666893 </v>
   <v>       0.83333104       0.16666893       0.00000000 </v>
   <v>       0.00000000       0.33333106       0.00000000 </v>
   <v>       0.00000000       0.50000000       0.16666894 </v>
   <v>       0.16666893       0.33333107       0.16666893 </v>
   <v>       0.16666894       0.50000000       0.00000000 </v>
   <v>       0.33333107       0.33333107       0.00000000 </v>
   <v>       0.33333107       0.50000000       0.16666893 </v>
   <v>       0.50000000       0.33333107       0.16666893 </v>
   <v>       0.50000000       0.50000000       0.00000000 </v>
   <v>       0.66666896       0.33333107       0.00000000 </v>
   <v>       0.66666896       0.50000000       0.16666893 </v>
   <v>       0.83333104       0.33333107       0.16666893 </v>
   <v>       0.83333103       0.50000000       0.00000000 </v>
   <v>       0.00000000       0.66666897       0.00000000 </v>
   <v>       0.00000000       0.83333104       0.16666893 </v>
   <v>       0.16666893       0.66666896       0.16666893 </v>
   <v>       0.16666893       0.83333104       0.00000000 </v>
   <v>       0.33333107       0.66666896       0.00000000 </v>
   <v>       0.33333107       0.83333104       0.16666893 </v>
   <v>       0.50000000       0.66666896       0.16666893 </v>
   <v>       0.50000000       0.83333103       0.00000000 </v>
   <v>       0.66666896       0.66666896       0.00000000 </v>
   <v>       0.66666896       0.83333104       0.16666893 </v>
   <v>       0.83333104       0.66666896       0.16666893 </v>
   <v>       0.83333104       0.83333104       0.00000000 </v>
   <v>       0.00000000       0.00000000       0.33333106 </v>
   <v>       0.00000000       0.16666894       0.50000000 </v>
   <v>       0.16666894       0.00000000       0.50000000 </v>
   <v>       0.16666893       0.16666893       0.33333107 </v>
   <v>       0.33333107       0.00000000       0.33333107 </v>
   <v>       0.33333107       0.16666893       0.50000000 </v>
   <v>       0.50000000       0.00000000       0.50000000 </v>
   <v>       0.50000000       0.16666893       0.33333107 </v>
   <v>       0.66666896       0.00000000       0.33333107 </v>
   <v>       0.66666896       0.16666893       0.50000000 </v>
   <v>       0.83333103       0.00000000       0.50000000 </v>
   <v>       0.83333104       0.16666893       0.33333107 </v>
   <v>       0.00000000       0.33333107       0.33333107 </v>
   <v>       0.00000000       0.50000000       0.50000000 </v>
   <v>       0.16666893       0.33333107       0.50000000 </v>
   <v>       0.16666893       0.50000000       0.33333107 </v>
   <v>       0.33333107       0.33333107       0.33333107 </v>
   <v>       0.33333106       0.50000000       0.50000000 </v>
   <v>       0.50000000       0.33333106       0.50000000 </v>
   <v>       0.50000000       0.50000000       0.33333106 </v>
   <v>       0.66666896       0.33333107       0.33333107 </v>
   <v>       0.66666897       0.50000000       0.50000000 </v>
   <v>       0.83333104       0.33333107       0.50000000 </v>
   <v>       0.83333104       0.50000000       0.33333107 </v>
   <v>       0.00000000       0.66666896       0.33333107 </v>
   <v>       0.00000000       0.83333103       0.50000000 </v>
   <v>       0.16666893       0.66666896       0.50000000 </v>
   <v>       0.16666893       0.83333104       0.33333107 </v>
   <v>       0.33333107       0.66666896       0.33333107 </v>
   <v>       0.33333107       0.83333104       0.50000000 </v>
   <v>       0.50000000       0.66666897       0.50000000 </v>
   <v>       0.50000000       0.83333104       0.33333107 </v>
   <v>       0.66666896       0.66666896       0.33333107 </v>
   <v>       0.66666896       0.83333104       0.50000000 </v>
   <v>       0.83333104       0.66666896       0.50000000 </v>
   <v>       0.83333104       0.83333104       0.33333107 </v>
   <v>       0.00000000       0.00000000       0.66666897 </v>
   <v>       0.00000000       0.16666893       0.83333104 </v>
   <v>       0.16666893       0.00000000       0.83333104 </v>
   <v>       0.16666893       0.16666893       0.66666896 </v>
   <v>       0.33333107       0.00000000       0.66666896 </v>
   <v>       0.33333107       0.16666893       0.83333104 </v>
   <v>       0.50000000       0.00000000       0.83333103 </v>
   <v>       0.50000000       0.16666893       0.66666896 </v>
   <v>       0.66666896       0.00000000       0.66666896 </v>
   <v>       0.66666896       0.16666893       0.83333104 </v>
   <v>       0.83333104       0.00000000       0.83333104 </v>
   <v>       0.83333104       0.16666893       0.66666896 </v>
   <v>       0.00000000       0.33333107       0.66666896 </v>
   <v>       0.00000000       0.50000000       0.83333103 </v>
   <v>       0.16666893       0.33333107       0.83333104 </v>
   <v>       0.16666893       0.50000000       0.66666896 </v>
   <v>       0.33333107       0.33333107       0.66666896 </v>
   <v>       0.33333107       0.50000000       0.83333104 </v>
   <v>       0.50000000       0.33333107       0.83333104 </v>
   <v>       0.50000000       0.50000000       0.66666897 </v>
   <v>       0.66666896       0.33333107       0.66666896 </v>
   <v>       0.66666896       0.50000000       0.83333104 </v>
   <v>       0.83333104       0.33333107       0.83333104 </v>
   <v>       0.83333104       0.50000000       0.66666896 </v>
   <v>       0.00000000       0.66666896       0.66666896 </v>
   <v>       0.00000000       0.83333104       0.83333104 </v>
   <v>       0.16666893       0.66666896       0.83333104 </v>
   <v>       0.16666893       0.83333104       0.66666896 </v>
   <v>       0.33333107       0.66666896       0.66666896 </v>
   <v>       0.33333107       0.83333104       0.83333104 </v>
   <v>       0.50000000       0.66666896       0.83333104 </v>
   <v>       0.50000000       0.83333104       0.66666896 </v>
   <v>       0.66666896       0.66666896       0.66666896 </v>
   <v>       0.66666896       0.83333104       0.83333104 </v>
   <v>       0.83333104       0.66666896       0.83333104 </v>
   <v>       0.83333104       0.83333104       0.66666896 </v>
  </varray>
 </structure>
</modeling>
