 107 107   0   0
  0.1031640E+02  0.1033485E-08  0.1033485E-08  0.1033485E-08  0.5000000E-15
  1.000000000000000E-004
  CAR 
 Opt                                     
      9.59638509     -3.98858860  301      6.70145575      1.00000000
     -3.989  0.0000E+00  0.0000E+00
     -3.943  0.0000E+00  0.0000E+00
     -3.898  0.0000E+00  0.0000E+00
     -3.853  0.0000E+00  0.0000E+00
     -3.807  0.0000E+00  0.0000E+00
     -3.762  0.0000E+00  0.0000E+00
     -3.717  0.0000E+00  0.0000E+00
     -3.672  0.0000E+00  0.0000E+00
     -3.626 -0.9645E-30 -0.4367E-31
     -3.581 -0.3536E-28 -0.1645E-29
     -3.536 -0.1198E-26 -0.5588E-28
     -3.490 -0.3657E-25 -0.1712E-26
     -3.445 -0.1006E-23 -0.4729E-25
     -3.400 -0.2496E-22 -0.1178E-23
     -3.355 -0.5580E-21 -0.2645E-22
     -3.309 -0.1124E-19 -0.5354E-21
     -3.264 -0.2040E-18 -0.9773E-20
     -3.219 -0.3335E-17 -0.1608E-18
     -3.173 -0.4910E-16 -0.2384E-17
     -3.128 -0.6295E-15 -0.3089E-16
     -3.083 -0.7513E-14 -0.3711E-15
     -3.038 -0.8047E-13 -0.4015E-14
     -2.992 -0.7752E-12 -0.3912E-13
     -2.947 -0.6713E-11 -0.3431E-12
     -2.902 -0.5224E-10 -0.2709E-11
     -2.857 -0.3650E-09 -0.1924E-10
     -2.811 -0.2289E-08 -0.1229E-09
     -2.766 -0.1287E-07 -0.7057E-09
     -2.721 -0.6481E-07 -0.3640E-08
     -2.675 -0.2919E-06 -0.1686E-07
     -2.630 -0.1174E-05 -0.7004E-07
     -2.585 -0.4211E-05 -0.2607E-06
     -2.540 -0.1342E-04 -0.8682E-06
     -2.494 -0.3785E-04 -0.2582E-05
     -2.449 -0.9404E-04 -0.6840E-05
     -2.404 -0.2042E-03 -0.1609E-04
     -2.358 -0.3825E-03 -0.3341E-04
     -2.313 -0.6039E-03 -0.6075E-04
     -2.268 -0.7629E-03 -0.9530E-04
     -2.223 -0.6538E-03 -0.1249E-03
     -2.177 -0.9039E-05 -0.1253E-03
     -2.132  0.1402E-02 -0.6181E-04
     -2.087  0.3688E-02  0.1052E-03
     -2.041  0.6843E-02  0.4150E-03
     -1.996  0.1086E-01  0.9067E-03
     -1.951  0.1575E-01  0.1620E-02
     -1.906  0.2142E-01  0.2590E-02
     -1.860  0.2738E-01  0.3830E-02
     -1.815  0.3276E-01  0.5314E-02
     -1.770  0.3670E-01  0.6976E-02
     -1.724  0.3886E-01  0.8735E-02
     -1.679  0.3959E-01  0.1053E-01
     -1.634  0.3971E-01  0.1233E-01
     -1.589  0.4008E-01  0.1414E-01
     -1.543  0.4137E-01  0.1602E-01
     -1.498  0.4401E-01  0.1801E-01
     -1.453  0.4813E-01  0.2019E-01
     -1.407  0.5355E-01  0.2261E-01
     -1.362  0.5977E-01  0.2532E-01
     -1.317  0.6593E-01  0.2830E-01
     -1.272  0.7076E-01  0.3151E-01
     -1.226  0.7272E-01  0.3480E-01
     -1.181  0.7073E-01  0.3800E-01
     -1.136  0.6506E-01  0.4095E-01
     -1.090  0.5773E-01  0.4356E-01
     -1.045  0.5188E-01  0.4591E-01
     -1.000  0.5042E-01  0.4820E-01
     -0.955  0.5480E-01  0.5068E-01
     -0.909  0.6459E-01  0.5360E-01
     -0.864  0.7786E-01  0.5713E-01
     -0.819  0.9193E-01  0.6129E-01
     -0.773  0.1039E+00  0.6600E-01
     -0.728  0.1110E+00  0.7102E-01
     -0.683  0.1112E+00  0.7606E-01
     -0.638  0.1040E+00  0.8077E-01
     -0.592  0.9134E-01  0.8491E-01
     -0.547  0.7739E-01  0.8841E-01
     -0.502  0.6720E-01  0.9146E-01
     -0.456  0.6458E-01  0.9438E-01
     -0.411  0.7064E-01  0.9758E-01
     -0.366  0.8352E-01  0.1014E+00
     -0.321  0.9936E-01  0.1059E+00
     -0.275  0.1138E+00  0.1110E+00
     -0.230  0.1233E+00  0.1166E+00
     -0.185  0.1265E+00  0.1223E+00
     -0.140  0.1239E+00  0.1279E+00
     -0.094  0.1184E+00  0.1333E+00
     -0.049  0.1134E+00  0.1384E+00
     -0.004  0.1118E+00  0.1435E+00
      0.042  0.1145E+00  0.1487E+00
      0.087  0.1206E+00  0.1541E+00
      0.132  0.1278E+00  0.1599E+00
      0.177  0.1341E+00  0.1660E+00
      0.223  0.1384E+00  0.1723E+00
      0.268  0.1403E+00  0.1786E+00
      0.313  0.1399E+00  0.1849E+00
      0.359  0.1373E+00  0.1912E+00
      0.404  0.1327E+00  0.1972E+00
      0.449  0.1272E+00  0.2029E+00
      0.494  0.1225E+00  0.2085E+00
      0.540  0.1219E+00  0.2140E+00
      0.585  0.1282E+00  0.2198E+00
      0.630  0.1430E+00  0.2263E+00
      0.676  0.1643E+00  0.2337E+00
      0.721  0.1869E+00  0.2422E+00
      0.766  0.2043E+00  0.2514E+00
      0.811  0.2119E+00  0.2610E+00
      0.857  0.2100E+00  0.2705E+00
      0.902  0.2029E+00  0.2797E+00
      0.947  0.1955E+00  0.2886E+00
      0.993  0.1901E+00  0.2972E+00
      1.038  0.1848E+00  0.3055E+00
      1.083  0.1772E+00  0.3136E+00
      1.128  0.1686E+00  0.3212E+00
      1.174  0.1646E+00  0.3287E+00
      1.219  0.1732E+00  0.3365E+00
      1.264  0.1985E+00  0.3455E+00
      1.310  0.2378E+00  0.3563E+00
      1.355  0.2810E+00  0.3690E+00
      1.400  0.3153E+00  0.3833E+00
      1.445  0.3306E+00  0.3982E+00
      1.491  0.3241E+00  0.4129E+00
      1.536  0.3018E+00  0.4266E+00
      1.581  0.2775E+00  0.4391E+00
      1.627  0.2676E+00  0.4513E+00
      1.672  0.2865E+00  0.4642E+00
      1.717  0.3411E+00  0.4797E+00
      1.762  0.4294E+00  0.4991E+00
      1.808  0.5413E+00  0.5236E+00
      1.853  0.6630E+00  0.5537E+00
      1.898  0.7814E+00  0.5890E+00
      1.944  0.8863E+00  0.6292E+00
      1.989  0.9696E+00  0.6731E+00
      2.034  0.1025E+01  0.7195E+00
      2.079  0.1050E+01  0.7671E+00
      2.125  0.1048E+01  0.8145E+00
      2.170  0.1030E+01  0.8612E+00
      2.215  0.1012E+01  0.9070E+00
      2.260  0.1007E+01  0.9526E+00
      2.306  0.1023E+01  0.9989E+00
      2.351  0.1053E+01  0.1047E+01
      2.396  0.1088E+01  0.1096E+01
      2.442  0.1119E+01  0.1147E+01
      2.487  0.1145E+01  0.1198E+01
      2.532  0.1174E+01  0.1252E+01
      2.577  0.1218E+01  0.1307E+01
      2.623  0.1277E+01  0.1365E+01
      2.668  0.1344E+01  0.1425E+01
      2.713  0.1406E+01  0.1489E+01
      2.759  0.1454E+01  0.1555E+01
      2.804  0.1492E+01  0.1623E+01
      2.849  0.1529E+01  0.1692E+01
      2.894  0.1570E+01  0.1763E+01
      2.940  0.1613E+01  0.1836E+01
      2.985  0.1650E+01  0.1911E+01
      3.030  0.1671E+01  0.1986E+01
      3.076  0.1670E+01  0.2062E+01
      3.121  0.1650E+01  0.2137E+01
      3.166  0.1618E+01  0.2210E+01
      3.211  0.1579E+01  0.2281E+01
      3.257  0.1542E+01  0.2351E+01
      3.302  0.1512E+01  0.2420E+01
      3.347  0.1495E+01  0.2487E+01
      3.393  0.1492E+01  0.2555E+01
      3.438  0.1499E+01  0.2623E+01
      3.483  0.1507E+01  0.2691E+01
      3.528  0.1505E+01  0.2759E+01
      3.574  0.1487E+01  0.2827E+01
      3.619  0.1453E+01  0.2892E+01
      3.664  0.1412E+01  0.2956E+01
      3.710  0.1375E+01  0.3019E+01
      3.755  0.1353E+01  0.3080E+01
      3.800  0.1345E+01  0.3141E+01
      3.845  0.1344E+01  0.3202E+01
      3.891  0.1337E+01  0.3262E+01
      3.936  0.1316E+01  0.3322E+01
      3.981  0.1284E+01  0.3380E+01
      4.027  0.1259E+01  0.3437E+01
      4.072  0.1259E+01  0.3494E+01
      4.117  0.1296E+01  0.3553E+01
      4.162  0.1362E+01  0.3614E+01
      4.208  0.1445E+01  0.3680E+01
      4.253  0.1533E+01  0.3749E+01
      4.298  0.1620E+01  0.3823E+01
      4.344  0.1705E+01  0.3900E+01
      4.389  0.1780E+01  0.3980E+01
      4.434  0.1832E+01  0.4063E+01
      4.479  0.1848E+01  0.4147E+01
      4.525  0.1826E+01  0.4230E+01
      4.570  0.1778E+01  0.4310E+01
      4.615  0.1733E+01  0.4389E+01
      4.661  0.1719E+01  0.4467E+01
      4.706  0.1754E+01  0.4546E+01
      4.751  0.1843E+01  0.4629E+01
      4.796  0.1966E+01  0.4718E+01
      4.842  0.2096E+01  0.4813E+01
      4.887  0.2203E+01  0.4913E+01
      4.932  0.2268E+01  0.5016E+01
      4.977  0.2288E+01  0.5119E+01
      5.023  0.2277E+01  0.5223E+01
      5.068  0.2255E+01  0.5325E+01
      5.113  0.2242E+01  0.5426E+01
      5.159  0.2255E+01  0.5528E+01
      5.204  0.2301E+01  0.5632E+01
      5.249  0.2376E+01  0.5740E+01
      5.294  0.2469E+01  0.5852E+01
      5.340  0.2552E+01  0.5967E+01
      5.385  0.2593E+01  0.6085E+01
      5.430  0.2563E+01  0.6201E+01
      5.476  0.2454E+01  0.6312E+01
      5.521  0.2284E+01  0.6416E+01
      5.566  0.2093E+01  0.6510E+01
      5.611  0.1918E+01  0.6597E+01
      5.657  0.1784E+01  0.6678E+01
      5.702  0.1688E+01  0.6754E+01
      5.747  0.1616E+01  0.6828E+01
      5.793  0.1551E+01  0.6898E+01
      5.838  0.1487E+01  0.6965E+01
      5.883  0.1436E+01  0.7030E+01
      5.928  0.1415E+01  0.7094E+01
      5.974  0.1436E+01  0.7159E+01
      6.019  0.1499E+01  0.7227E+01
      6.064  0.1591E+01  0.7299E+01
      6.110  0.1691E+01  0.7376E+01
      6.155  0.1779E+01  0.7456E+01
      6.200  0.1850E+01  0.7540E+01
      6.245  0.1908E+01  0.7627E+01
      6.291  0.1962E+01  0.7715E+01
      6.336  0.2017E+01  0.7807E+01
      6.381  0.2066E+01  0.7900E+01
      6.427  0.2098E+01  0.7995E+01
      6.472  0.2105E+01  0.8091E+01
      6.517  0.2092E+01  0.8185E+01
      6.562  0.2073E+01  0.8279E+01
      6.608  0.2054E+01  0.8372E+01
      6.653  0.2029E+01  0.8464E+01
      6.698  0.1982E+01  0.8554E+01
      6.744  0.1906E+01  0.8640E+01
      6.789  0.1808E+01  0.8722E+01
      6.834  0.1718E+01  0.8800E+01
      6.879  0.1665E+01  0.8875E+01
      6.925  0.1663E+01  0.8950E+01
      6.970  0.1703E+01  0.9028E+01
      7.015  0.1758E+01  0.9107E+01
      7.061  0.1804E+01  0.9189E+01
      7.106  0.1833E+01  0.9272E+01
      7.151  0.1851E+01  0.9356E+01
      7.196  0.1873E+01  0.9440E+01
      7.242  0.1913E+01  0.9527E+01
      7.287  0.1976E+01  0.9617E+01
      7.332  0.2057E+01  0.9710E+01
      7.378  0.2137E+01  0.9806E+01
      7.423  0.2178E+01  0.9905E+01
      7.468  0.2135E+01  0.1000E+02
      7.513  0.1970E+01  0.1009E+02
      7.559  0.1673E+01  0.1017E+02
      7.604  0.1277E+01  0.1022E+02
      7.649  0.8496E+00  0.1026E+02
      7.694  0.4654E+00  0.1028E+02
      7.740  0.1792E+00  0.1029E+02
      7.785  0.7702E-02  0.1029E+02
      7.830 -0.6633E-01  0.1029E+02
      7.876 -0.7775E-01  0.1029E+02
      7.921 -0.6064E-01  0.1028E+02
      7.966 -0.3794E-01  0.1028E+02
      8.011 -0.2013E-01  0.1028E+02
      8.057 -0.9281E-02  0.1028E+02
      8.102 -0.3764E-02  0.1028E+02
      8.147 -0.1353E-02  0.1028E+02
      8.193 -0.4330E-03  0.1028E+02
      8.238 -0.1237E-03  0.1028E+02
      8.283 -0.3165E-04  0.1028E+02
      8.328 -0.7256E-05  0.1028E+02
      8.374 -0.1493E-05  0.1028E+02
      8.419 -0.2759E-06  0.1028E+02
      8.464 -0.4585E-07  0.1028E+02
      8.510 -0.6851E-08  0.1028E+02
      8.555 -0.9213E-09  0.1028E+02
      8.600 -0.1115E-09  0.1028E+02
      8.645 -0.1216E-10  0.1028E+02
      8.691 -0.1194E-11  0.1028E+02
      8.736 -0.1057E-12  0.1028E+02
      8.781 -0.8440E-14  0.1028E+02
      8.827 -0.6129E-15  0.1028E+02
      8.872  0.0000E+00  0.1028E+02
      8.917  0.0000E+00  0.1028E+02
      8.962  0.0000E+00  0.1028E+02
      9.008  0.0000E+00  0.1028E+02
      9.053  0.0000E+00  0.1028E+02
      9.098  0.0000E+00  0.1028E+02
      9.144  0.0000E+00  0.1028E+02
      9.189  0.0000E+00  0.1028E+02
      9.234  0.0000E+00  0.1028E+02
      9.279  0.0000E+00  0.1028E+02
      9.325  0.0000E+00  0.1028E+02
      9.370  0.0000E+00  0.1028E+02
      9.415  0.0000E+00  0.1028E+02
      9.461  0.0000E+00  0.1028E+02
      9.506  0.0000E+00  0.1028E+02
      9.551  0.0000E+00  0.1028E+02
      9.596  0.0000E+00  0.1028E+02
