Opt                                     
           1
    10.334847    0.000000    0.000000
     0.000000   10.334847    0.000000
     0.000000    0.000000   10.334847
   Fe
 107
Direct configuration=     1
   0.00000000  0.00000000  0.00000000
   0.00000000  0.16666893  0.16666893
   0.00000000  0.33333106  0.00000000
   0.00000000  0.50000000  0.16666894
   0.00000000  0.66666897  0.00000000
   0.00000000  0.83333104  0.16666893
   0.00000000  0.00000000  0.33333106
   0.00000000  0.16666894  0.50000000
   0.00000000  0.33333107  0.33333107
   0.00000000  0.50000000  0.50000000
   0.00000000  0.66666896  0.33333107
   0.00000000  0.83333103  0.50000000
   0.00000000  0.00000000  0.66666897
   0.00000000  0.16666893  0.83333104
   0.00000000  0.33333107  0.66666896
   0.00000000  0.50000000  0.83333103
   0.00000000  0.66666896  0.66666896
   0.00000000  0.83333104  0.83333104
   0.16666893  0.00000000  0.16666893
   0.16666893  0.16666893  0.00000000
   0.16666893  0.83333104  0.00000000
   0.16666893  0.33333107  0.50000000
   0.16666893  0.50000000  0.33333107
   0.16666893  0.66666896  0.50000000
   0.16666893  0.00000000  0.83333104
   0.16666893  0.50000000  0.66666896
   0.16666893  0.33333107  0.16666893
   0.16666893  0.66666896  0.16666893
   0.16666893  0.16666893  0.33333107
   0.16666893  0.83333104  0.33333107
   0.16666893  0.16666893  0.66666896
   0.16666893  0.33333107  0.83333104
   0.16666893  0.66666896  0.83333104
   0.16666893  0.83333104  0.66666896
   0.16666894  0.50000000  0.00000000
   0.16666894  0.00000000  0.50000000
   0.33333106  0.00000000  0.00000000
   0.33333107  0.16666893  0.16666893
   0.33333107  0.83333104  0.16666893
   0.33333107  0.33333107  0.33333107
   0.33333107  0.66666896  0.33333107
   0.33333107  0.16666893  0.83333104
   0.33333107  0.33333107  0.66666896
   0.33333107  0.66666896  0.66666896
   0.33333107  0.83333104  0.83333104
   0.33333107  0.33333107  0.00000000
   0.33333107  0.50000000  0.16666893
   0.33333107  0.66666896  0.00000000
   0.33333107  0.00000000  0.33333107
   0.33333107  0.16666893  0.50000000
   0.33333107  0.83333104  0.50000000
   0.33333107  0.00000000  0.66666896
   0.33333107  0.50000000  0.83333104
   0.50000000  0.00000000  0.16666894
   0.50000000  0.16666894  0.00000000
   0.50000000  0.33333107  0.16666893
   0.50000000  0.50000000  0.00000000
   0.50000000  0.66666896  0.16666893
   0.50000000  0.83333103  0.00000000
   0.50000000  0.00000000  0.50000000
   0.50000000  0.16666893  0.33333107
   0.50000000  0.33333106  0.50000000
   0.50000000  0.50000000  0.33333106
   0.50000000  0.66666897  0.50000000
   0.50000000  0.83333104  0.33333107
   0.50000000  0.00000000  0.83333103
   0.50000000  0.16666893  0.66666896
   0.50000000  0.33333107  0.83333104
   0.50000000  0.66666896  0.83333104
   0.50000000  0.83333104  0.66666896
   0.66666896  0.33333107  0.00000000
   0.66666896  0.50000000  0.16666893
   0.66666896  0.66666896  0.00000000
   0.66666896  0.00000000  0.33333107
   0.66666896  0.16666893  0.50000000
   0.66666896  0.83333104  0.50000000
   0.66666896  0.00000000  0.66666896
   0.66666896  0.50000000  0.83333104
   0.66666896  0.16666893  0.16666893
   0.66666896  0.83333104  0.16666893
   0.66666896  0.33333107  0.33333107
   0.66666896  0.66666896  0.33333107
   0.66666896  0.16666893  0.83333104
   0.66666896  0.33333107  0.66666896
   0.66666896  0.66666896  0.66666896
   0.66666896  0.83333104  0.83333104
   0.66666897  0.00000000  0.00000000
   0.66666897  0.50000000  0.50000000
   0.83333103  0.50000000  0.00000000
   0.83333103  0.00000000  0.50000000
   0.83333104  0.33333107  0.16666893
   0.83333104  0.66666896  0.16666893
   0.83333104  0.16666893  0.33333107
   0.83333104  0.83333104  0.33333107
   0.83333104  0.16666893  0.66666896
   0.83333104  0.33333107  0.83333104
   0.83333104  0.66666896  0.83333104
   0.83333104  0.83333104  0.66666896
   0.83333104  0.00000000  0.16666893
   0.83333104  0.16666893  0.00000000
   0.83333104  0.83333104  0.00000000
   0.83333104  0.33333107  0.50000000
   0.83333104  0.50000000  0.33333107
   0.83333104  0.66666896  0.50000000
   0.83333104  0.00000000  0.83333104
   0.83333104  0.50000000  0.66666896
   0.50000000  0.50000000  0.66666667
Direct configuration=     2
  -0.00026565 -0.00000002 -0.00000001
  -0.00013118  0.16653583  0.16653583
   0.00006059  0.33336094 -0.00000002
   0.00091955  0.50000002  0.16758640
   0.00006060  0.66663910 -0.00000002
  -0.00013118  0.83346413  0.16653582
   0.00006058 -0.00000002  0.33336091
   0.00091958  0.16758640  0.50000001
   0.00004972  0.33328229  0.33328228
   0.00091146  0.50000001  0.50000003
   0.00004971  0.66671774  0.33328227
   0.00091954  0.83241357  0.50000001
   0.00006059 -0.00000001  0.66663913
  -0.00013117  0.16653585  0.83346413
   0.00004973  0.33328231  0.66671776
   0.00091955  0.50000001  0.83241354
   0.00004970  0.66671772  0.66671776
  -0.00013118  0.83346412  0.83346414
   0.16669497 -0.00000002  0.16672762
   0.16669495  0.16672762 -0.00000001
   0.16669497  0.83327234  0.00000000
   0.16686751  0.33353350  0.50000004
   0.16686749  0.50000001  0.33353351
   0.16686749  0.66646651  0.50000003
   0.16669496 -0.00000001  0.83327235
   0.16686751  0.50000000  0.66646656
   0.16661638  0.33328231  0.16671669
   0.16661638  0.66671774  0.16671668
   0.16661639  0.16671670  0.33328231
   0.16661638  0.83328326  0.33328228
   0.16661640  0.16671674  0.66671773
   0.16661639  0.33328234  0.83328325
   0.16661639  0.66671769  0.83328327
   0.16661638  0.83328325  0.66671773
   0.16674399  0.50000003 -0.00000008
   0.16674394  0.00000000  0.50000000
   0.33333297 -0.00000003  0.00000000
   0.33333293  0.16758640  0.16758640
   0.33333292  0.83241356  0.16758637
   0.33333284  0.33353261  0.33353262
   0.33333285  0.66646742  0.33353258
   0.33333292  0.16758641  0.83241356
   0.33333286  0.33353266  0.66646740
   0.33333287  0.66646736  0.66646743
   0.33333293  0.83241355  0.83241359
   0.33333292  0.33340995 -0.00000005
   0.33333292  0.50000003  0.16757850
   0.33333292  0.66659010 -0.00000004
   0.33333291 -0.00000001  0.33340988
   0.33333290  0.16757852  0.50000003
   0.33333292  0.83242147  0.50000002
   0.33333291  0.00000000  0.66659012
   0.33333300  0.50000002  0.83242141
   0.49997206 -0.00000003  0.16672759
   0.49997208  0.16672761 -0.00000006
   0.50005062  0.33328230  0.16671677
   0.49992321  0.50000003 -0.00000009
   0.50005061  0.66671775  0.16671677
   0.49997207  0.83327234 -0.00000006
   0.49992320 -0.00000002  0.49999999
   0.50005061  0.16671673  0.33328224
   0.49979987  0.33353312  0.50000002
   0.49979991  0.50000002  0.33353316
   0.49979992  0.66646692  0.50000001
   0.50005062  0.83328324  0.33328223
   0.49997209 -0.00000002  0.83327241
   0.50005060  0.16671681  0.66671774
   0.50005062  0.33328241  0.83328314
   0.50005062  0.66671763  0.83328315
   0.50005063  0.83328316  0.66671775
   0.66660653  0.33336093 -0.00000006
   0.66574763  0.50000002  0.16758635
   0.66660652  0.66663910 -0.00000006
   0.66660655 -0.00000003  0.33336089
   0.66574764  0.16758633  0.50000000
   0.66574766  0.83241362  0.50000001
   0.66660654 -0.00000003  0.66663914
   0.66574755  0.50000003  0.83241353
   0.66679823  0.16653585  0.16653584
   0.66679823  0.83346411  0.16653585
   0.66661751  0.33328223  0.33328219
   0.66661751  0.66671781  0.33328221
   0.66679822  0.16653588  0.83346413
   0.66661754  0.33328225  0.66671784
   0.66661755  0.66671780  0.66671784
   0.66679822  0.83346409  0.83346412
   0.66693266 -0.00000002 -0.00000002
   0.66575593  0.50000003  0.49999999
   0.83333286  0.50000001 -0.00000008
   0.83333291 -0.00000003  0.50000000
   0.83333294  0.33336093  0.16672753
   0.83333295  0.66663911  0.16672755
   0.83333294  0.16672754  0.33336090
   0.83333293  0.83327242  0.33336091
   0.83333294  0.16672757  0.66663915
   0.83333293  0.33336093  0.83327241
   0.83333292  0.66663910  0.83327240
   0.83333293  0.83327238  0.66663912
   0.83333297 -0.00000003  0.16640137
   0.83333297  0.16640138 -0.00000001
   0.83333297  0.83359859 -0.00000000
   0.83333292  0.33340988  0.50000003
   0.83333295  0.50000003  0.33340979
   0.83333290  0.66659017  0.50000003
   0.83333296 -0.00000002  0.83359860
   0.83333290  0.50000002  0.66659020
   0.49979967  0.50000002  0.66646549
Direct configuration=     3
  -0.00055241 -0.00000004 -0.00000001
  -0.00027280  0.16639214  0.16639214
   0.00012599  0.33339319 -0.00000005
   0.00191220  0.50000004  0.16857681
   0.00012601  0.66660685 -0.00000004
  -0.00027278  0.83360781  0.16639213
   0.00012598 -0.00000003  0.33339313
   0.00191226  0.16857681  0.50000002
   0.00010340  0.33322963  0.33322962
   0.00189537  0.50000003  0.50000006
   0.00010337  0.66677040  0.33322960
   0.00191218  0.83142316  0.50000002
   0.00012600 -0.00000003  0.66660692
  -0.00027277  0.16639219  0.83360781
   0.00010341  0.33322968  0.66677043
   0.00191220  0.50000003  0.83142311
   0.00010334  0.66677036  0.66677043
  -0.00027278  0.83360777  0.83360783
   0.16672309 -0.00000004  0.16679096
   0.16672305  0.16679096 -0.00000003
   0.16672308  0.83320897  0.00000000
   0.16708187  0.33375203  0.50000007
   0.16708184  0.50000002  0.33375204
   0.16708183  0.66624797  0.50000005
   0.16672305 -0.00000002  0.83320900
   0.16708188  0.49999999  0.66624806
   0.16655965  0.33322967  0.16676825
   0.16655966  0.66677039  0.16676822
   0.16655968  0.16676827  0.33322968
   0.16655965  0.83323169  0.33322962
   0.16655968  0.16676834  0.66677037
   0.16655967  0.33322974  0.83323165
   0.16655968  0.66677028  0.83323171
   0.16655965  0.83323165  0.66677037
   0.16682501  0.50000005 -0.00000017
   0.16682490  0.00000001  0.50000000
   0.33333503 -0.00000006  0.00000000
   0.33333493  0.16857681  0.16857681
   0.33333493  0.83142313  0.16857675
   0.33333475  0.33375018  0.33375020
   0.33333478  0.66624985  0.33375011
   0.33333491  0.16857683  0.83142314
   0.33333480  0.33375027  0.66624981
   0.33333482  0.66624974  0.66624987
   0.33333494  0.83142312  0.83142321
   0.33333492  0.33349511 -0.00000010
   0.33333493  0.50000005  0.16856038
   0.33333492  0.66650497 -0.00000008
   0.33333489 -0.00000002  0.33349497
   0.33333489  0.16856042  0.50000006
   0.33333491  0.83143958  0.50000003
   0.33333489  0.00000000  0.66650501
   0.33333508  0.50000004  0.83143947
   0.49994191 -0.00000005  0.16679091
   0.49994195  0.16679095 -0.00000013
   0.50010525  0.33322965  0.16676842
   0.49984032  0.50000006 -0.00000018
   0.50010524  0.66677041  0.16676842
   0.49994191  0.83320898 -0.00000012
   0.49984030 -0.00000004  0.49999999
   0.50010523  0.16676832  0.33322954
   0.49958383  0.33375124  0.50000003
   0.49958391  0.50000003  0.33375133
   0.49958393  0.66624880  0.50000001
   0.50010526  0.83323164  0.33322950
   0.49994195 -0.00000004  0.83320912
   0.50010522  0.16676850  0.66677040
   0.50010527  0.33322987  0.83323144
   0.50010527  0.66677016  0.83323146
   0.50010529  0.83323148  0.66677042
   0.66653913  0.33339318 -0.00000012
   0.66475305  0.50000004  0.16857671
   0.66653911  0.66660686 -0.00000012
   0.66653918 -0.00000006  0.33339309
   0.66475308  0.16857666  0.50000001
   0.66475312  0.83142326  0.50000002
   0.66653916 -0.00000006  0.66660696
   0.66475288  0.50000006  0.83142308
   0.66693778  0.16639218  0.16639217
   0.66693777  0.83360777  0.16639218
   0.66656197  0.33322952  0.33322944
   0.66656197  0.66677055  0.33322946
   0.66693776  0.16639224  0.83360781
   0.66656203  0.33322954  0.66677060
   0.66656206  0.66677051  0.66677060
   0.66693775  0.83360772  0.83360777
   0.66721732 -0.00000003 -0.00000005
   0.66477031  0.50000006  0.49999997
   0.83333482  0.50000002 -0.00000016
   0.83333494 -0.00000007  0.50000000
   0.83333500  0.33339317  0.16679079
   0.83333501  0.66660689  0.16679082
   0.83333500  0.16679081  0.33339311
   0.83333498  0.83320914  0.33339313
   0.83333500  0.16679087  0.66660696
   0.83333498  0.33339317  0.83320911
   0.83333495  0.66660686  0.83320910
   0.83333496  0.83320907  0.66660691
   0.83333506 -0.00000005  0.16611254
   0.83333506  0.16611256 -0.00000002
   0.83333506  0.83388742 -0.00000001
   0.83333494  0.33349496  0.50000006
   0.83333501  0.50000005  0.33349477
   0.83333492  0.66650512  0.50000006
   0.83333504 -0.00000003  0.83388743
   0.83333490  0.50000004  0.66650518
   0.49958342  0.50000003  0.66624832
Direct configuration=     4
  -0.00053843 -0.00000004 -0.00000001
  -0.00026589  0.16639915  0.16639914
   0.00012280  0.33339162 -0.00000005
   0.00186379  0.50000004  0.16852851
   0.00012282  0.66660843 -0.00000004
  -0.00026588  0.83360080  0.16639914
   0.00012279 -0.00000003  0.33339155
   0.00186385  0.16852851  0.50000002
   0.00010078  0.33323220  0.33323218
   0.00184739  0.50000003  0.50000006
   0.00010075  0.66676783  0.33323217
   0.00186378  0.83147146  0.50000002
   0.00012281 -0.00000003  0.66660849
  -0.00026587  0.16639919  0.83360080
   0.00010079  0.33323224  0.66676786
   0.00186379  0.50000003  0.83147141
   0.00010073  0.66676779  0.66676786
  -0.00026587  0.83360077  0.83360083
   0.16672172 -0.00000004  0.16678787
   0.16672168  0.16678787 -0.00000003
   0.16672171  0.83321206  0.00000000
   0.16707142  0.33374137  0.50000007
   0.16707139  0.50000002  0.33374139
   0.16707138  0.66625863  0.50000005
   0.16672168 -0.00000002  0.83321209
   0.16707142  0.49999999  0.66625871
   0.16656242  0.33323224  0.16676574
   0.16656242  0.66676782  0.16676571
   0.16656244  0.16676576  0.33323225
   0.16656242  0.83323421  0.33323219
   0.16656245  0.16676582  0.66676780
   0.16656243  0.33323230  0.83323417
   0.16656244  0.66676772  0.83323423
   0.16656242  0.83323417  0.66676780
   0.16682106  0.50000005 -0.00000017
   0.16682095  0.00000001  0.50000000
   0.33333493 -0.00000006  0.00000000
   0.33333483  0.16852851  0.16852851
   0.33333483  0.83147143  0.16852846
   0.33333465  0.33373957  0.33373959
   0.33333468  0.66626046  0.33373951
   0.33333481  0.16852853  0.83147144
   0.33333470  0.33373966  0.66626042
   0.33333473  0.66626035  0.66626048
   0.33333484  0.83147142  0.83147151
   0.33333482  0.33349096 -0.00000009
   0.33333483  0.50000005  0.16851249
   0.33333482  0.66650912 -0.00000007
   0.33333479 -0.00000002  0.33349082
   0.33333479  0.16851253  0.50000006
   0.33333482  0.83148747  0.50000003
   0.33333479  0.00000000  0.66650916
   0.33333498  0.50000004  0.83148736
   0.49994338 -0.00000005  0.16678782
   0.49994342  0.16678786 -0.00000013
   0.50010259  0.33323222  0.16676590
   0.49984436  0.50000006 -0.00000018
   0.50010258  0.66676784  0.16676590
   0.49994338  0.83321207 -0.00000011
   0.49984435 -0.00000003  0.49999999
   0.50010257  0.16676580  0.33323211
   0.49959436  0.33374060  0.50000003
   0.49959444  0.50000003  0.33374069
   0.49959446  0.66625944  0.50000001
   0.50010260  0.83323415  0.33323207
   0.49994342 -0.00000004  0.83321220
   0.50010256  0.16676598  0.66676783
   0.50010260  0.33323244  0.83323396
   0.50010261  0.66676760  0.83323398
   0.50010263  0.83323400  0.66676785
   0.66654242  0.33339160 -0.00000012
   0.66480156  0.50000004  0.16852842
   0.66654240  0.66660843 -0.00000011
   0.66654246 -0.00000006  0.33339152
   0.66480158  0.16852837  0.50000001
   0.66480162  0.83147156  0.50000002
   0.66654245 -0.00000005  0.66660853
   0.66480139  0.50000006  0.83147138
   0.66693097  0.16639918  0.16639917
   0.66693096  0.83360077  0.16639919
   0.66656468  0.33323209  0.33323201
   0.66656468  0.66676798  0.33323203
   0.66693095  0.16639924  0.83360081
   0.66656474  0.33323211  0.66676803
   0.66656476  0.66676794  0.66676802
   0.66693094  0.83360071  0.83360077
   0.66720344 -0.00000003 -0.00000005
   0.66481837  0.50000006  0.49999997
   0.83333473  0.50000001 -0.00000015
   0.83333484 -0.00000007  0.50000000
   0.83333490  0.33339160  0.16678770
   0.83333491  0.66660846  0.16678773
   0.83333490  0.16678773  0.33339154
   0.83333488  0.83321223  0.33339156
   0.83333490  0.16678779  0.66660853
   0.83333488  0.33339160  0.83321220
   0.83333485  0.66660843  0.83321218
   0.83333486  0.83321215  0.66660848
   0.83333496 -0.00000005  0.16612662
   0.83333496  0.16612665 -0.00000002
   0.83333496  0.83387333 -0.00000001
   0.83333485  0.33349081  0.50000005
   0.83333491  0.50000005  0.33349062
   0.83333482  0.66650927  0.50000006
   0.83333494 -0.00000003  0.83387335
   0.83333480  0.50000004  0.66650933
   0.49959396  0.50000003  0.66625891
Direct configuration=     5
  -0.00036240 -0.00000004  0.00000010
  -0.00026664  0.16639988  0.16640014
   0.00011129  0.33361429  0.00000013
   0.00193107  0.50000012  0.16859609
   0.00011126  0.66638581  0.00000012
  -0.00026663  0.83360007  0.16640013
   0.00011126 -0.00000002  0.33361437
   0.00193112  0.16859580  0.49999992
  -0.00002202  0.33322603  0.33322613
   0.00188993  0.50000013  0.49999989
  -0.00002204  0.66677405  0.33322613
   0.00193114  0.83140413  0.49999988
   0.00011129 -0.00000003  0.66638556
  -0.00026665  0.16639987  0.83359997
  -0.00002201  0.33322604  0.66677374
   0.00193105  0.50000012  0.83140409
  -0.00002202  0.66677404  0.66677376
  -0.00026663  0.83360006  0.83359999
   0.16694709 -0.00000005  0.16677813
   0.16694705  0.16677786  0.00000013
   0.16694706  0.83322209  0.00000014
   0.16732372  0.33399051  0.49999989
   0.16732383  0.50000012  0.33399062
   0.16732375  0.66600959  0.49999986
   0.16694711 -0.00000004  0.83322201
   0.16732374  0.50000011  0.66600934
   0.16655893  0.33322600  0.16664469
   0.16655894  0.66677412  0.16664469
   0.16655893  0.16664440  0.33322611
   0.16655895  0.83335553  0.33322609
   0.16655890  0.16664442  0.66677378
   0.16655892  0.33322605  0.83335542
   0.16655893  0.66677405  0.83335543
   0.16655892  0.83335554  0.66677377
   0.16697208  0.50000011  0.00000002
   0.16697200 -0.00000003  0.49999985
   0.33333352 -0.00000004  0.00000010
   0.33333467  0.16859374  0.16859406
   0.33333466  0.83140620  0.16859399
   0.33333345  0.33399022  0.33399026
   0.33333347  0.66600986  0.33399025
   0.33333466  0.16859367  0.83140616
   0.33333344  0.33399021  0.66600959
   0.33333347  0.66600991  0.66600958
   0.33333466  0.83140624  0.83140610
   0.33333348  0.33363924  0.00000010
   0.33333350  0.50000012  0.16855707
   0.33333352  0.66636087  0.00000007
   0.33333349 -0.00000002  0.33363927
   0.33333350  0.16855662  0.49999987
   0.33333349  0.83144327  0.49999985
   0.33333351 -0.00000004  0.66636061
   0.33333355  0.50000015  0.83144313
   0.49971925 -0.00000005  0.16677807
   0.49971927  0.16677783  0.00000005
   0.50010750  0.33322607  0.16664474
   0.49969436  0.50000015  0.00000004
   0.50010749  0.66677405  0.16664475
   0.49971929  0.83322209  0.00000006
   0.49969437 -0.00000004  0.49999985
   0.50010749  0.16664435  0.33322613
   0.49934297  0.33399034  0.49999982
   0.49934289  0.50000013  0.33399054
   0.49934297  0.66600978  0.49999978
   0.50010750  0.83335557  0.33322611
   0.49971924 -0.00000004  0.83322207
   0.50010750  0.16664443  0.66677369
   0.50010750  0.33322618  0.83335537
   0.50010750  0.66677392  0.83335540
   0.50010753  0.83335550  0.66677370
   0.66655512  0.33361427  0.00000009
   0.66473520  0.50000022  0.16859717
   0.66655512  0.66638585  0.00000007
   0.66655516 -0.00000006  0.33361435
   0.66473541  0.16859580  0.49999984
   0.66473494  0.83140197  0.49999981
   0.66655513 -0.00000007  0.66638556
   0.66473490  0.50000013  0.83140174
   0.66693307  0.16639987  0.16640012
   0.66693307  0.83360007  0.16640011
   0.66668849  0.33322603  0.33322610
   0.66668849  0.66677409  0.33322612
   0.66693309  0.16639985  0.83360001
   0.66668854  0.33322602  0.66677373
   0.66668852  0.66677410  0.66677375
   0.66693306  0.83360009  0.83360002
   0.66702887 -0.00000006  0.00000010
   0.66477653  0.50000011  0.49999977
   0.83333358  0.50000014  0.00000001
   0.83333365 -0.00000003  0.49999983
   0.83333355  0.33361429  0.16677802
   0.83333356  0.66638583  0.16677801
   0.83333357  0.16677775  0.33361437
   0.83333353  0.83322219  0.33361434
   0.83333355  0.16677780  0.66638554
   0.83333354  0.33361431  0.83322206
   0.83333353  0.66638578  0.83322210
   0.83333351  0.83322215  0.66638553
   0.83333349 -0.00000005  0.16630435
   0.83333350  0.16630403  0.00000011
   0.83333347  0.83369590  0.00000015
   0.83333354  0.33363904  0.49999988
   0.83333358  0.50000012  0.33363908
   0.83333354  0.66636105  0.49999986
   0.83333346 -0.00000003  0.83369581
   0.83333354  0.50000011  0.66636078
   0.49934266  0.50000014  0.66600907
Direct configuration=     6
  -0.00019965 -0.00000003  0.00000020
  -0.00026734  0.16640055  0.16640107
   0.00010064  0.33382017  0.00000029
   0.00199328  0.50000020  0.16865857
   0.00010057  0.66617998  0.00000027
  -0.00026733  0.83359939  0.16640105
   0.00010059 -0.00000001  0.33382039
   0.00199331  0.16865801  0.49999982
  -0.00013557  0.33322032  0.33322053
   0.00192926  0.50000022  0.49999973
  -0.00013558  0.66677980  0.33322055
   0.00199343  0.83134187  0.49999974
   0.00010064 -0.00000003  0.66617944
  -0.00026737  0.16640050  0.83359920
  -0.00013556  0.33322031  0.66677918
   0.00199323  0.50000021  0.83134184
  -0.00013552  0.66677982  0.66677920
  -0.00026732  0.83359941  0.83359922
   0.16715547 -0.00000006  0.16676913
   0.16715544  0.16676860  0.00000027
   0.16715541  0.83323137  0.00000026
   0.16755701  0.33422087  0.49999972
   0.16755723  0.50000021  0.33422107
   0.16755710  0.66577933  0.49999968
   0.16715554 -0.00000006  0.83323119
   0.16755704  0.50000021  0.66577876
   0.16655571  0.33322023  0.16653276
   0.16655571  0.66677994  0.16653281
   0.16655569  0.16653220  0.33322044
   0.16655574  0.83346770  0.33322045
   0.16655563  0.16653217  0.66677931
   0.16655568  0.33322027  0.83346753
   0.16655569  0.66677990  0.83346750
   0.16655567  0.83346775  0.66677928
   0.16711171  0.50000016  0.00000020
   0.16711166 -0.00000006  0.49999970
   0.33333221 -0.00000002  0.00000020
   0.33333451  0.16865405  0.16865467
   0.33333450  0.83134589  0.16865459
   0.33333234  0.33422199  0.33422203
   0.33333235  0.66577816  0.33422210
   0.33333451  0.16865389  0.83134580
   0.33333228  0.33422187  0.66577767
   0.33333231  0.66577834  0.66577760
   0.33333450  0.83134597  0.83134562
   0.33333225  0.33377633  0.00000028
   0.33333227  0.50000019  0.16859828
   0.33333231  0.66622380  0.00000020
   0.33333228 -0.00000001  0.33377653
   0.33333231  0.16859739  0.49999969
   0.33333227  0.83140241  0.49999968
   0.33333232 -0.00000007  0.66622327
   0.33333224  0.50000025  0.83140223
   0.49951201 -0.00000005  0.16676904
   0.49951201  0.16676856  0.00000022
   0.50011203  0.33322038  0.16653271
   0.49955566  0.50000023  0.00000024
   0.50011203  0.66677978  0.16653273
   0.49951210  0.83323135  0.00000021
   0.49955571 -0.00000004  0.49999973
   0.50011203  0.16653205  0.33322060
   0.49911053  0.33422124  0.49999961
   0.49911030  0.50000023  0.33422156
   0.49911044  0.66577895  0.49999957
   0.50011204  0.83346783  0.33322060
   0.49951196 -0.00000004  0.83323119
   0.50011206  0.16653203  0.66677911
   0.50011204  0.33322040  0.83346763
   0.50011202  0.66677976  0.83346766
   0.50011207  0.83346785  0.66677910
   0.66656687  0.33382015  0.00000029
   0.66467385  0.50000039  0.16866074
   0.66656689  0.66618005  0.00000024
   0.66656690 -0.00000006  0.33382037
   0.66467422  0.16865815  0.49999970
   0.66467329  0.83133763  0.49999962
   0.66656684 -0.00000008  0.66617941
   0.66467342  0.50000021  0.83133735
   0.66693502  0.16640051  0.16640101
   0.66693502  0.83359943  0.16640096
   0.66680297  0.33322043  0.33322064
   0.66680296  0.66677974  0.33322065
   0.66693506  0.16640040  0.83359928
   0.66680302  0.33322038  0.66677900
   0.66680295  0.66677980  0.66677904
   0.66693502  0.83359951  0.83359933
   0.66686745 -0.00000009  0.00000023
   0.66473785  0.50000016  0.49999959
   0.83333251  0.50000025  0.00000016
   0.83333255  0.00000001  0.49999968
   0.83333230  0.33382019  0.16676908
   0.83333231  0.66617998  0.16676902
   0.83333234  0.16676852  0.33382040
   0.83333229  0.83323141  0.33382033
   0.83333231  0.16676857  0.66617937
   0.83333231  0.33382023  0.83323118
   0.83333231  0.66617991  0.83323127
   0.83333226  0.83323139  0.66617939
   0.83333213 -0.00000005  0.16646867
   0.83333215  0.16646804  0.00000023
   0.83333209  0.83353185  0.00000029
   0.83333234  0.33377610  0.49999972
   0.83333236  0.50000019  0.33377634
   0.83333236  0.66622400  0.49999967
   0.83333209 -0.00000004  0.83353166
   0.83333237  0.50000017  0.66622343
   0.49911031  0.50000024  0.66577806
Direct configuration=     7
  -0.00021580 -0.00000003  0.00000019
  -0.00026727  0.16640048  0.16640097
   0.00010170  0.33379973  0.00000027
   0.00198711  0.50000019  0.16865237
   0.00010163  0.66620041  0.00000025
  -0.00026726  0.83359945  0.16640096
   0.00010165 -0.00000001  0.33379994
   0.00198714  0.16865184  0.49999983
  -0.00012430  0.33322089  0.33322109
   0.00192536  0.50000021  0.49999974
  -0.00012431  0.66677923  0.33322111
   0.00198725  0.83134805  0.49999975
   0.00010169 -0.00000003  0.66619990
  -0.00026729  0.16640043  0.83359928
  -0.00012429  0.33322088  0.66677864
   0.00198706  0.50000020  0.83134802
  -0.00012425  0.66677924  0.66677866
  -0.00026726  0.83359947  0.83359930
   0.16713478 -0.00000006  0.16677002
   0.16713475  0.16676952  0.00000025
   0.16713473  0.83323045  0.00000025
   0.16753385  0.33419800  0.49999973
   0.16753407  0.50000020  0.33419819
   0.16753394  0.66580218  0.49999970
   0.16713485 -0.00000006  0.83323028
   0.16753388  0.50000020  0.66580165
   0.16655603  0.33322080  0.16654387
   0.16655603  0.66677936  0.16654391
   0.16655601  0.16654333  0.33322100
   0.16655606  0.83345657  0.33322101
   0.16655595  0.16654331  0.66677876
   0.16655600  0.33322084  0.83345640
   0.16655601  0.66677931  0.83345638
   0.16655600  0.83345661  0.66677873
   0.16709785  0.50000016  0.00000018
   0.16709780 -0.00000006  0.49999972
   0.33333234 -0.00000003  0.00000019
   0.33333453  0.16864806  0.16864866
   0.33333452  0.83135188  0.16864857
   0.33333245  0.33419898  0.33419902
   0.33333246  0.66580116  0.33419908
   0.33333452  0.16864791  0.83135180
   0.33333240  0.33419887  0.66580069
   0.33333242  0.66580133  0.66580063
   0.33333452  0.83135195  0.83135163
   0.33333237  0.33376273  0.00000026
   0.33333239  0.50000018  0.16859419
   0.33333243  0.66623741  0.00000019
   0.33333240 -0.00000001  0.33376290
   0.33333243  0.16859334  0.49999971
   0.33333239  0.83140646  0.49999970
   0.33333244 -0.00000007  0.66623690
   0.33333237  0.50000024  0.83140629
   0.49953258 -0.00000005  0.16676994
   0.49953259  0.16676948  0.00000021
   0.50011158  0.33322094  0.16654383
   0.49956943  0.50000022  0.00000022
   0.50011157  0.66677921  0.16654385
   0.49953267  0.83323043  0.00000020
   0.49956947 -0.00000004  0.49999974
   0.50011158  0.16654320  0.33322115
   0.49913361  0.33419832  0.49999963
   0.49913339  0.50000022  0.33419863
   0.49913352  0.66580186  0.49999959
   0.50011159  0.83345669  0.33322115
   0.49953254 -0.00000004  0.83323028
   0.50011161  0.16654319  0.66677858
   0.50011159  0.33322097  0.83345649
   0.50011157  0.66677918  0.83345651
   0.50011162  0.83345670  0.66677857
   0.66656571  0.33379971  0.00000027
   0.66467994  0.50000037  0.16865443
   0.66656572  0.66620048  0.00000023
   0.66656574 -0.00000006  0.33379992
   0.66468030  0.16865196  0.49999971
   0.66467941  0.83134402  0.49999964
   0.66656568 -0.00000008  0.66619987
   0.66467952  0.50000020  0.83134374
   0.66693482  0.16640045  0.16640092
   0.66693483  0.83359950  0.16640088
   0.66679161  0.33322099  0.33322119
   0.66679159  0.66677918  0.33322120
   0.66693487  0.16640035  0.83359935
   0.66679165  0.33322094  0.66677848
   0.66679159  0.66677924  0.66677851
   0.66693483  0.83359957  0.83359940
   0.66688347 -0.00000009  0.00000022
   0.66474169  0.50000016  0.49999961
   0.83333262  0.50000024  0.00000015
   0.83333266  0.00000001  0.49999969
   0.83333242  0.33379975  0.16676996
   0.83333243  0.66620042  0.16676991
   0.83333246  0.16676944  0.33379995
   0.83333241  0.83323049  0.33379989
   0.83333244  0.16676948  0.66619983
   0.83333243  0.33379979  0.83323028
   0.83333243  0.66620035  0.83323036
   0.83333238  0.83323048  0.66619985
   0.83333226 -0.00000005  0.16645236
   0.83333229  0.16645176  0.00000022
   0.83333223  0.83354813  0.00000028
   0.83333246  0.33376249  0.49999974
   0.83333248  0.50000018  0.33376271
   0.83333248  0.66623760  0.49999969
   0.83333223 -0.00000004  0.83354796
   0.83333249  0.50000016  0.66623706
   0.49913337  0.50000023  0.66580099
Direct configuration=     8
  -0.00016591 -0.00000001  0.00000049
  -0.00025297  0.16641495  0.16641669
   0.00019330  0.33376715  0.00000051
   0.00199492  0.50000001  0.16866278
   0.00019329  0.66623288  0.00000049
  -0.00025300  0.83358516  0.16641672
   0.00019331 -0.00000001  0.33376843
   0.00199487  0.16866091  0.49999975
  -0.00011161  0.33319187  0.33319311
   0.00183714  0.49999992  0.49999958
  -0.00011160  0.66680819  0.33319313
   0.00199497  0.83133904  0.49999965
   0.00019332 -0.00000002  0.66623130
  -0.00025292  0.16641498  0.83358388
  -0.00011162  0.33319187  0.66680660
   0.00199497  0.50000002  0.83133788
  -0.00011161  0.66680820  0.66680659
  -0.00025300  0.83358510  0.83358386
   0.16710058  0.00000002  0.16686275
   0.16710061  0.16686100  0.00000051
   0.16710061  0.83313909  0.00000048
   0.16764265  0.33430571  0.49999860
   0.16764252  0.50000107  0.33430716
   0.16764272  0.66569435  0.49999855
   0.16710061  0.00000000  0.83313784
   0.16764288  0.50000003  0.66569166
   0.16652588  0.33319123  0.16655777
   0.16652587  0.66680878  0.16655779
   0.16652594  0.16655601  0.33319258