   4   4   0   0
  0.1094076E+02  0.3524000E-09  0.3524000E-09  0.3524000E-09  0.5000000E-15
  1.000000000000000E-004
  CAR 
 Opt                                     
     15.30911538     -3.37180432  301      6.67924600      1.00000000
     -3.372  0.0000E+00  0.0000E+00
     -3.310  0.0000E+00  0.0000E+00
     -3.247  0.0000E+00  0.0000E+00
     -3.185  0.0000E+00  0.0000E+00
     -3.123  0.0000E+00  0.0000E+00
     -3.060  0.0000E+00  0.0000E+00
     -2.998 -0.1759E-29 -0.1095E-30
     -2.936 -0.2411E-27 -0.1512E-28
     -2.874 -0.2733E-25 -0.1717E-26
     -2.811 -0.2548E-23 -0.1604E-24
     -2.749 -0.1951E-21 -0.1231E-22
     -2.687 -0.1228E-19 -0.7771E-21
     -2.625 -0.6349E-18 -0.4031E-19
     -2.562 -0.2695E-16 -0.1719E-17
     -2.500 -0.9099E-15 -0.5838E-16
     -2.438 -0.2590E-13 -0.1671E-14
     -2.375 -0.6039E-12 -0.3928E-13
     -2.313 -0.1152E-10 -0.7568E-12
     -2.251 -0.1797E-09 -0.1195E-10
     -2.189 -0.2286E-08 -0.1543E-09
     -2.126 -0.2368E-07 -0.1629E-08
     -2.064 -0.1991E-06 -0.1403E-07
     -2.002 -0.1353E-05 -0.9829E-07
     -1.940 -0.7388E-05 -0.5583E-06
     -1.877 -0.3209E-04 -0.2556E-05
     -1.815 -0.1091E-03 -0.9348E-05
     -1.753 -0.2809E-03 -0.2684E-04
     -1.691 -0.5069E-03 -0.5841E-04
     -1.628 -0.4667E-03 -0.8747E-04
     -1.566  0.5280E-03 -0.5459E-04
     -1.504  0.3087E-02  0.1376E-03
     -1.441  0.6791E-02  0.5605E-03
     -1.379  0.9822E-02  0.1172E-02
     -1.317  0.1020E-01  0.1807E-02
     -1.255  0.7655E-02  0.2284E-02
     -1.192  0.3908E-02  0.2527E-02
     -1.130  0.9839E-03  0.2589E-02
     -1.068 -0.3477E-03  0.2567E-02
     -1.006 -0.5419E-03  0.2533E-02
     -0.943 -0.3352E-03  0.2512E-02
     -0.881 -0.1401E-03  0.2504E-02
     -0.819 -0.4386E-04  0.2501E-02
     -0.756 -0.1068E-04  0.2500E-02
     -0.694 -0.2064E-05  0.2500E-02
     -0.632 -0.3273E-06  0.2500E-02
     -0.570 -0.1192E-06  0.2500E-02
     -0.507 -0.6632E-06  0.2500E-02
     -0.445 -0.4433E-05  0.2500E-02
     -0.383 -0.2394E-04  0.2498E-02
     -0.321 -0.1028E-03  0.2492E-02
     -0.258 -0.3450E-03  0.2470E-02
     -0.196 -0.8755E-03  0.2416E-02
     -0.134 -0.1546E-02  0.2320E-02
     -0.072 -0.1341E-02  0.2236E-02
     -0.009  0.1843E-02  0.2351E-02
      0.053  0.9753E-02  0.2958E-02
      0.115  0.2092E-01  0.4261E-02
      0.178  0.2974E-01  0.6113E-02
      0.240  0.3041E-01  0.8006E-02
      0.302  0.2245E-01  0.9404E-02
      0.364  0.1120E-01  0.1010E-01
      0.427  0.2646E-02  0.1027E-01
      0.489 -0.1132E-02  0.1020E-01
      0.551 -0.1608E-02  0.1010E-01
      0.613 -0.9713E-03  0.1003E-01
      0.676 -0.4000E-03  0.1001E-01
      0.738 -0.1255E-03  0.1000E-01
      0.800 -0.4149E-04  0.1000E-01
      0.863 -0.6160E-04  0.9996E-02
      0.925 -0.2105E-03  0.9983E-02
      0.987 -0.6050E-03  0.9945E-02
      1.049 -0.1273E-02  0.9866E-02
      1.112 -0.1658E-02  0.9762E-02
      1.174 -0.8417E-04  0.9757E-02
      1.236  0.5640E-02  0.1011E-01
      1.298  0.1575E-01  0.1109E-01
      1.361  0.2623E-01  0.1272E-01
      1.423  0.3075E-01  0.1464E-01
      1.485  0.2651E-01  0.1629E-01
      1.548  0.1741E-01  0.1737E-01
      1.610  0.1004E-01  0.1800E-01
      1.672  0.7228E-02  0.1845E-01
      1.734  0.6747E-02  0.1887E-01
      1.797  0.6062E-02  0.1924E-01
      1.859  0.6509E-02  0.1965E-01
      1.921  0.1198E-01  0.2040E-01
      1.983  0.2391E-01  0.2189E-01
      2.046  0.3853E-01  0.2428E-01
      2.108  0.4969E-01  0.2738E-01
      2.170  0.5399E-01  0.3074E-01
      2.232  0.5245E-01  0.3401E-01
      2.295  0.4751E-01  0.3696E-01
      2.357  0.3953E-01  0.3943E-01
      2.419  0.2756E-01  0.4114E-01
      2.482  0.1303E-01  0.4195E-01
      2.544  0.1478E-02  0.4205E-01
      2.606  0.4584E-03  0.4207E-01
      2.668  0.1546E-01  0.4304E-01
      2.731  0.4538E-01  0.4586E-01
      2.793  0.8055E-01  0.5088E-01
      2.855  0.1071E+00  0.5755E-01
      2.917  0.1154E+00  0.6473E-01
      2.980  0.1045E+00  0.7124E-01
      3.042  0.8111E-01  0.7629E-01
      3.104  0.5576E-01  0.7976E-01
      3.167  0.3723E-01  0.8208E-01
      3.229  0.2854E-01  0.8386E-01
      3.291  0.2906E-01  0.8567E-01
      3.353  0.3943E-01  0.8812E-01
      3.416  0.5922E-01  0.9181E-01
      3.478  0.7967E-01  0.9677E-01
      3.540  0.8607E-01  0.1021E+00
      3.602  0.7193E-01  0.1066E+00
      3.665  0.4727E-01  0.1096E+00
      3.727  0.2922E-01  0.1114E+00
      3.789  0.2683E-01  0.1130E+00
      3.851  0.3738E-01  0.1154E+00
      3.914  0.5284E-01  0.1187E+00
      3.976  0.6442E-01  0.1227E+00
      4.038  0.6442E-01  0.1267E+00
      4.101  0.5150E-01  0.1299E+00
      4.163  0.3496E-01  0.1321E+00
      4.225  0.2806E-01  0.1338E+00
      4.287  0.3503E-01  0.1360E+00
      4.350  0.4781E-01  0.1390E+00
      4.412  0.5746E-01  0.1426E+00
      4.474  0.6495E-01  0.1466E+00
      4.536  0.7620E-01  0.1513E+00
      4.599  0.8935E-01  0.1569E+00
      4.661  0.9509E-01  0.1628E+00
      4.723  0.9094E-01  0.1685E+00
      4.786  0.8612E-01  0.1739E+00
      4.848  0.8766E-01  0.1793E+00
      4.910  0.8932E-01  0.1849E+00
      4.972  0.8090E-01  0.1899E+00
      5.035  0.6394E-01  0.1939E+00
      5.097  0.5059E-01  0.1970E+00
      5.159  0.4867E-01  0.2001E+00
      5.221  0.5541E-01  0.2035E+00
      5.284  0.6619E-01  0.2076E+00
      5.346  0.8186E-01  0.2127E+00
      5.408  0.1035E+00  0.2192E+00
      5.470  0.1249E+00  0.2270E+00
      5.533  0.1350E+00  0.2354E+00
      5.595  0.1277E+00  0.2433E+00
      5.657  0.1061E+00  0.2499E+00
      5.720  0.7742E-01  0.2548E+00
      5.782  0.4771E-01  0.2577E+00
      5.844  0.2286E-01  0.2591E+00
      5.906  0.1139E-01  0.2599E+00
      5.969  0.2103E-01  0.2612E+00
      6.031  0.4929E-01  0.2642E+00
      6.093  0.7893E-01  0.2691E+00
      6.155  0.8842E-01  0.2747E+00
      6.218  0.7123E-01  0.2791E+00
      6.280  0.4299E-01  0.2818E+00
      6.342  0.2755E-01  0.2835E+00
      6.405  0.3799E-01  0.2858E+00
      6.467  0.7098E-01  0.2903E+00
      6.529  0.1131E+00  0.2973E+00
      6.591  0.1472E+00  0.3065E+00
      6.654  0.1572E+00  0.3163E+00
      6.716  0.1350E+00  0.3247E+00
      6.778  0.8911E-01  0.3302E+00
      6.840  0.4140E-01  0.3328E+00
      6.903  0.1177E-01  0.3335E+00
      6.965  0.5130E-02  0.3339E+00
      7.027  0.1288E-01  0.3347E+00
      7.090  0.2544E-01  0.3362E+00
      7.152  0.4208E-01  0.3389E+00
      7.214  0.6746E-01  0.3431E+00
      7.276  0.9891E-01  0.3492E+00
      7.339  0.1216E+00  0.3568E+00
      7.401  0.1205E+00  0.3643E+00
      7.463  0.9592E-01  0.3703E+00
      7.525  0.6422E-01  0.3743E+00
      7.588  0.4593E-01  0.3771E+00
      7.650  0.5453E-01  0.3805E+00
      7.712  0.9079E-01  0.3862E+00
      7.774  0.1392E+00  0.3948E+00
      7.837  0.1716E+00  0.4055E+00
      7.899  0.1653E+00  0.4158E+00
      7.961  0.1216E+00  0.4234E+00
      8.024  0.6470E-01  0.4274E+00
      8.086  0.2024E-01  0.4287E+00
      8.148 -0.2013E-02  0.4286E+00
      8.210 -0.7372E-02  0.4281E+00
      8.273 -0.5494E-02  0.4278E+00
      8.335 -0.2691E-02  0.4276E+00
      8.397 -0.9931E-03  0.4275E+00
      8.459 -0.2889E-03  0.4275E+00
      8.522 -0.6751E-04  0.4275E+00
      8.584 -0.1280E-04  0.4275E+00
      8.646 -0.2003E-05  0.4275E+00
      8.709 -0.4893E-06  0.4275E+00
      8.771 -0.1816E-05  0.4275E+00
      8.833 -0.1078E-04  0.4275E+00
      8.895 -0.5193E-04  0.4275E+00
      8.958 -0.1978E-03  0.4275E+00
      9.020 -0.5831E-03  0.4274E+00
      9.082 -0.1274E-02  0.4274E+00
      9.144 -0.1834E-02  0.4273E+00
      9.207 -0.8326E-03  0.4272E+00
      9.269  0.3702E-02  0.4274E+00
      9.331  0.1238E-01  0.4282E+00
      9.393  0.2316E-01  0.4296E+00
      9.456  0.3357E-01  0.4317E+00
      9.518  0.4393E-01  0.4345E+00
      9.580  0.5539E-01  0.4379E+00
      9.643  0.6407E-01  0.4419E+00
      9.705  0.6195E-01  0.4458E+00
      9.767  0.4618E-01  0.4486E+00
      9.829  0.2410E-01  0.4501E+00
      9.892  0.6456E-02  0.4505E+00
      9.954 -0.1942E-02  0.4504E+00
     10.016 -0.3363E-02  0.4502E+00
     10.078 -0.2156E-02  0.4501E+00
     10.141 -0.9380E-03  0.4500E+00
     10.203 -0.3617E-03  0.4500E+00
     10.265 -0.3138E-03  0.4500E+00
     10.328 -0.6853E-03  0.4499E+00
     10.390 -0.1355E-02  0.4499E+00
     10.452 -0.1616E-02  0.4498E+00
     10.514  0.3476E-03  0.4498E+00
     10.577  0.6684E-02  0.4502E+00
     10.639  0.1725E-01  0.4513E+00
     10.701  0.2757E-01  0.4530E+00
     10.763  0.3125E-01  0.4549E+00
     10.826  0.2570E-01  0.4565E+00
     10.888  0.1476E-01  0.4574E+00
     10.950  0.4888E-02  0.4578E+00
     11.013 -0.3869E-03  0.4577E+00
     11.075 -0.1668E-02  0.4576E+00
     11.137 -0.1201E-02  0.4575E+00
     11.199 -0.5506E-03  0.4575E+00
     11.262 -0.1856E-03  0.4575E+00
     11.324 -0.4895E-04  0.4575E+00
     11.386 -0.1440E-04  0.4575E+00
     11.448 -0.2576E-04  0.4575E+00
     11.511 -0.1037E-03  0.4575E+00
     11.573 -0.3469E-03  0.4575E+00
     11.635 -0.8789E-03  0.4574E+00
     11.697 -0.1549E-02  0.4573E+00
     11.760 -0.1334E-02  0.4572E+00
     11.822  0.1871E-02  0.4574E+00
     11.884  0.9805E-02  0.4580E+00
     11.947  0.2098E-01  0.4593E+00
     12.009  0.2977E-01  0.4611E+00
     12.071  0.3038E-01  0.4630E+00
     12.133  0.2239E-01  0.4644E+00
     12.196  0.1115E-01  0.4651E+00
     12.258  0.2615E-02  0.4653E+00
     12.320 -0.1140E-02  0.4652E+00
     12.382 -0.1606E-02  0.4651E+00
     12.445 -0.9677E-03  0.4650E+00
     12.507 -0.3977E-03  0.4650E+00
     12.569 -0.1229E-03  0.4650E+00
     12.632 -0.3141E-04  0.4650E+00
     12.694 -0.1801E-04  0.4650E+00
     12.756 -0.6495E-04  0.4650E+00
     12.818 -0.2633E-03  0.4650E+00
     12.881 -0.8409E-03  0.4649E+00
     12.943 -0.2011E-02  0.4648E+00
     13.005 -0.3251E-02  0.4646E+00
     13.067 -0.2086E-02  0.4645E+00
     13.130  0.5903E-02  0.4648E+00
     13.192  0.2345E-01  0.4663E+00
     13.254  0.4593E-01  0.4692E+00
     13.316  0.6120E-01  0.4730E+00
     13.379  0.5893E-01  0.4766E+00
     13.441  0.4075E-01  0.4792E+00
     13.503  0.1852E-01  0.4803E+00
     13.566  0.3168E-02  0.4805E+00
     13.628 -0.2800E-02  0.4804E+00
     13.690 -0.3041E-02  0.4802E+00
     13.752 -0.1686E-02  0.4801E+00
     13.815 -0.6544E-03  0.4800E+00
     13.877 -0.1925E-03  0.4800E+00
     13.939 -0.4433E-04  0.4800E+00
     14.001 -0.8119E-05  0.4800E+00
     14.064 -0.1195E-05  0.4800E+00
     14.126 -0.1421E-06  0.4800E+00
     14.188 -0.1372E-07  0.4800E+00
     14.251 -0.1078E-08  0.4800E+00
     14.313 -0.6914E-10  0.4800E+00
     14.375 -0.3623E-11  0.4800E+00
     14.437 -0.1554E-12  0.4800E+00
     14.500 -0.5456E-14  0.4800E+00
     14.562 -0.1605E-15  0.4800E+00
     14.624  0.0000E+00  0.4800E+00
     14.686  0.0000E+00  0.4800E+00
     14.749  0.0000E+00  0.4800E+00
     14.811  0.0000E+00  0.4800E+00
     14.873  0.0000E+00  0.4800E+00
     14.935  0.0000E+00  0.4800E+00
     14.998  0.0000E+00  0.4800E+00
     15.060  0.0000E+00  0.4800E+00
     15.122  0.0000E+00  0.4800E+00
     15.185  0.0000E+00  0.4800E+00
     15.247  0.0000E+00  0.4800E+00
     15.309  0.0000E+00  0.4800E+00
