    4    4  100    1
  0.1094076E+02  0.3524000E-09  0.3524000E-09  0.3524000E-09  0.5000000E-15
  1.000000000000000E-004
  CAR 
 Opt                                     
     32      4     24
 
  0.1250000E+00  0.1250000E+00  0.1250000E+00  0.1250000E+00
    1       -1.371804   1.000000
    2        2.171849   1.000000
    3        2.171849   1.000000
    4        2.171849   1.000000
    5        2.870956   1.000000
    6        2.870956   1.000000
    7        2.870956   1.000000
    8        4.930895   1.000000
    9        5.323825   1.000000
   10        5.323825   1.000000
   11        6.634373   0.684678
   12        6.634373   0.684678
   13        6.654724   0.602901
   14        6.654724   0.602901
   15        6.654724   0.602901
   16        7.325890  -0.000024
   17        7.325890  -0.000024
   18        7.325890  -0.000024
   19        7.922915  -0.000000
   20        7.922915  -0.000000
   21        7.922915  -0.000000
   22       10.725556  -0.000000
   23       10.725556  -0.000000
   24       10.725556  -0.000000
 
  0.3750000E+00  0.1250000E+00  0.1250000E+00  0.3750000E+00
    1        0.181900   1.000000
    2        2.039501   1.000000
    3        2.985648   1.000000
    4        2.985648   1.000000
    5        3.454087   1.000000
    6        3.524366   1.000000
    7        3.524366   1.000000
    8        4.324188   1.000000
    9        4.915090   1.000000
   10        4.915090   1.000000
   11        5.461376   1.000000
   12        5.505266   1.000000
   13        5.736851   1.000000
   14        6.432420   1.035444
   15        6.528318   0.977516
   16        6.678743   0.502128
   17        6.678743   0.502128
   18        7.064854  -0.010017
   19        7.617720  -0.000000
   20        7.805056  -0.000000
   21        7.805056  -0.000000
   22        7.848959  -0.000000
   23       13.309115   0.000000
   24       13.309115   0.000000
 
  0.3750000E+00  0.3750000E+00  0.1250000E+00  0.3750000E+00
    1        1.392282   1.000000
    2        2.797134   1.000000
    3        2.797134   1.000000
    4        3.226313   1.000000
    5        3.816930   1.000000
    6        4.010037   1.000000
    7        4.010037   1.000000
    8        4.392442   1.000000
    9        4.617705   1.000000
   10        4.617705   1.000000
   11        4.813294   1.000000
   12        5.176447   1.000000
   13        5.643561   1.000000
   14        6.107524   1.000201
   15        6.118510   1.000268
   16        6.118510   1.000268
   17        6.553324   0.932858
   18        7.294010  -0.000061
   19        7.294010  -0.000061
   20        7.399821  -0.000002
   21        7.851689  -0.000000
   22        9.655566  -0.000000
   23        9.655566  -0.000000
   24       12.012830  -0.000000
 
  0.3750000E+00  0.3750000E+00  0.3750000E+00  0.1250000E+00
    1        1.714171   1.000000
    2        2.342848   1.000000
    3        2.342848   1.000000
    4        2.342848   1.000000
    5        4.613225   1.000000
    6        4.613225   1.000000
    7        4.613225   1.000000
    8        5.192608   1.000000
    9        5.192608   1.000000
   10        5.402223   1.000000
   11        5.402223   1.000000
   12        5.402223   1.000000
   13        5.529692   1.000000
   14        5.552096   1.000000
   15        5.552096   1.000000
   16        5.552096   1.000000
   17        7.446218  -0.000000
   18        7.446218  -0.000000
   19        7.786391  -0.000000
   20        7.786391  -0.000000
   21        7.786391  -0.000000
   22        9.428352  -0.000000
   23        9.428352  -0.000000
   24        9.428352  -0.000000
