       N       E                     dE             d eps       ncg     rms          rms(c)
DAV:   1     0.169445980491E+03    0.16945E+03   -0.12479E+04   192   0.149E+03
DAV:   2    -0.325217960591E+02   -0.20197E+03   -0.19377E+03   192   0.307E+02
DAV:   3    -0.387200162977E+02   -0.61982E+01   -0.59929E+01   216   0.746E+01
DAV:   4    -0.388061200241E+02   -0.86104E-01   -0.85971E-01   192   0.751E+00
DAV:   5    -0.388079419050E+02   -0.18219E-02   -0.18217E-02   228   0.923E-01    0.183E+01
RMM:   6    -0.329314588322E+02    0.58765E+01   -0.46983E+01   192   0.864E+01    0.413E+00
RMM:   7    -0.324344535964E+02    0.49701E+00   -0.31375E+00   192   0.264E+01    0.114E+00
RMM:   8    -0.323839249685E+02    0.50529E-01   -0.78744E-02   192   0.143E+00    0.169E-01
RMM:   9    -0.323793217866E+02    0.46032E-02   -0.40113E-03   192   0.840E-01    0.795E-02
RMM:  10    -0.323792781130E+02    0.43674E-04   -0.28846E-04   192   0.133E-01    0.358E-02
RMM:  11    -0.323792194113E+02    0.58702E-04   -0.14534E-05   192   0.366E-02    0.160E-02
RMM:  12    -0.323792074181E+02    0.11993E-04   -0.10422E-05   171   0.361E-02    0.726E-04
RMM:  13    -0.323792080512E+02   -0.63307E-06   -0.49544E-07    98   0.420E-03
   1 F= -.32379208E+02 E0= -.32358250E+02  d E =-.323792E+02
       N       E                     dE             d eps       ncg     rms          rms(c)
DAV:   1    -0.394898801126E+02   -0.71107E+01   -0.16428E+02   192   0.167E+02    0.202E+01
RMM:   2    -0.326071861670E+02    0.68827E+01   -0.37796E+01   192   0.798E+01    0.313E+00
RMM:   3    -0.322552691126E+02    0.35192E+00   -0.19399E+00   192   0.205E+01    0.231E+00
RMM:   4    -0.321559003984E+02    0.99369E-01   -0.25767E-01   192   0.372E+00    0.703E-01
RMM:   5    -0.321498237935E+02    0.60766E-02   -0.27702E-02   192   0.229E+00    0.163E-01
RMM:   6    -0.321491010343E+02    0.72276E-03   -0.65735E-04   194   0.196E-01    0.386E-02
RMM:   7    -0.321490779988E+02    0.23036E-04   -0.32568E-05   184   0.684E-02    0.103E-02
RMM:   8    -0.321490790156E+02   -0.10167E-05   -0.61891E-06   140   0.267E-02    0.347E-03
RMM:   9    -0.321490795501E+02   -0.53456E-06   -0.81074E-07    98   0.628E-03
   2 F= -.32149080E+02 E0= -.32129285E+02  d E =0.230129E+00
       N       E                     dE             d eps       ncg     rms          rms(c)
DAV:   1    -0.352524656129E+02   -0.31034E+01   -0.65603E+01   192   0.117E+02    0.129E+01
RMM:   2    -0.328272403152E+02    0.24252E+01   -0.16285E+01   192   0.475E+01    0.245E+00
RMM:   3    -0.325726728122E+02    0.25457E+00   -0.63194E-01   192   0.118E+01    0.112E+00
RMM:   4    -0.325244257886E+02    0.48247E-01   -0.10282E-01   192   0.432E+00    0.357E-01
RMM:   5    -0.325237645111E+02    0.66128E-03   -0.12310E-02   192   0.942E-01    0.993E-02
RMM:   6    -0.325235390956E+02    0.22542E-03   -0.59270E-04   192   0.182E-01    0.241E-02
RMM:   7    -0.325235405487E+02   -0.14531E-05   -0.31879E-05   197   0.566E-02    0.357E-03
RMM:   8    -0.325235385037E+02    0.20450E-05   -0.17177E-06   107   0.125E-02    0.174E-03
RMM:   9    -0.325235386886E+02   -0.18488E-06   -0.25692E-07    96   0.556E-03
   3 F= -.32523539E+02 E0= -.32502628E+02  d E =-.144331E+00
       N       E                     dE             d eps       ncg     rms          rms(c)
DAV:   1    -0.325236698202E+02   -0.13132E-03   -0.24160E-03   192   0.681E-01    0.806E-02
RMM:   2    -0.325235773759E+02    0.92444E-04   -0.66639E-04   192   0.313E-01    0.172E-02
RMM:   3    -0.325235666773E+02    0.10699E-04   -0.35753E-05   177   0.899E-02    0.761E-03
RMM:   4    -0.325235655184E+02    0.11589E-05   -0.29549E-06   104   0.219E-02    0.162E-03
RMM:   5    -0.325235654635E+02    0.54917E-07   -0.46295E-07    96   0.564E-03
   4 F= -.32523565E+02 E0= -.32502658E+02  d E =-.144357E+00
