<?xml version="1.0" encoding="ISO-8859-1"?>
<modeling>
 <generator>
  <i name="program" type="string">vasp </i>
  <i name="version" type="string">5.4.4.18Apr17-6-g9f103f2a35  </i>
  <i name="subversion" type="string">(build Aug 17 2017 06:00:38) complex            parallel </i>
  <i name="platform" type="string">LinuxIFC </i>
  <i name="date" type="string">2019 07 12 </i>
  <i name="time" type="string">12:18:46 </i>
 </generator>
 <incar>
  <i type="string" name="SYSTEM">Opt</i>
  <i type="int" name="ISTART">     0</i>
  <i type="string" name="PREC">normal</i>
  <i type="string" name="ALGO"> Fast</i>
  <i type="int" name="ISPIN">     1</i>
  <i type="int" name="ICHARG">     2</i>
  <i type="int" name="NELM">   400</i>
  <i type="int" name="IBRION">     2</i>
  <i name="EDIFF">      0.00000100</i>
  <i name="EDIFFG">     -0.01000000</i>
  <i type="int" name="NSW">   100</i>
  <i type="int" name="ISIF">     3</i>
  <i name="ENCUT">    400.00000000</i>
  <i name="POTIM">      0.50000000</i>
  <i type="string" name="LREAL">Auto</i>
  <i type="logical" name="LWAVE"> F  </i>
  <i type="logical" name="LCHARG"> F  </i>
  <v type="int" name="KPOINT_BSE">    -1     0     0     0</v>
  <i type="int" name="NELM">   400</i>
 </incar>
 <structure name="primitive_cell" >
  <crystal>
   <varray name="basis" >
    <v>       1.76199996       1.76199996       0.00000000 </v>
    <v>       1.76199996       0.00000000      -1.76199996 </v>
    <v>       0.00000000       1.76199996      -1.76199996 </v>
   </varray>
   <i name="volume">     10.94076480 </i>
   <varray name="rec_basis" >
    <v>       0.28376845       0.28376845       0.28376845 </v>
    <v>       0.28376845      -0.28376845      -0.28376845 </v>
    <v>      -0.28376845       0.28376845      -0.28376845 </v>
   </varray>
  </crystal>
  <varray name="positions" >
   <v>       0.00000000       0.00000000       0.00000000 </v>
  </varray>
 </structure>
 <varray name="primitive_index" >
  <v type="int" >        1 </v>
 </varray>
 <kpoints>
  <generation param="Monkhorst-Pack">
   <v type="int" name="divisions">       4        4        4 </v>
   <v name="usershift">      0.00000000       0.00000000       0.00000000 </v>
   <v name="genvec1">      0.25000000       0.00000000       0.00000000 </v>
   <v name="genvec2">      0.00000000       0.25000000       0.00000000 </v>
   <v name="genvec3">      0.00000000       0.00000000       0.25000000 </v>
   <v name="shift">      0.50000000       0.50000000       0.50000000 </v>
  </generation>
  <varray name="kpointlist" >
   <v>       0.12500000       0.12500000       0.12500000 </v>
   <v>       0.37500000       0.12500000       0.12500000 </v>
   <v>       0.37500000       0.37500000       0.12500000 </v>
   <v>       0.37500000       0.37500000       0.37500000 </v>
  </varray>
  <varray name="weights" >
   <v>       0.12500000 </v>
   <v>       0.37500000 </v>
   <v>       0.37500000 </v>
   <v>       0.12500000 </v>
  </varray>
 </kpoints>
 <parameters>
  <separator name="general" >
   <i type="string" name="SYSTEM">Opt</i>
   <i type="logical" name="LCOMPAT"> F  </i>
  </separator>
  <separator name="electronic" >
   <i type="string" name="PREC">normal</i>
   <i name="ENMAX">    400.00000000</i>
   <i name="ENAUG">    511.36800000</i>
   <i name="EDIFF">      0.00000100</i>
   <i type="int" name="IALGO">    68</i>
   <i type="int" name="IWAVPR">    11</i>
   <i type="int" name="NBANDS">    24</i>
   <i name="NELECT">     32.00000000</i>
   <i type="int" name="TURBO">     0</i>
   <i type="int" name="IRESTART">     0</i>
   <i type="int" name="NREBOOT">     0</i>
   <i type="int" name="NMIN">     0</i>
   <i name="EREF">      0.00000000</i>
   <separator name="electronic smearing" >
    <i type="int" name="ISMEAR">     1</i>
    <i name="SIGMA">      0.20000000</i>
    <i name="KSPACING">      0.50000000</i>
    <i type="logical" name="KGAMMA"> T  </i>
   </separator>
   <separator name="electronic projectors" >
    <i type="logical" name="LREAL"> T  </i>
    <v name="ROPT">     -0.00050000</v>
    <i type="int" name="LMAXPAW">  -100</i>
    <i type="int" name="LMAXMIX">     2</i>
    <i type="logical" name="NLSPLINE"> F  </i>
   </separator>
   <separator name="electronic startup" >
    <i type="int" name="ISTART">     0</i>
    <i type="int" name="ICHARG">     2</i>
    <i type="int" name="INIWAV">     1</i>
   </separator>
   <separator name="electronic spin" >
    <i type="int" name="ISPIN">     1</i>
    <i type="logical" name="LNONCOLLINEAR"> F  </i>
    <v name="MAGMOM">      1.00000000      1.00000000      1.00000000      1.00000000</v>
    <i name="NUPDOWN">     -1.00000000</i>
    <i type="logical" name="LSORBIT"> F  </i>
    <v name="SAXIS">      0.00000000      0.00000000      1.00000000</v>
    <i type="logical" name="LSPIRAL"> F  </i>
    <v name="QSPIRAL">      0.00000000      0.00000000      0.00000000</v>
    <i type="logical" name="LZEROZ"> F  </i>
   </separator>
   <separator name="electronic exchange-correlation" >
    <i type="logical" name="LASPH"> F  </i>
    <i type="logical" name="LMETAGGA"> F  </i>
   </separator>
   <separator name="electronic convergence" >
    <i type="int" name="NELM">   400</i>
    <i type="int" name="NELMDL">    -5</i>
    <i type="int" name="NELMIN">     2</i>
    <i name="ENINI">    400.00000000</i>
    <separator name="electronic convergence detail" >
     <i type="logical" name="LDIAG"> T  </i>
     <i type="logical" name="LSUBROT"> F  </i>
     <i name="WEIMIN">      0.00100000</i>
     <i name="EBREAK">      0.00000001</i>
     <i name="DEPER">      0.30000000</i>
     <i type="int" name="NRMM">     4</i>
     <i name="TIME">      0.40000000</i>
    </separator>
   </separator>
   <separator name="electronic mixer" >
    <i name="AMIX">      0.40000000</i>
    <i name="BMIX">      1.00000000</i>
    <i name="AMIN">      0.10000000</i>
    <i name="AMIX_MAG">      1.60000000</i>
    <i name="BMIX_MAG">      1.00000000</i>
    <separator name="electronic mixer details" >
     <i type="int" name="IMIX">     4</i>
     <i type="logical" name="MIXFIRST"> F  </i>
     <i type="int" name="MAXMIX">   -45</i>
     <i name="WC">    100.00000000</i>
     <i type="int" name="INIMIX">     1</i>
     <i type="int" name="MIXPRE">     1</i>
     <i type="int" name="MREMOVE">     5</i>
    </separator>
   </separator>
   <separator name="electronic dipolcorrection" >
    <i type="logical" name="LDIPOL"> F  </i>
    <i type="logical" name="LMONO"> F  </i>
    <i type="int" name="IDIPOL">     0</i>
    <i name="EPSILON">      1.00000000</i>
    <v name="DIPOL">   -100.00000000   -100.00000000   -100.00000000</v>
    <i name="EFIELD">      0.00000000</i>
   </separator>
  </separator>
  <separator name="grids" >
   <i type="int" name="NGX">    18</i>
   <i type="int" name="NGY">    18</i>
   <i type="int" name="NGZ">    18</i>
   <i type="int" name="NGXF">    36</i>
   <i type="int" name="NGYF">    36</i>
   <i type="int" name="NGZF">    36</i>
   <i type="logical" name="ADDGRID"> F  </i>
  </separator>
  <separator name="ionic" >
   <i type="int" name="NSW">   100</i>
   <i type="int" name="IBRION">     2</i>
   <i type="int" name="MDALGO">     0</i>
   <i type="int" name="ISIF">     3</i>
   <i name="PSTRESS">      0.00000000</i>
   <i name="EDIFFG">     -0.01000000</i>
   <i type="int" name="NFREE">     1</i>
   <i name="POTIM">      0.50000000</i>
   <i name="SMASS">     -3.00000000</i>
   <i name="SCALEE">      1.00000000</i>
  </separator>
  <separator name="ionic md" >
   <i name="TEBEG">      0.00010000</i>
   <i name="TEEND">      0.00010000</i>
   <i type="int" name="NBLOCK">     1</i>
   <i type="int" name="KBLOCK">   100</i>
   <i type="int" name="NPACO">   256</i>
   <i name="APACO">     16.00000000</i>
  </separator>
  <separator name="symmetry" >
   <i type="int" name="ISYM">     2</i>
   <i name="SYMPREC">      0.00001000</i>
  </separator>
  <separator name="dos" >
   <i type="int" name="LORBIT">     0</i>
   <v name="RWIGS">     -1.00000000</v>
   <i type="int" name="NEDOS">   301</i>
   <i name="EMIN">     10.00000000</i>
   <i name="EMAX">    -10.00000000</i>
   <i name="EFERMI">      0.00000000</i>
  </separator>
  <separator name="writing" >
   <i type="int" name="NWRITE">     2</i>
   <i type="logical" name="LWAVE"> F  </i>
   <i type="logical" name="LDOWNSAMPLE"> F  </i>
   <i type="logical" name="LCHARG"> F  </i>
   <i type="logical" name="LPARD"> F  </i>
   <i type="logical" name="LVTOT"> F  </i>
   <i type="logical" name="LVHAR"> F  </i>
   <i type="logical" name="LELF"> F  </i>
   <i type="logical" name="LOPTICS"> F  </i>
   <v name="STM">      0.00000000      0.00000000      0.00000000      0.00000000      0.00000000      0.00000000      0.00000000</v>
  </separator>
  <separator name="performance" >
   <i type="int" name="NPAR">     6</i>
   <i type="int" name="NSIM">     4</i>
   <i type="int" name="NBLK">    -1</i>
   <i type="logical" name="LPLANE"> T  </i>
   <i type="logical" name="LSCALAPACK"> T  </i>
   <i type="logical" name="LSCAAWARE"> F  </i>
   <i type="logical" name="LSCALU"> F  </i>
   <i type="logical" name="LASYNC"> F  </i>
   <i type="logical" name="LORBITALREAL"> F  </i>
  </separator>
  <separator name="miscellaneous" >
   <i type="int" name="IDIOT">     3</i>
   <i type="int" name="ISPECIAL">     0</i>
   <i type="logical" name="LMUSIC"> F  </i>
   <v name="POMASS">     55.84700000</v>
   <v name="DARWINR">      0.00000000</v>
   <v name="DARWINV">      1.00000000</v>
   <i type="logical" name="LCORR"> T  </i>
  </separator>
  <i type="logical" name="GGA_COMPAT"> T  </i>
  <i type="logical" name="LBERRY"> F  </i>
  <i type="int" name="ICORELEVEL">     0</i>
  <i type="logical" name="LDAU"> F  </i>
  <i type="int" name="I_CONSTRAINED_M">     0</i>
  <separator name="electronic exchange-correlation" >
   <i type="string" name="GGA">--</i>
   <i type="int" name="VOSKOWN">     0</i>
   <i type="logical" name="LHFCALC"> F  </i>
   <i type="string" name="PRECFOCK"></i>
   <i type="logical" name="LSYMGRAD"> F  </i>
   <i type="logical" name="LHFONE"> F  </i>
   <i type="logical" name="LRHFCALC"> F  </i>
   <i type="logical" name="LTHOMAS"> F  </i>
   <i type="logical" name="LMODELHF"> F  </i>
   <i name="ENCUT4O">     -1.00000000</i>
   <i type="int" name="EXXOEP">     0</i>
   <i type="int" name="FOURORBIT">     0</i>
   <i name="AEXX">      0.00000000</i>
   <i name="HFALPHA">      0.00000000</i>
   <i name="MCALPHA">      0.00000000</i>
   <i name="ALDAX">      1.00000000</i>
   <i name="AGGAX">      1.00000000</i>
   <i name="ALDAC">      1.00000000</i>
   <i name="AGGAC">      1.00000000</i>
   <i type="int" name="NKREDX">     1</i>
   <i type="int" name="NKREDY">     1</i>
   <i type="int" name="NKREDZ">     1</i>
   <i type="logical" name="SHIFTRED"> F  </i>
   <i type="logical" name="ODDONLY"> F  </i>
   <i type="logical" name="EVENONLY"> F  </i>
   <i type="int" name="LMAXFOCK">     0</i>
   <i type="int" name="NMAXFOCKAE">     0</i>
   <i type="logical" name="LFOCKAEDFT"> F  </i>
   <i name="HFSCREEN">      0.00000000</i>
   <i name="HFSCREENC">      0.00000000</i>
   <i type="int" name="NBANDSGWLOW">     0</i>
  </separator>
  <separator name="vdW DFT" >
   <i type="logical" name="LUSE_VDW"> F  </i>
   <i name="Zab_VDW">     -0.84910000</i>
   <i name="PARAM1">      0.12340000</i>
   <i name="PARAM2">      1.00000000</i>
   <i name="PARAM3">      0.00000000</i>
  </separator>
  <separator name="model GW" >
   <i type="int" name="MODEL_GW">     0</i>
   <i name="MODEL_EPS0">      6.56445888</i>
   <i name="MODEL_ALPHA">      1.00000000</i>
  </separator>
  <separator name="linear response parameters" >
   <i type="logical" name="LEPSILON"> F  </i>
   <i type="logical" name="LRPA"> F  </i>
   <i type="logical" name="LNABLA"> F  </i>
   <i type="logical" name="LVEL"> F  </i>
   <i type="int" name="KINTER">     0</i>
   <i name="CSHIFT">      0.10000000</i>
   <i name="OMEGAMAX">     -1.00000000</i>
   <i name="DEG_THRESHOLD">      0.00200000</i>
   <i name="RTIME">     -0.10000000</i>
   <i name="WPLASMAI">      0.00000000</i>
   <v name="DFIELD">      0.00000000      0.00000000      0.00000000</v>
   <v name="WPLASMA">      0.00000000      0.00000000      0.00000000      0.00000000      0.00000000      0.00000000      0.00000000      0.00000000      0.00000000</v>
  </separator>
  <separator name="orbital magnetization" >
   <i type="logical" name="NUCIND"> F  </i>
   <v name="MAGPOS">      0.00000000      0.00000000      0.00000000</v>
   <i type="logical" name="LNICSALL"> T  </i>
   <i type="logical" name="ORBITALMAG"> F  </i>
   <i type="logical" name="LMAGBLOCH"> F  </i>
   <i type="logical" name="LCHIMAG"> F  </i>
   <i type="logical" name="LGAUGE"> T  </i>
   <i type="int" name="MAGATOM">     0</i>
   <v name="MAGDIPOL">      0.00000000      0.00000000      0.00000000</v>
   <v name="AVECCONST">      0.00000000      0.00000000      0.00000000</v>
  </separator>
  <separator name="response functions" >
   <i type="logical" name="LADDER"> F  </i>
   <i type="logical" name="LRPAFORCE"> F  </i>
   <i type="logical" name="LFXC"> F  </i>
   <i type="logical" name="LHARTREE"> T  </i>
   <i type="int" name="IBSE">     0</i>
   <v type="int" name="KPOINT">    -1     0     0     0</v>
   <i type="logical" name="LTCTE"> F  </i>
   <i type="logical" name="LTETE"> F  </i>
   <i type="logical" name="LTRIPLET"> F  </i>
   <i type="logical" name="LFXCEPS"> F  </i>
   <i type="logical" name="LFXHEG"> F  </i>
   <i type="int" name="NATURALO">     2</i>
   <i type="logical" name="L2ORDER"> F  </i>
   <i type="logical" name="LMP2LT"> F  </i>
   <i type="logical" name="LUSEW"> F  </i>
   <i name="ENCUTGW">     -2.00000000</i>
   <i name="ENCUTGWSOFT">     -2.00000000</i>
   <i name="ENCUTLF">     -1.00000000</i>
   <i type="int" name="LMAXMP2">    -1</i>
   <i name="SCISSOR">      0.00000000</i>
   <i type="int" name="NOMEGA">     0</i>
   <i type="int" name="NOMEGAR">     0</i>
   <i type="int" name="NBANDSGW">    -1</i>
   <i type="int" name="NBANDSO">    -1</i>
   <i type="int" name="NBANDSV">    -1</i>
   <i type="int" name="NELM">   400</i>
   <i type="int" name="NELMHF">     1</i>
   <i type="int" name="DIM">     3</i>
   <i type="int" name="ANTIRES">     0</i>
   <i name="OMEGAMAX">    -30.00000000</i>
   <i name="OMEGAMIN">    -30.00000000</i>
   <i name="OMEGATL">   -200.00000000</i>
   <i type="int" name="OMEGAGRID">   140</i>
   <i name="CSHIFT">     -0.10000000</i>
   <i type="logical" name="SELFENERGY"> F  </i>
   <i type="logical" name="LSPECTRAL"> F  </i>
   <i type="logical" name="LSPECTRALGW"> F  </i>
   <i type="logical" name="LSINGLES"> F  </i>
   <i type="logical" name="LFERMIGW"> F  </i>
   <i type="logical" name="ODDONLYGW"> F  </i>
   <i type="logical" name="EVENONLYGW"> F  </i>
   <i type="int" name="NKREDLFX">     1</i>
   <i type="int" name="NKREDLFY">     1</i>
   <i type="int" name="NKREDLFZ">     1</i>
   <i type="int" name="MAXMEM">  2800</i>
   <i type="int" name="TELESCOPE">     0</i>
   <i type="int" name="TAUPAR">     1</i>
   <i type="int" name="OMEGAPAR">    -1</i>
   <i name="LAMBDA">      1.00000000</i>
  </separator>
  <separator name="External order field" >
   <i name="OFIELD_KAPPA">      0.00000000</i>
   <v name="OFIELD_K">      0.00000000      0.00000000      0.00000000</v>
   <i name="OFIELD_Q6_NEAR">      0.00000000</i>
   <i name="OFIELD_Q6_FAR">      0.00000000</i>
   <i name="OFIELD_A">      0.00000000</i>
  </separator>
 </parameters>
 <atominfo>
  <atoms>       4 </atoms>
  <types>       1 </types>
  <array name="atoms" >
   <dimension dim="1">ion</dimension>
   <field type="string">element</field>
   <field type="int">atomtype</field>
   <set>
    <rc><c>Fe</c><c>   1</c></rc>
    <rc><c>Fe</c><c>   1</c></rc>
    <rc><c>Fe</c><c>   1</c></rc>
    <rc><c>Fe</c><c>   1</c></rc>
   </set>
  </array>
  <array name="atomtypes" >
   <dimension dim="1">type</dimension>
   <field type="int">atomspertype</field>
   <field type="string">element</field>
   <field>mass</field>
   <field>valence</field>
   <field type="string">pseudopotential</field>
   <set>
    <rc><c>   4</c><c>Fe</c><c>     55.84700000</c><c>      8.00000000</c><c> PAW_PBE Fe 06Sep2000                   </c></rc>
   </set>
  </array>
 </atominfo>
 <structure name="initialpos" >
  <crystal>
   <varray name="basis" >
    <v>       3.52399993       0.00000000       0.00000000 </v>
    <v>       0.00000000       3.52399993       0.00000000 </v>
    <v>       0.00000000       0.00000000       3.52399993 </v>
   </varray>
   <i name="volume">     43.76305919 </i>
   <varray name="rec_basis" >
    <v>       0.28376845       0.00000000       0.00000000 </v>
    <v>       0.00000000       0.28376845       0.00000000 </v>
    <v>       0.00000000       0.00000000       0.28376845 </v>
   </varray>
  </crystal>
  <varray name="positions" >
   <v>       0.00000000       0.00000000       0.00000000 </v>
   <v>       0.00000000       0.50000000       0.50000000 </v>
   <v>       0.50000000       0.00000000       0.50000000 </v>
   <v>       0.50000000       0.50000000       0.00000000 </v>
  </varray>
 </structure>
 <calculation>
  <scstep>
   <time name="dav">    0.03    0.03</time>
   <time name="total">    0.04    0.04</time>
   <energy>
    <i name="alphaZ">    252.59154684 </i>
    <i name="ewald">  -2398.04004830 </i>
    <i name="hartreedc">   -435.19973680 </i>
    <i name="XCdc">     15.70196966 </i>
    <i name="pawpsdc">   1915.69958721 </i>
    <i name="pawaedc">  -1946.23263755 </i>
    <i name="eentropy">      0.00316179 </i>
    <i name="bandstr">    387.08247540 </i>
    <i name="atom">   2377.83966224 </i>
    <i name="e_fr_energy">    169.44598049 </i>
    <i name="e_wo_entrp">    169.44281870 </i>
    <i name="e_0_energy">    169.44492656 </i>
   </energy>
  </scstep>
  <scstep>
   <time name="dav">    0.02    0.03</time>
   <time name="total">    0.02    0.03</time>
   <energy>
    <i name="e_fr_energy">    -32.52179606 </i>
    <i name="e_wo_entrp">    -32.51248374 </i>
    <i name="e_0_energy">    -32.51869195 </i>
   </energy>
  </scstep>
  <scstep>
   <time name="dav">    0.03    0.03</time>
   <time name="total">    0.03    0.03</time>
   <energy>
    <i name="e_fr_energy">    -38.72001630 </i>
    <i name="e_wo_entrp">    -38.65562472 </i>
    <i name="e_0_energy">    -38.69855244 </i>
   </energy>
  </scstep>
  <scstep>
   <time name="dav">    0.02    0.02</time>
   <time name="total">    0.02    0.02</time>
   <energy>
    <i name="e_fr_energy">    -38.80612002 </i>
    <i name="e_wo_entrp">    -38.74300013 </i>
    <i name="e_0_energy">    -38.78508006 </i>
   </energy>
  </scstep>
  <scstep>
   <time name="dav">    0.03    0.03</time>
   <time name="total">    0.03    0.03</time>
   <energy>
    <i name="e_fr_energy">    -38.80794190 </i>
    <i name="e_wo_entrp">    -38.74487451 </i>
    <i name="e_0_energy">    -38.78691944 </i>
   </energy>
  </scstep>
  <scstep>
   <time name="diag">    0.01    0.01</time>
   <time name="diis">    0.01    0.01</time>
   <time name="orth">    0.00    0.00</time>
   <time name="total">    0.02    0.02</time>
   <energy>
    <i name="e_fr_energy">    -32.93145883 </i>
    <i name="e_wo_entrp">    -32.89090982 </i>
    <i name="e_0_energy">    -32.91794250 </i>
   </energy>
  </scstep>
  <scstep>
   <time name="diag">    0.01    0.01</time>
   <time name="diis">    0.01    0.01</time>
   <time name="orth">    0.00    0.00</time>
   <time name="total">    0.02    0.02</time>
   <energy>
    <i name="e_fr_energy">    -32.43445360 </i>
    <i name="e_wo_entrp">    -32.37121456 </i>
    <i name="e_0_energy">    -32.41337392 </i>
   </energy>
  </scstep>
  <scstep>
   <time name="diag">    0.01    0.01</time>
   <time name="diis">    0.01    0.01</time>
   <time name="orth">    0.00    0.00</time>
   <time name="total">    0.02    0.02</time>
   <energy>
    <i name="e_fr_energy">    -32.38392497 </i>
    <i name="e_wo_entrp">    -32.32076535 </i>
    <i name="e_0_energy">    -32.36287176 </i>
   </energy>
  </scstep>
  <scstep>
   <time name="diag">    0.01    0.01</time>
   <time name="diis">    0.01    0.01</time>
   <time name="orth">    0.00    0.00</time>
   <time name="total">    0.02    0.02</time>
   <energy>
    <i name="e_fr_energy">    -32.37932179 </i>
    <i name="e_wo_entrp">    -32.31639728 </i>
    <i name="e_0_energy">    -32.35834695 </i>
   </energy>
  </scstep>
  <scstep>
   <time name="diag">    0.01    0.01</time>
   <time name="diis">    0.01    0.01</time>
   <time name="orth">    0.00    0.00</time>
   <time name="total">    0.02    0.02</time>
   <energy>
    <i name="e_fr_energy">    -32.37927811 </i>
    <i name="e_wo_entrp">    -32.31642863 </i>
    <i name="e_0_energy">    -32.35832829 </i>
   </energy>
  </scstep>
  <scstep>
   <time name="diag">    0.01    0.01</time>
   <time name="diis">    0.01    0.01</time>
   <time name="orth">    0.00    0.00</time>
   <time name="total">    0.02    0.02</time>
   <energy>
    <i name="e_fr_energy">    -32.37921941 </i>
    <i name="e_wo_entrp">    -32.31638492 </i>
    <i name="e_0_energy">    -32.35827458 </i>
   </energy>
  </scstep>
  <scstep>
   <time name="diag">    0.01    0.01</time>
   <time name="diis">    0.01    0.01</time>
   <time name="orth">    0.00    0.00</time>
   <time name="total">    0.02    0.02</time>
   <energy>
    <i name="e_fr_energy">    -32.37920742 </i>
    <i name="e_wo_entrp">    -32.31633334 </i>
    <i name="e_0_energy">    -32.35824939 </i>
   </energy>
  </scstep>
  <scstep>
   <time name="diag">    0.01    0.01</time>
   <time name="diis">    0.00    0.00</time>
   <time name="orth">    0.00    0.00</time>
   <time name="total">    0.01    0.01</time>
   <energy>
    <i name="alphaZ">    252.59154684 </i>
    <i name="ewald">  -2398.04004830 </i>
    <i name="hartreedc">   -366.49765937 </i>
    <i name="XCdc">     12.52223163 </i>
    <i name="pawpsdc">   2087.32166322 </i>
    <i name="pawaedc">  -2120.88681238 </i>
    <i name="eentropy">     -0.06287478 </i>
    <i name="bandstr">    122.83308285 </i>
    <i name="atom">   2377.83966224 </i>
    <i name="e_fr_energy">    -32.37920805 </i>
    <i name="e_wo_entrp">    -32.31633327 </i>
    <i name="e_0_energy">    -32.35824979 </i>
   </energy>
  </scstep>
  <structure>
   <crystal>
    <varray name="basis" >
     <v>       3.52399993       0.00000000       0.00000000 </v>
     <v>       0.00000000       3.52399993       0.00000000 </v>
     <v>       0.00000000       0.00000000       3.52399993 </v>
    </varray>
    <i name="volume">     43.76305919 </i>
    <varray name="rec_basis" >
     <v>       0.28376845       0.00000000       0.00000000 </v>
     <v>       0.00000000       0.28376845       0.00000000 </v>
     <v>       0.00000000       0.00000000       0.28376845 </v>
    </varray>
   </crystal>
   <varray name="positions" >
    <v>       0.00000000       0.00000000       0.00000000 </v>
    <v>       0.00000000       0.50000000       0.50000000 </v>
    <v>       0.50000000       0.00000000       0.50000000 </v>
    <v>       0.50000000       0.50000000       0.00000000 </v>
   </varray>
  </structure>
  <varray name="forces" >
   <v>      -0.00000000      -0.00000000      -0.00000000 </v>
   <v>      -0.00000000       0.00000000      -0.00000000 </v>
   <v>       0.00000000      -0.00000000       0.00000000 </v>
   <v>       0.00000000       0.00000000       0.00000000 </v>
  </varray>
  <varray name="stress" >
   <v>    -159.39490745       0.00000000      -0.00000000 </v>
   <v>       0.00000000    -159.39490745       0.00000000 </v>
   <v>      -0.00000000       0.00000000    -159.39490745 </v>
  </varray>
  <energy>
   <i name="e_fr_energy">    -32.37920805 </i>
   <i name="e_wo_entrp">    -32.35824979 </i>
   <i name="e_0_energy">     -0.06287478 </i>
  </energy>
  <time name="totalsc">    0.34    0.34</time>
 </calculation>
 <calculation>
  <scstep>
   <time name="dav">    0.02    0.02</time>
   <time name="total">    0.03    0.03</time>
   <energy>
    <i name="alphaZ">    296.95799781 </i>
    <i name="ewald">  -2530.93992270 </i>
    <i name="hartreedc">   -386.80835644 </i>
    <i name="XCdc">     18.68431554 </i>
    <i name="pawpsdc">   2087.30040462 </i>
    <i name="pawaedc">  -2120.86329471 </i>
    <i name="eentropy">     -0.05621692 </i>
    <i name="bandstr">    218.39553043 </i>
    <i name="atom">   2377.83966224 </i>
    <i name="e_fr_energy">    -39.48988011 </i>
    <i name="e_wo_entrp">    -39.43366319 </i>
    <i name="e_0_energy">    -39.47114114 </i>
   </energy>
  </scstep>
  <scstep>
   <time name="diag">    0.01    0.01</time>
   <time name="diis">    0.01    0.01</time>
   <time name="orth">    0.00    0.00</time>
   <time name="total">    0.02    0.02</time>
   <energy>
    <i name="e_fr_energy">    -32.60718617 </i>
    <i name="e_wo_entrp">    -32.55238651 </i>
    <i name="e_0_energy">    -32.58891962 </i>
   </energy>
  </scstep>
  <scstep>
   <time name="diag">    0.01    0.01</time>
   <time name="diis">    0.01    0.01</time>
   <time name="orth">    0.00    0.00</time>
   <time name="total">    0.02    0.02</time>
   <energy>
    <i name="e_fr_energy">    -32.25526911 </i>
    <i name="e_wo_entrp">    -32.19304527 </i>
    <i name="e_0_energy">    -32.23452783 </i>
   </energy>
  </scstep>
  <scstep>
   <time name="diag">    0.01    0.01</time>
   <time name="diis">    0.01    0.01</time>
   <time name="orth">    0.00    0.00</time>
   <time name="total">    0.02    0.02</time>
   <energy>
    <i name="e_fr_energy">    -32.15590040 </i>
    <i name="e_wo_entrp">    -32.09880164 </i>
    <i name="e_0_energy">    -32.13686748 </i>
   </energy>
  </scstep>
  <scstep>
   <time name="diag">    0.01    0.01</time>
   <time name="diis">    0.01    0.01</time>
   <time name="orth">    0.00    0.00</time>
   <time name="total">    0.02    0.02</time>
   <energy>
    <i name="e_fr_energy">    -32.14982379 </i>
    <i name="e_wo_entrp">    -32.09072380 </i>
    <i name="e_0_energy">    -32.13012380 </i>
   </energy>
  </scstep>
  <scstep>
   <time name="diag">    0.01    0.01</time>
   <time name="diis">    0.01    0.01</time>
   <time name="orth">    0.00    0.00</time>
   <time name="total">    0.02    0.02</time>
   <energy>
    <i name="e_fr_energy">    -32.14910103 </i>
    <i name="e_wo_entrp">    -32.08974532 </i>
    <i name="e_0_energy">    -32.12931580 </i>
   </energy>
  </scstep>
  <scstep>
   <time name="diag">    0.01    0.01</time>
   <time name="diis">    0.01    0.01</time>
   <time name="orth">    0.00    0.00</time>
   <time name="total">    0.02    0.02</time>
   <energy>
    <i name="e_fr_energy">    -32.14907800 </i>
    <i name="e_wo_entrp">    -32.08974364 </i>
    <i name="e_0_energy">    -32.12929988 </i>
   </energy>
  </scstep>
  <scstep>
   <time name="diag">    0.01    0.01</time>
   <time name="diis">    0.01    0.01</time>
   <time name="orth">    0.00    0.00</time>
   <time name="total">    0.02    0.02</time>
   <energy>
    <i name="e_fr_energy">    -32.14907902 </i>
    <i name="e_wo_entrp">    -32.08970739 </i>
    <i name="e_0_energy">    -32.12928847 </i>
   </energy>
  </scstep>
  <scstep>
   <time name="diag">    0.01    0.01</time>
   <time name="diis">    0.00    0.00</time>
   <time name="orth">    0.00    0.00</time>
   <time name="total">    0.01    0.01</time>
   <energy>
    <i name="alphaZ">    296.95799781 </i>
    <i name="ewald">  -2530.93992270 </i>
    <i name="hartreedc">   -320.40662909 </i>
    <i name="XCdc">     14.63059898 </i>
    <i name="pawpsdc">   2254.02412815 </i>
    <i name="pawaedc">  -2290.67851110 </i>
    <i name="eentropy">     -0.05938261 </i>
    <i name="bandstr">    166.48297877 </i>
    <i name="atom">   2377.83966224 </i>
    <i name="e_fr_energy">    -32.14907955 </i>
    <i name="e_wo_entrp">    -32.08969694 </i>
    <i name="e_0_energy">    -32.12928535 </i>
   </energy>
  </scstep>
  <structure>
   <crystal>
    <varray name="basis" >
     <v>       3.33895439       0.00000000      -0.00000000 </v>
     <v>       0.00000000       3.33895439       0.00000000 </v>
     <v>      -0.00000000       0.00000000       3.33895439 </v>
    </varray>
    <i name="volume">     37.22472167 </i>
    <varray name="rec_basis" >
     <v>       0.29949496      -0.00000000       0.00000000 </v>
     <v>      -0.00000000       0.29949496      -0.00000000 </v>
     <v>       0.00000000      -0.00000000       0.29949496 </v>
    </varray>
   </crystal>
   <varray name="positions" >
    <v>      -0.00000000      -0.00000000      -0.00000000 </v>
    <v>      -0.00000000       0.50000000       0.50000000 </v>
    <v>       0.50000000      -0.00000000       0.50000000 </v>
    <v>       0.50000000       0.50000000       0.00000000 </v>
   </varray>
  </structure>
  <varray name="forces" >
   <v>       0.00000000      -0.00000000       0.00000000 </v>
   <v>      -0.00000000       0.00000000      -0.00000000 </v>
   <v>       0.00000000      -0.00000000      -0.00000000 </v>
   <v>      -0.00000000       0.00000000       0.00000000 </v>
  </varray>
  <varray name="stress" >
   <v>     349.04504604       0.00000000       0.00000000 </v>
   <v>      -0.00000000     349.04504604      -0.00000000 </v>
   <v>      -0.00000000      -0.00000000     349.04504604 </v>
  </varray>
  <energy>
   <i name="e_fr_energy">    -32.14907955 </i>
   <i name="e_wo_entrp">    -32.12928535 </i>
   <i name="e_0_energy">     -0.05938261 </i>
  </energy>
  <time name="totalsc">    0.23    0.24</time>
 </calculation>
 <calculation>
  <scstep>
   <time name="dav">    0.02    0.02</time>
   <time name="total">    0.03    0.03</time>
   <energy>
    <i name="alphaZ">    269.08838030 </i>
    <i name="ewald">  -2449.14863418 </i>
    <i name="hartreedc">   -310.05092377 </i>
    <i name="XCdc">     11.09343789 </i>
    <i name="pawpsdc">   2254.03650803 </i>
    <i name="pawaedc">  -2290.68901834 </i>
    <i name="eentropy">      0.00634852 </i>
    <i name="bandstr">    102.57177370 </i>
    <i name="atom">   2377.83966224 </i>
    <i name="e_fr_energy">    -35.25246561 </i>
    <i name="e_wo_entrp">    -35.25881413 </i>
    <i name="e_0_energy">    -35.25458179 </i>
   </energy>
  </scstep>
  <scstep>
   <time name="diag">    0.01    0.01</time>
   <time name="diis">    0.01    0.01</time>
   <time name="orth">    0.00    0.00</time>
   <time name="total">    0.02    0.02</time>
   <energy>
    <i name="e_fr_energy">    -32.82724032 </i>
    <i name="e_wo_entrp">    -32.76806074 </i>
    <i name="e_0_energy">    -32.80751379 </i>
   </energy>
  </scstep>
  <scstep>
   <time name="diag">    0.01    0.01</time>
   <time name="diis">    0.01    0.01</time>
   <time name="orth">    0.00    0.00</time>
   <time name="total">    0.02    0.02</time>
   <energy>
    <i name="e_fr_energy">    -32.57267281 </i>
    <i name="e_wo_entrp">    -32.51086049 </i>
    <i name="e_0_energy">    -32.55206871 </i>
   </energy>
  </scstep>
  <scstep>
   <time name="diag">    0.01    0.01</time>
   <time name="diis">    0.01    0.01</time>
   <time name="orth">    0.00    0.00</time>
   <time name="total">    0.02    0.02</time>
   <energy>
    <i name="e_fr_energy">    -32.52442579 </i>
    <i name="e_wo_entrp">    -32.46278211 </i>
    <i name="e_0_energy">    -32.50387790 </i>
   </energy>
  </scstep>
  <scstep>
   <time name="diag">    0.01    0.01</time>
   <time name="diis">    0.01    0.01</time>
   <time name="orth">    0.00    0.00</time>
   <time name="total">    0.02    0.02</time>
   <energy>
    <i name="e_fr_energy">    -32.52376451 </i>
    <i name="e_wo_entrp">    -32.46086992 </i>
    <i name="e_0_energy">    -32.50279965 </i>
   </energy>
  </scstep>
  <scstep>
   <time name="diag">    0.01    0.01</time>
   <time name="diis">    0.01    0.01</time>
   <time name="orth">    0.00    0.00</time>
   <time name="total">    0.02    0.02</time>
   <energy>
    <i name="e_fr_energy">    -32.52353910 </i>
    <i name="e_wo_entrp">    -32.46073835 </i>
    <i name="e_0_energy">    -32.50260551 </i>
   </energy>
  </scstep>
  <scstep>
   <time name="diag">    0.01    0.01</time>
   <time name="diis">    0.01    0.01</time>
   <time name="orth">    0.00    0.00</time>
   <time name="total">    0.02    0.02</time>
   <energy>
    <i name="e_fr_energy">    -32.52354055 </i>
    <i name="e_wo_entrp">    -32.46080116 </i>
    <i name="e_0_energy">    -32.50262742 </i>
   </energy>
  </scstep>
  <scstep>
   <time name="diag">    0.01    0.01</time>
   <time name="diis">    0.00    0.00</time>
   <time name="orth">    0.00    0.00</time>
   <time name="total">    0.02    0.02</time>
   <energy>
    <i name="e_fr_energy">    -32.52353850 </i>
    <i name="e_wo_entrp">    -32.46080342 </i>
    <i name="e_0_energy">    -32.50262681 </i>
   </energy>
  </scstep>
  <scstep>
   <time name="diag">    0.01    0.01</time>
   <time name="diis">    0.00    0.00</time>
   <time name="orth">    0.00    0.00</time>
   <time name="total">    0.01    0.01</time>
   <energy>
    <i name="alphaZ">    269.08838030 </i>
    <i name="ewald">  -2449.14863418 </i>
    <i name="hartreedc">   -347.98483099 </i>
    <i name="XCdc">     13.30481021 </i>
    <i name="pawpsdc">   2145.27747207 </i>
    <i name="pawaedc">  -2179.88540264 </i>
    <i name="eentropy">     -0.06273174 </i>
    <i name="bandstr">    139.04773605 </i>
    <i name="atom">   2377.83966224 </i>
    <i name="e_fr_energy">    -32.52353869 </i>
    <i name="e_wo_entrp">    -32.46080695 </i>
    <i name="e_0_energy">    -32.50262811 </i>
   </energy>
  </scstep>
  <structure>
   <crystal>
    <varray name="basis" >
     <v>       3.45046146       0.00000000      -0.00000000 </v>
     <v>       0.00000000       3.45046146       0.00000000 </v>
     <v>      -0.00000000       0.00000000       3.45046146 </v>
    </varray>
    <i name="volume">     41.08010462 </i>
    <varray name="rec_basis" >
     <v>       0.28981631      -0.00000000       0.00000000 </v>
     <v>      -0.00000000       0.28981631      -0.00000000 </v>
     <v>       0.00000000      -0.00000000       0.28981631 </v>
    </varray>
   </crystal>
   <varray name="positions" >
    <v>      -0.00000000      -0.00000000      -0.00000000 </v>
    <v>      -0.00000000       0.50000000       0.50000000 </v>
    <v>       0.50000000      -0.00000000       0.50000000 </v>
    <v>       0.50000000       0.50000000       0.00000000 </v>
   </varray>
  </structure>
  <varray name="forces" >
   <v>       0.00000000       0.00000000       0.00000000 </v>
   <v>       0.00000000       0.00000000       0.00000000 </v>
   <v>      -0.00000000      -0.00000000      -0.00000000 </v>
   <v>      -0.00000000      -0.00000000      -0.00000000 </v>
  </varray>
  <varray name="stress" >
   <v>      -1.94875699       0.00000000      -0.00000000 </v>
   <v>      -0.00000000      -1.94875699       0.00000000 </v>
   <v>       0.00000000       0.00000000      -1.94875699 </v>
  </varray>
  <energy>
   <i name="e_fr_energy">    -32.52353869 </i>
   <i name="e_wo_entrp">    -32.50262811 </i>
   <i name="e_0_energy">     -0.06273174 </i>
  </energy>
  <time name="totalsc">    0.23    0.23</time>
 </calculation>
 <calculation>
  <scstep>
   <time name="dav">    0.02    0.02</time>
   <time name="total">    0.03    0.03</time>
   <energy>
    <i name="alphaZ">    269.24819694 </i>
    <i name="ewald">  -2449.63340332 </i>
    <i name="hartreedc">   -348.05784680 </i>
    <i name="XCdc">     13.32678707 </i>
    <i name="pawpsdc">   2145.28341250 </i>
    <i name="pawaedc">  -2179.89148361 </i>
    <i name="eentropy">     -0.06291108 </i>
    <i name="bandstr">    139.42391624 </i>
    <i name="atom">   2377.83966224 </i>
    <i name="e_fr_energy">    -32.52366982 </i>
    <i name="e_wo_entrp">    -32.46075874 </i>
    <i name="e_0_energy">    -32.50269946 </i>
   </energy>
  </scstep>
  <scstep>
   <time name="diag">    0.01    0.01</time>
   <time name="diis">    0.01    0.01</time>
   <time name="orth">    0.00    0.00</time>
   <time name="total">    0.02    0.02</time>
   <energy>
    <i name="e_fr_energy">    -32.52357738 </i>
    <i name="e_wo_entrp">    -32.46087590 </i>
    <i name="e_0_energy">    -32.50267689 </i>
   </energy>
  </scstep>
  <scstep>
   <time name="diag">    0.01    0.01</time>
   <time name="diis">    0.01    0.01</time>
   <time name="orth">    0.00    0.00</time>
   <time name="total">    0.02    0.02</time>
   <energy>
    <i name="e_fr_energy">    -32.52356668 </i>
    <i name="e_wo_entrp">    -32.46084072 </i>
    <i name="e_0_energy">    -32.50265802 </i>
   </energy>
  </scstep>
  <scstep>
   <time name="diag">    0.01    0.01</time>
   <time name="diis">    0.00    0.00</time>
   <time name="orth">    0.00    0.00</time>
   <time name="total">    0.02    0.02</time>
   <energy>
    <i name="e_fr_energy">    -32.52356552 </i>
    <i name="e_wo_entrp">    -32.46083563 </i>
    <i name="e_0_energy">    -32.50265556 </i>
   </energy>
  </scstep>
  <scstep>
   <time name="diag">    0.01    0.01</time>
   <time name="diis">    0.00    0.00</time>
   <time name="orth">    0.00    0.00</time>
   <time name="total">    0.01    0.01</time>
   <energy>
    <i name="alphaZ">    269.24819694 </i>
    <i name="ewald">  -2449.63340332 </i>
    <i name="hartreedc">   -347.81261836 </i>
    <i name="XCdc">     13.31234381 </i>
    <i name="pawpsdc">   2145.84728779 </i>
    <i name="pawaedc">  -2180.46950365 </i>
    <i name="eentropy">     -0.06272333 </i>
    <i name="bandstr">    139.20719243 </i>
    <i name="atom">   2377.83966224 </i>
    <i name="e_fr_energy">    -32.52356546 </i>
    <i name="e_wo_entrp">    -32.46084214 </i>
    <i name="e_0_energy">    -32.50265769 </i>
   </energy>
  </scstep>
  <structure>
   <crystal>
    <varray name="basis" >
     <v>       3.44977863       0.00000000      -0.00000000 </v>
     <v>       0.00000000       3.44977863       0.00000000 </v>
     <v>      -0.00000000       0.00000000       3.44977863 </v>
    </varray>
    <i name="volume">     41.05572086 </i>
    <varray name="rec_basis" >
     <v>       0.28987367      -0.00000000       0.00000000 </v>
     <v>      -0.00000000       0.28987367      -0.00000000 </v>
     <v>       0.00000000      -0.00000000       0.28987367 </v>
    </varray>
   </crystal>
   <varray name="positions" >
    <v>      -0.00000000      -0.00000000      -0.00000000 </v>
    <v>      -0.00000000       0.50000000       0.50000000 </v>
    <v>       0.50000000      -0.00000000       0.50000000 </v>
    <v>       0.50000000       0.50000000       0.00000000 </v>
   </varray>
  </structure>
  <varray name="forces" >
   <v>      -0.00000000      -0.00000000      -0.00000000 </v>
   <v>       0.00000000       0.00000000       0.00000000 </v>
   <v>      -0.00000000      -0.00000000       0.00000000 </v>
   <v>       0.00000000      -0.00000000       0.00000000 </v>
  </varray>
  <varray name="stress" >
   <v>      -0.65549980       0.00000000       0.00000000 </v>
   <v>       0.00000000      -0.65549980       0.00000000 </v>
   <v>      -0.00000000      -0.00000000      -0.65549980 </v>
  </varray>
  <energy>
   <i name="e_fr_energy">    -32.52356546 </i>
   <i name="e_wo_entrp">    -32.50265769 </i>
   <i name="e_0_energy">     -0.06272333 </i>
  </energy>
  <time name="totalsc">    0.14    0.15</time>
  <eigenvalues>
   <array>
    <dimension dim="1">band</dimension>
    <dimension dim="2">kpoint</dimension>
    <dimension dim="3">spin</dimension>
    <field>eigene</field>
    <field>occ</field>
    <set>
     <set comment="spin 1">
      <set comment="kpoint 1">
       <r>   -1.3718    1.0000 </r>
       <r>    2.1718    1.0000 </r>
       <r>    2.1718    1.0000 </r>
       <r>    2.1718    1.0000 </r>
       <r>    2.8710    1.0000 </r>
       <r>    2.8710    1.0000 </r>
       <r>    2.8710    1.0000 </r>
       <r>    4.9309    1.0000 </r>
       <r>    5.3238    1.0000 </r>
       <r>    5.3238    1.0000 </r>
       <r>    6.6344    0.6847 </r>
       <r>    6.6344    0.6847 </r>
       <r>    6.6547    0.6029 </r>
       <r>    6.6547    0.6029 </r>
       <r>    6.6547    0.6029 </r>
       <r>    7.3259   -0.0000 </r>
       <r>    7.3259   -0.0000 </r>
       <r>    7.3259   -0.0000 </r>
       <r>    7.9229   -0.0000 </r>
       <r>    7.9229   -0.0000 </r>
       <r>    7.9229   -0.0000 </r>
       <r>   10.7256   -0.0000 </r>
       <r>   10.7256   -0.0000 </r>
       <r>   10.7256   -0.0000 </r>
      </set>
      <set comment="kpoint 2">
       <r>    0.1819    1.0000 </r>
       <r>    2.0395    1.0000 </r>
       <r>    2.9856    1.0000 </r>
       <r>    2.9856    1.0000 </r>
       <r>    3.4541    1.0000 </r>
       <r>    3.5244    1.0000 </r>
       <r>    3.5244    1.0000 </r>
       <r>    4.3242    1.0000 </r>
       <r>    4.9151    1.0000 </r>
       <r>    4.9151    1.0000 </r>
       <r>    5.4614    1.0000 </r>
       <r>    5.5053    1.0000 </r>
       <r>    5.7369    1.0000 </r>
       <r>    6.4324    1.0354 </r>
       <r>    6.5283    0.9775 </r>
       <r>    6.6787    0.5021 </r>
       <r>    6.6787    0.5021 </r>
       <r>    7.0649   -0.0100 </r>
       <r>    7.6177   -0.0000 </r>
       <r>    7.8051   -0.0000 </r>
       <r>    7.8051   -0.0000 </r>
       <r>    7.8490   -0.0000 </r>
       <r>   13.3091    0.0000 </r>
       <r>   13.3091    0.0000 </r>
      </set>
      <set comment="kpoint 3">
       <r>    1.3923    1.0000 </r>
       <r>    2.7971    1.0000 </r>
       <r>    2.7971    1.0000 </r>
       <r>    3.2263    1.0000 </r>
       <r>    3.8169    1.0000 </r>
       <r>    4.0100    1.0000 </r>
       <r>    4.0100    1.0000 </r>
       <r>    4.3924    1.0000 </r>
       <r>    4.6177    1.0000 </r>
       <r>    4.6177    1.0000 </r>
       <r>    4.8133    1.0000 </r>
       <r>    5.1764    1.0000 </r>
       <r>    5.6436    1.0000 </r>
       <r>    6.1075    1.0002 </r>
       <r>    6.1185    1.0003 </r>
       <r>    6.1185    1.0003 </r>
       <r>    6.5533    0.9329 </r>
       <r>    7.2940   -0.0001 </r>
       <r>    7.2940   -0.0001 </r>
       <r>    7.3998   -0.0000 </r>
       <r>    7.8517   -0.0000 </r>
       <r>    9.6556   -0.0000 </r>
       <r>    9.6556   -0.0000 </r>
       <r>   12.0128   -0.0000 </r>
      </set>
      <set comment="kpoint 4">
       <r>    1.7142    1.0000 </r>
       <r>    2.3428    1.0000 </r>
       <r>    2.3428    1.0000 </r>
       <r>    2.3428    1.0000 </r>
       <r>    4.6132    1.0000 </r>
       <r>    4.6132    1.0000 </r>
       <r>    4.6132    1.0000 </r>
       <r>    5.1926    1.0000 </r>
       <r>    5.1926    1.0000 </r>
       <r>    5.4022    1.0000 </r>
       <r>    5.4022    1.0000 </r>
       <r>    5.4022    1.0000 </r>
       <r>    5.5297    1.0000 </r>
       <r>    5.5521    1.0000 </r>
       <r>    5.5521    1.0000 </r>
       <r>    5.5521    1.0000 </r>
       <r>    7.4462   -0.0000 </r>
       <r>    7.4462   -0.0000 </r>
       <r>    7.7864   -0.0000 </r>
       <r>    7.7864   -0.0000 </r>
       <r>    7.7864   -0.0000 </r>
       <r>    9.4284   -0.0000 </r>
       <r>    9.4284   -0.0000 </r>
       <r>    9.4284   -0.0000 </r>
      </set>
     </set>
    </set>
   </array>
  </eigenvalues>
  <separator name="orbital magnetization" >
   <v name="MAGDIPOLOUT">      0.00000000      0.00000000      0.00000000</v>
  </separator>
  <dos>
   <i name="efermi">      6.67924600 </i>
   <total>
    <array>
     <dimension dim="1">gridpoints</dimension>
     <dimension dim="2">spin</dimension>
     <field>energy</field>
     <field>total</field>
     <field>integrated</field>
     <set>
      <set comment="spin 1">
       <r>    -3.3718     0.0000     0.0000 </r>
       <r>    -3.3095     0.0000     0.0000 </r>
       <r>    -3.2473     0.0000     0.0000 </r>
       <r>    -3.1850     0.0000     0.0000 </r>
       <r>    -3.1227     0.0000     0.0000 </r>
       <r>    -3.0605     0.0000     0.0000 </r>
       <r>    -2.9982    -0.0000    -0.0000 </r>
       <r>    -2.9359    -0.0000    -0.0000 </r>
       <r>    -2.8736    -0.0000    -0.0000 </r>
       <r>    -2.8114    -0.0000    -0.0000 </r>
       <r>    -2.7491    -0.0000    -0.0000 </r>
       <r>    -2.6868    -0.0000    -0.0000 </r>
       <r>    -2.6246    -0.0000    -0.0000 </r>
       <r>    -2.5623    -0.0000    -0.0000 </r>
       <r>    -2.5000    -0.0000    -0.0000 </r>
       <r>    -2.4378    -0.0000    -0.0000 </r>
       <r>    -2.3755    -0.0000    -0.0000 </r>
       <r>    -2.3132    -0.0000    -0.0000 </r>
       <r>    -2.2509    -0.0000    -0.0000 </r>
       <r>    -2.1887    -0.0000    -0.0000 </r>
       <r>    -2.1264    -0.0000    -0.0000 </r>
       <r>    -2.0641    -0.0000    -0.0000 </r>
       <r>    -2.0019    -0.0001    -0.0000 </r>
       <r>    -1.9396    -0.0007    -0.0001 </r>
       <r>    -1.8773    -0.0032    -0.0003 </r>
       <r>    -1.8151    -0.0109    -0.0009 </r>
       <r>    -1.7528    -0.0281    -0.0027 </r>
       <r>    -1.6905    -0.0507    -0.0058 </r>
       <r>    -1.6283    -0.0467    -0.0087 </r>
       <r>    -1.5660     0.0528    -0.0055 </r>
       <r>    -1.5037     0.3087     0.0138 </r>
       <r>    -1.4414     0.6791     0.0561 </r>
       <r>    -1.3792     0.9822     0.1172 </r>
       <r>    -1.3169     1.0199     0.1807 </r>
       <r>    -1.2546     0.7655     0.2284 </r>
       <r>    -1.1924     0.3908     0.2527 </r>
       <r>    -1.1301     0.0984     0.2589 </r>
       <r>    -1.0678    -0.0348     0.2567 </r>
       <r>    -1.0056    -0.0542     0.2533 </r>
       <r>    -0.9433    -0.0335     0.2512 </r>
       <r>    -0.8810    -0.0140     0.2504 </r>
       <r>    -0.8187    -0.0044     0.2501 </r>
       <r>    -0.7565    -0.0011     0.2500 </r>
       <r>    -0.6942    -0.0002     0.2500 </r>
       <r>    -0.6319    -0.0000     0.2500 </r>
       <r>    -0.5697    -0.0000     0.2500 </r>
       <r>    -0.5074    -0.0001     0.2500 </r>
       <r>    -0.4451    -0.0004     0.2500 </r>
       <r>    -0.3829    -0.0024     0.2498 </r>
       <r>    -0.3206    -0.0103     0.2492 </r>
       <r>    -0.2583    -0.0345     0.2470 </r>
       <r>    -0.1960    -0.0875     0.2416 </r>
       <r>    -0.1338    -0.1546     0.2320 </r>
       <r>    -0.0715    -0.1341     0.2236 </r>
       <r>    -0.0092     0.1843     0.2351 </r>
       <r>     0.0530     0.9753     0.2958 </r>
       <r>     0.1153     2.0920     0.4261 </r>
       <r>     0.1776     2.9739     0.6113 </r>
       <r>     0.2398     3.0406     0.8006 </r>
       <r>     0.3021     2.2445     0.9404 </r>
       <r>     0.3644     1.1201     1.0101 </r>
       <r>     0.4266     0.2646     1.0266 </r>
       <r>     0.4889    -0.1132     1.0195 </r>
       <r>     0.5512    -0.1608     1.0095 </r>
       <r>     0.6135    -0.0971     1.0035 </r>
       <r>     0.6757    -0.0400     1.0010 </r>
       <r>     0.7380    -0.0125     1.0002 </r>
       <r>     0.8003    -0.0041     1.0000 </r>
       <r>     0.8625    -0.0062     0.9996 </r>
       <r>     0.9248    -0.0211     0.9983 </r>
       <r>     0.9871    -0.0605     0.9945 </r>
       <r>     1.0493    -0.1273     0.9866 </r>
       <r>     1.1116    -0.1658     0.9762 </r>
       <r>     1.1739    -0.0084     0.9757 </r>
       <r>     1.2362     0.5640     1.0108 </r>
       <r>     1.2984     1.5746     1.1089 </r>
       <r>     1.3607     2.6226     1.2722 </r>
       <r>     1.4230     3.0751     1.4637 </r>
       <r>     1.4852     2.6512     1.6288 </r>
       <r>     1.5475     1.7408     1.7372 </r>
       <r>     1.6098     1.0044     1.7997 </r>
       <r>     1.6720     0.7228     1.8447 </r>
       <r>     1.7343     0.6747     1.8867 </r>
       <r>     1.7966     0.6062     1.9245 </r>
       <r>     1.8589     0.6509     1.9650 </r>
       <r>     1.9211     1.1983     2.0396 </r>
       <r>     1.9834     2.3909     2.1885 </r>
       <r>     2.0457     3.8525     2.4284 </r>
       <r>     2.1079     4.9690     2.7378 </r>
       <r>     2.1702     5.3987     3.0740 </r>
       <r>     2.2325     5.2453     3.4006 </r>
       <r>     2.2947     4.7513     3.6965 </r>
       <r>     2.3570     3.9530     3.9426 </r>
       <r>     2.4193     2.7555     4.1142 </r>
       <r>     2.4816     1.3028     4.1953 </r>
       <r>     2.5438     0.1478     4.2045 </r>
       <r>     2.6061     0.0458     4.2074 </r>
       <r>     2.6684     1.5457     4.3036 </r>
       <r>     2.7306     4.5377     4.5862 </r>
       <r>     2.7929     8.0551     5.0878 </r>
       <r>     2.8552    10.7125     5.7549 </r>
       <r>     2.9174    11.5389     6.4734 </r>
       <r>     2.9797    10.4463     7.1239 </r>
       <r>     3.0420     8.1106     7.6289 </r>
       <r>     3.1042     5.5765     7.9762 </r>
       <r>     3.1665     3.7234     8.2080 </r>
       <r>     3.2288     2.8543     8.3858 </r>
       <r>     3.2911     2.9064     8.5667 </r>
       <r>     3.3533     3.9428     8.8123 </r>
       <r>     3.4156     5.9217     9.1810 </r>
       <r>     3.4779     7.9674     9.6771 </r>
       <r>     3.5401     8.6073    10.2131 </r>
       <r>     3.6024     7.1926    10.6610 </r>
       <r>     3.6647     4.7271    10.9553 </r>
       <r>     3.7269     2.9225    11.1373 </r>
       <r>     3.7892     2.6828    11.3044 </r>
       <r>     3.8515     3.7379    11.5371 </r>
       <r>     3.9138     5.2836    11.8661 </r>
       <r>     3.9760     6.4417    12.2673 </r>
       <r>     4.0383     6.4420    12.6684 </r>
       <r>     4.1006     5.1501    12.9891 </r>
       <r>     4.1628     3.4956    13.2068 </r>
       <r>     4.2251     2.8064    13.3815 </r>
       <r>     4.2874     3.5034    13.5997 </r>
       <r>     4.3496     4.7815    13.8974 </r>
       <r>     4.4119     5.7465    14.2553 </r>
       <r>     4.4742     6.4945    14.6597 </r>
       <r>     4.5365     7.6200    15.1342 </r>
       <r>     4.5987     8.9352    15.6906 </r>
       <r>     4.6610     9.5092    16.2827 </r>
       <r>     4.7233     9.0942    16.8490 </r>
       <r>     4.7855     8.6118    17.3852 </r>
       <r>     4.8478     8.7664    17.9311 </r>
       <r>     4.9101     8.9322    18.4873 </r>
       <r>     4.9723     8.0897    18.9911 </r>
       <r>     5.0346     6.3944    19.3892 </r>
       <r>     5.0969     5.0591    19.7043 </r>
       <r>     5.1591     4.8671    20.0073 </r>
       <r>     5.2214     5.5415    20.3524 </r>
       <r>     5.2837     6.6194    20.7646 </r>
       <r>     5.3460     8.1861    21.2743 </r>
       <r>     5.4082    10.3549    21.9191 </r>
       <r>     5.4705    12.4935    22.6971 </r>
       <r>     5.5328    13.4971    23.5376 </r>
       <r>     5.5950    12.7654    24.3325 </r>
       <r>     5.6573    10.6073    24.9930 </r>
       <r>     5.7196     7.7418    25.4751 </r>
       <r>     5.7818     4.7713    25.7722 </r>
       <r>     5.8441     2.2857    25.9145 </r>
       <r>     5.9064     1.1390    25.9854 </r>
       <r>     5.9687     2.1030    26.1164 </r>
       <r>     6.0309     4.9295    26.4233 </r>
       <r>     6.0932     7.8930    26.9148 </r>
       <r>     6.1555     8.8419    27.4654 </r>
       <r>     6.2177     7.1230    27.9090 </r>
       <r>     6.2800     4.2988    28.1766 </r>
       <r>     6.3423     2.7551    28.3482 </r>
       <r>     6.4045     3.7994    28.5848 </r>
       <r>     6.4668     7.0977    29.0268 </r>
       <r>     6.5291    11.3068    29.7308 </r>
       <r>     6.5914    14.7242    30.6477 </r>
       <r>     6.6536    15.7195    31.6265 </r>
       <r>     6.7159    13.4991    32.4671 </r>
       <r>     6.7782     8.9107    33.0220 </r>
       <r>     6.8404     4.1398    33.2798 </r>
       <r>     6.9027     1.1772    33.3531 </r>
       <r>     6.9650     0.5130    33.3850 </r>
       <r>     7.0272     1.2881    33.4652 </r>
       <r>     7.0895     2.5444    33.6237 </r>
       <r>     7.1518     4.2083    33.8857 </r>
       <r>     7.2141     6.7459    34.3058 </r>
       <r>     7.2763     9.8913    34.9217 </r>
       <r>     7.3386    12.1600    35.6789 </r>
       <r>     7.4009    12.0518    36.4294 </r>
       <r>     7.4631     9.5922    37.0267 </r>
       <r>     7.5254     6.4222    37.4266 </r>
       <r>     7.5877     4.5931    37.7126 </r>
       <r>     7.6499     5.4532    38.0522 </r>
       <r>     7.7122     9.0789    38.6175 </r>
       <r>     7.7745    13.9178    39.4842 </r>
       <r>     7.8367    17.1616    40.5528 </r>
       <r>     7.8990    16.5262    41.5819 </r>
       <r>     7.9613    12.1579    42.3390 </r>
       <r>     8.0236     6.4701    42.7419 </r>
       <r>     8.0858     2.0240    42.8679 </r>
       <r>     8.1481    -0.2013    42.8554 </r>
       <r>     8.2104    -0.7372    42.8095 </r>
       <r>     8.2726    -0.5494    42.7753 </r>
       <r>     8.3349    -0.2691    42.7585 </r>
       <r>     8.3972    -0.0993    42.7523 </r>
       <r>     8.4594    -0.0289    42.7505 </r>
       <r>     8.5217    -0.0068    42.7501 </r>
       <r>     8.5840    -0.0013    42.7500 </r>
       <r>     8.6463    -0.0002    42.7500 </r>
       <r>     8.7085    -0.0000    42.7500 </r>
       <r>     8.7708    -0.0002    42.7500 </r>
       <r>     8.8331    -0.0011    42.7499 </r>
       <r>     8.8953    -0.0052    42.7496 </r>
       <r>     8.9576    -0.0198    42.7484 </r>
       <r>     9.0199    -0.0583    42.7447 </r>
       <r>     9.0821    -0.1274    42.7368 </r>
       <r>     9.1444    -0.1834    42.7254 </r>
       <r>     9.2067    -0.0833    42.7202 </r>
       <r>     9.2690     0.3702    42.7432 </r>
       <r>     9.3312     1.2377    42.8203 </r>
       <r>     9.3935     2.3159    42.9645 </r>
       <r>     9.4558     3.3566    43.1735 </r>
       <r>     9.5180     4.3929    43.4471 </r>
       <r>     9.5803     5.5387    43.7920 </r>
       <r>     9.6426     6.4073    44.1910 </r>
       <r>     9.7048     6.1955    44.5768 </r>
       <r>     9.7671     4.6180    44.8643 </r>
       <r>     9.8294     2.4102    45.0144 </r>
       <r>     9.8916     0.6456    45.0546 </r>
       <r>     9.9539    -0.1942    45.0425 </r>
       <r>    10.0162    -0.3363    45.0216 </r>
       <r>    10.0785    -0.2156    45.0081 </r>
       <r>    10.1407    -0.0938    45.0023 </r>
       <r>    10.2030    -0.0362    45.0000 </r>
       <r>    10.2653    -0.0314    44.9981 </r>
       <r>    10.3275    -0.0685    44.9938 </r>
       <r>    10.3898    -0.1355    44.9854 </r>
       <r>    10.4521    -0.1616    44.9753 </r>
       <r>    10.5143     0.0348    44.9775 </r>
       <r>    10.5766     0.6684    45.0191 </r>
       <r>    10.6389     1.7246    45.1265 </r>
       <r>    10.7012     2.7573    45.2982 </r>
       <r>    10.7634     3.1255    45.4928 </r>
       <r>    10.8257     2.5701    45.6529 </r>
       <r>    10.8880     1.4765    45.7448 </r>
       <r>    10.9502     0.4888    45.7752 </r>
       <r>    11.0125    -0.0387    45.7728 </r>
       <r>    11.0748    -0.1668    45.7624 </r>
       <r>    11.1370    -0.1201    45.7550 </r>
       <r>    11.1993    -0.0551    45.7515 </r>
       <r>    11.2616    -0.0186    45.7504 </r>
       <r>    11.3239    -0.0049    45.7501 </r>
       <r>    11.3861    -0.0014    45.7500 </r>
       <r>    11.4484    -0.0026    45.7498 </r>
       <r>    11.5107    -0.0104    45.7492 </r>
       <r>    11.5729    -0.0347    45.7470 </r>
       <r>    11.6352    -0.0879    45.7415 </r>
       <r>    11.6975    -0.1549    45.7319 </r>
       <r>    11.7597    -0.1334    45.7236 </r>
       <r>    11.8220     0.1871    45.7352 </r>
       <r>    11.8843     0.9805    45.7963 </r>
       <r>    11.9465     2.0977    45.9269 </r>
       <r>    12.0088     2.9767    46.1123 </r>
       <r>    12.0711     3.0384    46.3015 </r>
       <r>    12.1334     2.2390    46.4409 </r>
       <r>    12.1956     1.1147    46.5103 </r>
       <r>    12.2579     0.2615    46.5266 </r>
       <r>    12.3202    -0.1140    46.5195 </r>
       <r>    12.3824    -0.1606    46.5095 </r>
       <r>    12.4447    -0.0968    46.5035 </r>
       <r>    12.5070    -0.0398    46.5010 </r>
       <r>    12.5692    -0.0123    46.5002 </r>
       <r>    12.6315    -0.0031    46.5000 </r>
       <r>    12.6938    -0.0018    46.4999 </r>
       <r>    12.7561    -0.0065    46.4995 </r>
       <r>    12.8183    -0.0263    46.4979 </r>
       <r>    12.8806    -0.0841    46.4926 </r>
       <r>    12.9429    -0.2011    46.4801 </r>
       <r>    13.0051    -0.3251    46.4599 </r>
       <r>    13.0674    -0.2086    46.4469 </r>
       <r>    13.1297     0.5903    46.4836 </r>
       <r>    13.1919     2.3449    46.6297 </r>
       <r>    13.2542     4.5932    46.9157 </r>
       <r>    13.3165     6.1195    47.2967 </r>
       <r>    13.3788     5.8931    47.6637 </r>
       <r>    13.4410     4.0746    47.9174 </r>
       <r>    13.5033     1.8522    48.0328 </r>
       <r>    13.5656     0.3168    48.0525 </r>
       <r>    13.6278    -0.2800    48.0350 </r>
       <r>    13.6901    -0.3041    48.0161 </r>
       <r>    13.7524    -0.1686    48.0056 </r>
       <r>    13.8146    -0.0654    48.0015 </r>
       <r>    13.8769    -0.0193    48.0003 </r>
       <r>    13.9392    -0.0044    48.0001 </r>
       <r>    14.0015    -0.0008    48.0000 </r>
       <r>    14.0637    -0.0001    48.0000 </r>
       <r>    14.1260    -0.0000    48.0000 </r>
       <r>    14.1883    -0.0000    48.0000 </r>
       <r>    14.2505    -0.0000    48.0000 </r>
       <r>    14.3128    -0.0000    48.0000 </r>
       <r>    14.3751    -0.0000    48.0000 </r>
       <r>    14.4373    -0.0000    48.0000 </r>
       <r>    14.4996    -0.0000    48.0000 </r>
       <r>    14.5619    -0.0000    48.0000 </r>
       <r>    14.6241     0.0000    48.0000 </r>
       <r>    14.6864     0.0000    48.0000 </r>
       <r>    14.7487     0.0000    48.0000 </r>
       <r>    14.8110     0.0000    48.0000 </r>
       <r>    14.8732     0.0000    48.0000 </r>
       <r>    14.9355     0.0000    48.0000 </r>
       <r>    14.9978     0.0000    48.0000 </r>
       <r>    15.0600     0.0000    48.0000 </r>
       <r>    15.1223     0.0000    48.0000 </r>
       <r>    15.1846     0.0000    48.0000 </r>
       <r>    15.2468     0.0000    48.0000 </r>
       <r>    15.3091     0.0000    48.0000 </r>
      </set>
     </set>
    </array>
   </total>
  </dos>
 </calculation>
 <structure name="finalpos" >
  <crystal>
   <varray name="basis" >
    <v>       3.44977863       0.00000000      -0.00000000 </v>
    <v>       0.00000000       3.44977863       0.00000000 </v>
    <v>      -0.00000000       0.00000000       3.44977863 </v>
   </varray>
   <i name="volume">     41.05572086 </i>
   <varray name="rec_basis" >
    <v>       0.28987367      -0.00000000       0.00000000 </v>
    <v>      -0.00000000       0.28987367      -0.00000000 </v>
    <v>       0.00000000      -0.00000000       0.28987367 </v>
   </varray>
  </crystal>
  <varray name="positions" >
   <v>      -0.00000000      -0.00000000      -0.00000000 </v>
   <v>      -0.00000000       0.50000000       0.50000000 </v>
   <v>       0.50000000      -0.00000000       0.50000000 </v>
   <v>       0.50000000       0.50000000       0.00000000 </v>
  </varray>
 </structure>
</modeling>
