Opt                                     
           1
     3.524000    0.000000    0.000000
     0.000000    3.524000    0.000000
     0.000000    0.000000    3.524000
   Fe
   4
Direct configuration=     1
   0.00000000  0.00000000  0.00000000
   0.00000000  0.50000000  0.50000000
   0.50000000  0.00000000  0.50000000
   0.50000000  0.50000000  0.00000000
Opt                                     
           1
     3.338954    0.000000   -0.000000
     0.000000    3.338954    0.000000
    -0.000000    0.000000    3.338954
   Fe
   4
Direct configuration=     2
  -0.00000000 -0.00000000 -0.00000000
  -0.00000000  0.50000000  0.50000000
   0.50000000 -0.00000000  0.50000000
   0.50000000  0.50000000  0.00000000
Opt                                     
           1
     3.450461    0.000000   -0.000000
     0.000000    3.450461    0.000000
    -0.000000    0.000000    3.450461
   Fe
   4
Direct configuration=     3
  -0.00000000 -0.00000000 -0.00000000
  -0.00000000  0.50000000  0.50000000
   0.50000000 -0.00000000  0.50000000
   0.50000000  0.50000000  0.00000000
Opt                                     
           1
     3.449779    0.000000   -0.000000
     0.000000    3.449779    0.000000
    -0.000000    0.000000    3.449779
   Fe
   4
Direct configuration=     4
  -0.00000000 -0.00000000 -0.00000000
  -0.00000000  0.50000000  0.50000000
   0.50000000 -0.00000000  0.50000000
   0.50000000  0.50000000  0.00000000
