 running on    8 total cores
 distrk:  each k-point on    8 cores,    1 groups
 distr:  one band on    4 cores,    2 groups
 using from now: INCAR     
 vasp.5.4.4.18Apr17-6-g9f103f2a35 (build Aug 17 2017 06:00:38) complex          
  
 POSCAR found type information on POSCAR  Fe
 POSCAR found :  1 types and     108 ions
 scaLAPACK will be used
 LDA part: xc-table for Pade appr. of Perdew
 POSCAR, INCAR and KPOINTS ok, starting setup
 FFT: planning ...
 WAVECAR not read
 entering main loop
       N       E                     dE             d eps       ncg     rms          rms(c)
DAV:   1     0.759164956867E+04    0.75916E+04   -0.28846E+05  4160   0.184E+03
DAV:   2    -0.246909028465E+02   -0.76163E+04   -0.74466E+04  4144   0.457E+02
DAV:   3    -0.850718908002E+03   -0.82603E+03   -0.70619E+03  4160   0.191E+02
DAV:   4    -0.102968417625E+04   -0.17897E+03   -0.16798E+03  7504   0.573E+01
DAV:   5    -0.104505832583E+04   -0.15374E+02   -0.14496E+02  6640   0.219E+01    0.934E+01
RMM:   6    -0.877442153404E+03    0.16762E+03   -0.13546E+03  4144   0.110E+02    0.896E+00
RMM:   7    -0.880281737306E+03   -0.28396E+01   -0.11011E+02  4525   0.236E+01    0.362E+00
RMM:   8    -0.880283638869E+03   -0.19016E-02   -0.14218E+01  4431   0.101E+01    0.138E+01
RMM:   9    -0.879632740676E+03    0.65090E+00   -0.43877E+00  5007   0.358E+00    0.254E+00
RMM:  10    -0.879507549100E+03    0.12519E+00   -0.17753E+00  5749   0.128E+00    0.759E-01
RMM:  11    -0.879521015451E+03   -0.13466E-01   -0.13578E-01  5792   0.361E-01    0.595E-01
RMM:  12    -0.879516369039E+03    0.46464E-02   -0.31585E-02  4563   0.475E-01    0.159E-01
RMM:  13    -0.879517170710E+03   -0.80167E-03   -0.13892E-02  5800   0.974E-02    0.654E-02
RMM:  14    -0.879517185487E+03   -0.14777E-04   -0.49398E-04  4766   0.613E-02    0.177E-02
RMM:  15    -0.879517179803E+03    0.56845E-05   -0.57047E-05  6138   0.150E-02    0.117E-02
RMM:  16    -0.879517155199E+03    0.24604E-04    0.25256E-04  4412   0.596E-03    0.393E-03
RMM:  17    -0.879517107266E+03    0.47932E-04    0.38184E-04  3115   0.349E-03    0.155E-03
RMM:  18    -0.879517085656E+03    0.21611E-04    0.17631E-04  2794   0.304E-03    0.104E-03
RMM:  19    -0.879517072195E+03    0.13461E-04    0.12833E-04  2690   0.261E-03    0.863E-04
RMM:  20    -0.879517060687E+03    0.11508E-04    0.11145E-04  2650   0.180E-03    0.313E-04
RMM:  21    -0.879517050914E+03    0.97733E-05    0.95622E-05  2548   0.131E-03    0.566E-04
RMM:  22    -0.879517032705E+03    0.18209E-04    0.16563E-04  2473   0.125E-03    0.215E-04
RMM:  23    -0.879517023971E+03    0.87338E-05    0.80381E-05  1977   0.744E-04    0.192E-04
RMM:  24    -0.879517013848E+03    0.10123E-04    0.94380E-05  1915   0.789E-04    0.187E-04
RMM:  25    -0.879517006800E+03    0.70480E-05    0.64147E-05  1881   0.657E-04    0.162E-04
RMM:  26    -0.879517001087E+03    0.57125E-05    0.54559E-05  1679   0.576E-04    0.565E-05
RMM:  27    -0.879516996064E+03    0.50231E-05    0.48473E-05  1505   0.542E-04    0.211E-04
RMM:  28    -0.879516991403E+03    0.46612E-05    0.45281E-05  1290   0.452E-04    0.133E-04
RMM:  29    -0.879516987149E+03    0.42537E-05    0.41437E-05  1181   0.448E-04    0.248E-04
RMM:  30    -0.879516983168E+03    0.39810E-05    0.38844E-05  1026   0.392E-04    0.175E-04
RMM:  31    -0.879516979526E+03    0.36426E-05    0.35635E-05  1020   0.393E-04    0.244E-04
RMM:  32    -0.879516976125E+03    0.34012E-05    0.33282E-05   951   0.363E-04    0.190E-04
RMM:  33    -0.879516973014E+03    0.31110E-05    0.30526E-05   949   0.360E-04    0.235E-04
RMM:  34    -0.879516970117E+03    0.28964E-05    0.28392E-05   889   0.341E-04    0.200E-04
RMM:  35    -0.879516967471E+03    0.26460E-05    0.26015E-05   890   0.338E-04    0.223E-04
RMM:  36    -0.879516965024E+03    0.24469E-05    0.24106E-05   841   0.321E-04    0.211E-04
RMM:  37    -0.879516962779E+03    0.22458E-05    0.22066E-05   772   0.316E-04    0.235E-04
RMM:  38    -0.879516960706E+03    0.20725E-05    0.20382E-05   828   0.319E-04    0.196E-04
RMM:  39    -0.879516958810E+03    0.18957E-05    0.18639E-05   761   0.312E-04    0.206E-04
RMM:  40    -0.879516957069E+03    0.17417E-05    0.17175E-05   710   0.304E-04    0.203E-04
RMM:  41    -0.879516955470E+03    0.15984E-05    0.15682E-05  1353   0.349E-04    0.100E-04
RMM:  42    -0.879516953998E+03    0.14725E-05    0.14428E-05   815   0.263E-04    0.917E-05
RMM:  43    -0.879516952660E+03    0.13378E-05    0.13177E-05   650   0.242E-04    0.939E-05
RMM:  44    -0.879516951442E+03    0.12179E-05    0.12099E-05   610   0.240E-04    0.932E-05
RMM:  45    -0.879516950329E+03    0.11135E-05    0.11043E-05   598   0.239E-04    0.944E-05
RMM:  46    -0.879516949319E+03    0.10093E-05    0.10125E-05   626   0.255E-04    0.990E-05
RMM:  47    -0.879516948402E+03    0.91684E-06    0.92363E-06   765   0.290E-04
   1 F= -.87951695E+03 E0= -.87949331E+03  d E =-.879517E+03
 curvature:   0.00 expect dE= 0.000E+00 dE for cont linesearch  0.000E+00
 trial: gam= 0.00000 g(F)=  0.243E-37 g(S)=  0.491E-05 ort = 0.000E+00 (trialstep = 0.100E+01)
 search vector abs. value=  0.491E-05
 reached required accuracy - stopping structural energy minimisation
